Title
82320
    1SAPS     N    1   4.596   1.275  10.961  0.0630 -0.6560 -0.6410
    1SAPS   HN1    2   4.540   1.362  10.955 -1.7833 -1.8010 -0.8995
    1SAPS   HN2    3   4.674   1.271  10.892  1.0619 -0.0807  0.4134
    1SAPS   HN3    4   4.523   1.208  10.931 -0.1685  0.1535 -1.9321
    1SAPS   C12    5   4.630   1.239  11.104 -0.1120 -0.3460 -0.1812
    1SAPS  H12A    6   4.735   1.257  11.124  0.1304 -1.1336 -0.6975
    1SAPS   C13    7   4.568   1.318  11.223 -0.6545  0.2184 -0.3706
    1SAPS  O13A    8   4.519   1.428  11.197  0.4683  0.3761 -0.3103
    1SAPS  O13B    9   4.609   1.285  11.340  0.0440  0.6220  0.6961
    1SAPS   C11   10   4.598   1.092  11.126  1.2263 -0.2434 -0.2286
    1SAPS  H11A   11   4.488   1.077  11.121  1.1092 -0.0460  1.1573
    1SAPS  H11B   12   4.629   1.065  11.229  0.2081  0.3960  0.2705
    1SAPS     P   13   4.673   0.850  11.059  0.0959  0.2961 -0.1019
    1SAPS   O13   14   4.816   0.845  11.087  0.4742 -0.0036  0.0083
    1SAPS   O14   15   4.585   0.797  11.169 -0.1284  0.1847 -0.2249
    1SAPS   O12   16   4.653   1.002  11.033 -0.0298  0.1350  0.1985
    1SAPS   O11   17   4.637   0.774  10.927 -0.5146 -0.1609 -0.1537
    1SAPS    C1   18   4.656   0.846  10.803 -0.6802  0.5282 -0.1720
    1SAPS    HA   19   4.557   0.891  10.780 -2.3757 -1.6018  2.4144
    1SAPS    HB   20   4.733   0.927  10.805 -0.4499  0.2930  0.8380
    1SAPS    C2   21   4.697   0.746  10.695  0.2442  0.3811 -0.3436
    1SAPS    HS   22   4.790   0.694  10.728  0.5106 -0.4866 -2.3414
    1SAPS   O21   23   4.724   0.824  10.580  0.0313 -0.1909 -0.1134
    1SAPS   C21   24   4.794   0.771  10.485 -0.5561 -0.2935  0.1218
    1SAPS   O22   25   4.862   0.668  10.495  0.5698  0.0558 -0.3044
    1SAPS   C22   26   4.807   0.868  10.363 -0.4643 -0.3562  0.3242
    1SAPS   H2R   27   4.808   0.972  10.403 -0.5469 -0.7946  1.5114
    1SAPS   H2S   28   4.911   0.855  10.327 -0.0556 -4.2912  2.4092
    1SAPS    C3   29   4.593   0.631  10.673  0.7904  0.9511 -0.2723
    1SAPS    HX   30   4.577   0.574  10.767  2.1190  1.0913  0.0582
    1SAPS    HY   31   4.641   0.552  10.611  0.9135  2.1213 -1.7461
    1SAPS   O31   32   4.465   0.681  10.623  0.0478  0.4383 -0.9336
    1SAPS   C31   33   4.436   0.667  10.495 -0.7333  0.2476 -0.4073
    1SAPS   O32   34   4.507   0.606  10.417 -0.1154  0.2452 -0.0455
    1SAPS   C32   35   4.304   0.740  10.467  0.4040  0.6512 -0.1319
    1SAPS   H2X   36   4.337   0.840  10.432  0.1301 -0.0986 -2.7127
    1SAPS   H2Y   37   4.236   0.742  10.555  2.3292 -0.0632  1.4455
    1SAPS   C23   38   4.713   0.826  10.240  0.7482 -0.3897 -0.5234
    1SAPS   H3R   39   4.609   0.845  10.272  0.7388  1.0451 -1.3334
    1SAPS   H3S   40   4.731   0.718  10.224 -0.9426 -0.6868 -0.4958
    1SAPS   C24   41   4.731   0.919  10.122 -0.0323  1.1986 -0.3643
    1SAPS   H4R   42   4.838   0.919  10.095  0.3159 -0.6016  0.8165
    1SAPS   H4S   43   4.705   1.023  10.151  0.1938  1.2212 -0.2383
    1SAPS   C25   44   4.642   0.884  10.006 -0.8241 -0.9798  0.1778
    1SAPS   H5R   45   4.538   0.861  10.034 -0.8605 -1.7596 -0.5747
    1SAPS   C26   46   4.682   0.856   9.885  0.4486 -0.0818 -0.3378
    1SAPS   H6R   47   4.603   0.823   9.816  0.7030 -0.3780 -0.4934
    1SAPS   C27   48   4.820   0.871   9.834 -0.3029  0.2920  0.1538
    1SAPS   H7R   49   4.850   0.796   9.758  0.0337 -1.2282  1.7364
    1SAPS   H7S   50   4.899   0.841   9.905 -0.6930 -0.0836  0.4337
    1SAPS   C28   51   4.844   1.008   9.788 -0.1333 -0.1803 -0.7456
    1SAPS   H8R   52   4.878   1.081   9.863  0.9071  0.2830 -1.6352
    1SAPS   C29   53   4.821   1.051   9.661  0.2826  0.2507 -0.2062
    1SAPS   H9R   54   4.848   1.155   9.635  1.3129  0.5449  1.8587
    1SAPS  C210   55   4.771   0.970   9.541  0.5146 -0.4756 -0.5679
    1SAPS  H10R   56   4.666   1.006   9.527  0.3072 -1.4308 -1.6313
    1SAPS  H10S   57   4.770   0.862   9.566 -0.6879  0.2299  2.9945
    1SAPS  C211   58   4.854   0.985   9.418  0.9861  0.6103  0.3085
    1SAPS  H11R   59   4.960   0.960   9.431  0.9515  0.7206  0.8227
    1SAPS  C212   60   4.816   1.039   9.300 -0.0748 -0.2223  0.0273
    1SAPS  H12R   61   4.892   1.046   9.220 -0.5675  0.5453 -0.3847
    1SAPS  C213   62   4.678   1.092   9.270 -0.3364 -0.3318  0.3372
    1SAPS  H13R   63   4.676   1.186   9.211 -0.2874 -0.9274 -0.6505
    1SAPS  H13S   64   4.626   1.134   9.358  1.7990  0.6658  1.2120
    1SAPS  C214   65   4.600   0.981   9.213 -0.3324  0.4580  0.5178
    1SAPS  H14R   66   4.572   0.901   9.283 -0.0571  0.6785  0.8845
    1SAPS  C215   67   4.566   0.969   9.084 -0.2289  0.1570  0.9748
    1SAPS  H15R   68   4.508   0.879   9.061 -2.1574  1.4826  0.4458
    1SAPS  C216   69   4.603   1.070   8.973  0.2073 -0.1337  0.0009
    1SAPS  H16R   70   4.604   1.175   9.010  2.9109  0.2354 -0.9212
    1SAPS  H16S   71   4.516   1.064   8.905 -0.4827  0.1489  0.8321
    1SAPS  C217   72   4.733   1.055   8.896 -0.1384  0.0556  0.0631
    1SAPS  H17R   73   4.828   1.043   8.952 -0.9452  0.0001  1.4753
    1SAPS  H17S   74   4.751   1.140   8.827  2.4976 -0.1533  0.3713
    1SAPS  C218   75   4.724   0.928   8.806  0.3512  0.2135  0.5780
    1SAPS  H18R   76   4.629   0.926   8.748  0.3841 -1.1256  0.5258
    1SAPS  H18S   77   4.727   0.849   8.884  1.6589  0.0699  0.3980
    1SAPS  C219   78   4.828   0.919   8.694 -0.6682  0.1893 -0.3689
    1SAPS  H19R   79   4.798   0.996   8.620 -0.1758  0.5024 -0.2479
    1SAPS  H19S   80   4.813   0.825   8.636 -2.3582  0.5995 -0.6480
    1SAPS  C220   81   4.978   0.934   8.730  0.0397  0.6267  0.2254
    1SAPS  H20R   82   5.053   0.912   8.651  0.2063  1.1478  0.2363
    1SAPS  H20S   83   4.991   0.870   8.821 -0.4556 -0.7777 -0.6530
    1SAPS  H20T   84   4.997   1.040   8.757  1.5130  0.8329 -1.4497
    1SAPS   C33   85   4.233   0.674  10.342  1.0132  0.1421 -0.2804
    1SAPS   H3X   86   4.227   0.563  10.355  0.1330  0.3936  1.6320
    1SAPS   H3Y   87   4.292   0.684  10.247 -0.7032 -0.5607 -1.4737
    1SAPS   C34   88   4.092   0.732  10.323 -0.1976  0.8102 -0.0520
    1SAPS   H4X   89   4.108   0.825  10.265 -0.2641  1.3235  0.7432
    1SAPS   H4Y   90   4.043   0.748  10.421 -0.0647 -4.4323  1.1679
    1SAPS   C35   91   4.001   0.619  10.242  0.5241 -0.1474 -0.2246
    1SAPS   H5X   92   3.909   0.676  10.217  0.1883 -0.4133  0.3852
    1SAPS   H5Y   93   3.966   0.547  10.320  1.0794  1.8759  2.0102
    1SAPS   C36   94   4.063   0.544  10.125  0.2522 -0.2210  1.0800
    1SAPS   H6X   95   4.146   0.473  10.146  0.3147 -0.8015 -0.9458
    1SAPS   H6Y   96   4.104   0.617  10.052 -2.1857 -0.2252 -0.4177
    1SAPS   C37   97   3.940   0.471  10.067 -0.3391 -0.2495 -0.1365
    1SAPS   H7X   98   3.853   0.539  10.052 -0.5585 -0.0151  1.9065
    1SAPS   H7Y   99   3.910   0.399  10.147  1.9506  1.3994  2.4025
    1SAPS   C38  100   3.982   0.411   9.943  0.4270 -0.0766  0.5471
    1SAPS   H8X  101   3.923   0.319   9.922  0.5626  0.2567 -1.4913
    1SAPS   H8Y  102   4.086   0.372   9.946  1.2918  1.7651 -2.1381
    1SAPS   C39  103   3.970   0.496   9.805  0.0568  0.4250 -0.1608
    1SAPS   H9X  104   4.037   0.584   9.807 -0.7524  1.0423  1.0056
    1SAPS   H9Y  105   3.866   0.537   9.795 -1.2861 -1.6323  3.4923
    1SAPS  C310  106   3.994   0.416   9.678 -0.2319 -0.1134 -0.1014
    1SAPS  H10X  107   3.936   0.322   9.682  1.0025 -1.0589 -2.4273
    1SAPS  H10Y  108   4.102   0.389   9.671 -0.6909 -1.7461 -1.4208
    1SAPS  C311  109   3.963   0.487   9.546  0.0677 -0.0434  0.4588
    1SAPS  H11X  110   4.032   0.574   9.536 -0.9101  0.5772 -1.3811
    1SAPS  H11Y  111   3.862   0.533   9.547  0.1179  0.1140 -0.6148
    1SAPS  C312  112   3.969   0.391   9.429 -0.5817 -0.2779 -0.0798
    1SAPS  H12X  113   3.879   0.327   9.435  1.8300 -3.9365 -0.1755
    1SAPS  H12Y  114   4.062   0.332   9.443  1.2276  2.0363 -1.5662
    1SAPS  C313  115   3.966   0.454   9.293  1.1233  0.2743 -0.0912
    1SAPS  H13X  116   4.029   0.546   9.288 -0.0188  1.2259  1.6440
    1SAPS  H13Y  117   3.870   0.509   9.279  0.7412 -0.5447 -0.7792
    1SAPS  C314  118   3.988   0.352   9.181  0.3240 -1.2431 -0.9333
    1SAPS  H14X  119   3.917   0.268   9.196 -1.1937 -0.3071 -2.5711
    1SAPS  H14Y  120   4.094   0.317   9.182  1.4246  1.8137 -0.0741
    1SAPS  C315  121   3.955   0.405   9.043  0.1533  0.5503  0.2139
    1SAPS  H15X  122   4.028   0.485   9.017  0.8749  0.0770  0.7574
    1SAPS  H15Y  123   3.854   0.451   9.036  0.1715  0.3778 -2.7701
    1SAPS  C316  124   3.969   0.299   8.929  0.5848  0.7953  0.4988
    1SAPS  H16X  125   3.885   0.228   8.948 -1.0451  2.8359  1.3089
    1SAPS  H16Y  126   4.068   0.249   8.939 -0.1253 -0.8511 -0.3008
    1SAPS  C317  127   3.946   0.351   8.787 -0.4349 -0.1643  0.0521
    1SAPS  H17X  128   3.861   0.422   8.789  0.5287  1.0428 -0.2500
    1SAPS  H17Y  129   3.921   0.269   8.716  1.5621  0.5637 -1.6112
    1SAPS  C318  130   4.068   0.410   8.727 -0.7126  0.1673  0.4128
    1SAPS  H18X  131   4.100   0.509   8.768  0.7020  0.0284 -0.2861
    1SAPS  H18Y  132   4.048   0.429   8.620 -0.0926 -1.5884 -0.0432
    1SAPS  H18Z  133   4.154   0.342   8.740 -0.2740  0.4841 -0.7081
    2SAPS     N  134   3.681   1.645  10.627 -0.1946  0.0196  0.0969
    2SAPS   HN1  135   3.578   1.653  10.644 -0.9012 -0.4996 -3.2266
    2SAPS   HN2  136   3.733   1.731  10.652 -2.0270  0.8174  1.4734
    2SAPS   HN3  137   3.696   1.610  10.531 -0.7982  1.3355 -0.4897
    2SAPS   C12  138   3.735   1.530  10.717 -0.0971  0.5036 -0.7165
    2SAPS  H12A  139   3.835   1.503  10.688  0.3168 -0.3390  1.2942
    2SAPS   C13  140   3.729   1.569  10.866 -0.8135  0.5617 -2.0359
    2SAPS  O13A  141   3.733   1.691  10.891  0.4603 -0.2191  0.5448
    2SAPS  O13B  142   3.771   1.491  10.963  0.0285 -0.7787  0.4182
    2SAPS   C11  143   3.648   1.403  10.697  0.6650 -0.0295  0.3916
    2SAPS  H11A  144   3.688   1.321  10.761  1.2552  0.4069  0.5872
    2SAPS  H11B  145   3.650   1.364  10.593 -0.8110  0.2654  0.2264
    2SAPS     P  146   3.406   1.320  10.778  0.0864  0.3994 -0.4222
    2SAPS   O13  147   3.447   1.281  10.911 -0.0749  0.1042  0.0186
    2SAPS   O14  148   3.270   1.376  10.763  0.5903  0.8139 -0.2307
    2SAPS   O12  149   3.508   1.433  10.723 -0.2344  0.0797 -0.0724
    2SAPS   O11  150   3.410   1.192  10.684 -0.1993  0.4473 -0.2888
    2SAPS    C1  151   3.425   1.196  10.542 -0.5271  0.2421  0.4488
    2SAPS    HA  152   3.326   1.164  10.502 -0.0157 -1.3618  0.3852
    2SAPS    HB  153   3.445   1.298  10.503 -0.0931  0.5978  1.5579
    2SAPS    C2  154   3.531   1.090  10.504  0.3152  0.4998  0.4504
    2SAPS    HS  155   3.633   1.123  10.533  0.2596  0.5712  0.5669
    2SAPS   O21  156   3.521   1.086  10.359 -0.1147  0.4087 -0.3908
    2SAPS   C21  157   3.581   1.179  10.292 -0.4018 -0.6301  0.1510
    2SAPS   O22  158   3.659   1.257  10.340 -0.7928 -0.2132  0.1136
    2SAPS   C22  159   3.541   1.175  10.149 -0.5061  0.2381 -0.2059
    2SAPS   H2R  160   3.598   1.093  10.101 -1.3546 -1.3708  1.3799
    2SAPS   H2S  161   3.435   1.142  10.148 -1.7164  3.7024 -1.9044
    2SAPS    C3  162   3.505   0.948  10.565 -0.6035  0.4550 -0.6414
    2SAPS    HX  163   3.402   0.931  10.527 -1.1619 -2.4737  1.7960
    2SAPS    HY  164   3.502   0.959  10.676 -0.4384 -0.8527 -0.4914
    2SAPS   O31  165   3.608   0.852  10.514 -0.2856 -0.3210  0.6012
    2SAPS   C31  166   3.566   0.725  10.528  1.0283  0.0467 -0.5783
    2SAPS   O32  167   3.476   0.683  10.603 -0.1952  0.2568 -0.0173
    2SAPS   C32  168   3.659   0.635  10.439 -0.2092 -0.6269 -0.1155
    2SAPS   H2X  169   3.752   0.616  10.495 -0.3300 -2.0221 -0.3448
    2SAPS   H2Y  170   3.680   0.682  10.340  0.4593 -0.7322 -0.0302
    2SAPS   C23  171   3.563   1.301  10.066  0.2110  0.3179 -0.0222
    2SAPS   H3R  172   3.668   1.319  10.035  0.4061 -0.3138  0.2453
    2SAPS   H3S  173   3.540   1.390  10.128 -0.1431  0.5533 -0.4862
    2SAPS   C24  174   3.483   1.319   9.938  0.2582  1.0336  0.4937
    2SAPS   H4R  175   3.486   1.423   9.899 -0.5297 -0.1501 -3.0884
    2SAPS   H4S  176   3.376   1.295   9.957  0.2810 -1.2653 -1.7149
    2SAPS   C25  177   3.538   1.227   9.830 -0.6555  0.5126 -0.4009
    2SAPS   H5R  178   3.634   1.184   9.864 -1.1997 -1.7962 -1.5641
    2SAPS   C26  179   3.487   1.195   9.711  0.1927 -0.8190 -0.3766
    2SAPS   H6R  180   3.546   1.120   9.656 -0.6247 -0.8582 -1.2217
    2SAPS   C27  181   3.353   1.235   9.660 -0.2747  0.1558  0.4457
    2SAPS   H7R  182   3.280   1.244   9.743  0.6676  0.3924  1.2678
    2SAPS   H7S  183   3.316   1.137   9.622 -1.1906  0.6230  0.0816
    2SAPS   C28  184   3.345   1.349   9.557 -0.0334  0.0976 -0.4369
    2SAPS   H8R  185   3.299   1.440   9.597 -0.8217 -0.7472  0.6405
    2SAPS   C29  186   3.367   1.343   9.427 -0.3370 -0.6778 -0.3564
    2SAPS   H9R  187   3.356   1.437   9.371  1.6411  1.2981  2.3240
    2SAPS  C210  188   3.410   1.228   9.347 -0.1207  0.4517  0.5205
    2SAPS  H10R  189   3.334   1.221   9.266  1.3667 -1.0038 -0.7965
    2SAPS  H10S  190   3.413   1.131   9.401  2.5434 -1.5106 -2.7605
    2SAPS  C211  191   3.536   1.258   9.283  0.2396  0.4848 -0.1959
    2SAPS  H11R  192   3.604   1.323   9.339  0.5182  0.0157  0.0195
    2SAPS  C212  193   3.576   1.211   9.165  0.1323  0.3993  0.1764
    2SAPS  H12R  194   3.680   1.234   9.138 -0.2161  0.1268 -1.5505
    2SAPS  C213  195   3.504   1.111   9.078  0.6291  0.4321  0.5153
    2SAPS  H13R  196   3.457   1.027   9.133  0.3242 -0.7624 -1.4693
    2SAPS  H13S  197   3.574   1.050   9.017 -1.1482 -1.8856  0.6798
    2SAPS  C214  198   3.399   1.177   8.991 -0.2891 -0.2730  0.0639
    2SAPS  H14R  199   3.328   1.240   9.047  0.0770  0.1855  0.0191
    2SAPS  C215  200   3.379   1.159   8.862  0.0993  0.2769  0.5232
    2SAPS  H15R  201   3.298   1.206   8.805  1.0476 -0.6161 -1.6677
    2SAPS  C216  202   3.471   1.081   8.766 -0.0613 -0.2758  0.3001
    2SAPS  H16R  203   3.417   1.034   8.681  0.4315 -0.6240  0.1782
    2SAPS  H16S  204   3.532   0.999   8.809  1.7256  0.5095 -0.6623
    2SAPS  C217  205   3.577   1.192   8.723  0.4873  0.2119  0.4670
    2SAPS  H17R  206   3.621   1.237   8.815  0.3971 -1.4647  1.3561
    2SAPS  H17S  207   3.526   1.273   8.667 -0.0599 -1.2543 -1.2399
    2SAPS  C218  208   3.697   1.141   8.641  0.3715 -0.0551 -0.5691
    2SAPS  H18R  209   3.750   1.061   8.698 -1.3420  0.3967  1.8145
    2SAPS  H18S  210   3.772   1.222   8.625  0.0053  0.4048 -0.0174
    2SAPS  C219  211   3.648   1.072   8.506 -0.1825 -0.0643  0.2198
    2SAPS  H19R  212   3.605   1.157   8.448 -2.4131  0.4295  2.4148
    2SAPS  H19S  213   3.557   1.015   8.532 -0.5099  0.6649  0.6887
    2SAPS  C220  214   3.754   0.989   8.427 -0.2131  0.3286  0.4004
    2SAPS  H20R  215   3.773   0.897   8.487  0.7729  0.0024 -0.3830
    2SAPS  H20S  216   3.848   1.048   8.431  0.7590 -1.2315  1.5773
    2SAPS  H20T  217   3.732   0.948   8.325  1.1317 -1.8810  0.9269
    2SAPS   C33  218   3.583   0.507  10.418  0.4614  0.0652 -0.9067
    2SAPS   H3X  219   3.492   0.526  10.357  1.5200  2.1078 -1.9597
    2SAPS   H3Y  220   3.548   0.478  10.520  2.4589  0.4714 -0.0580
    2SAPS   C34  221   3.682   0.405  10.354  0.2899  0.3459  0.2139
    2SAPS   H4X  222   3.760   0.386  10.431 -0.2065  1.3849  0.9996
    2SAPS   H4Y  223   3.735   0.453  10.269 -0.9063 -0.3098 -0.9410
    2SAPS   C35  224   3.631   0.269  10.320 -0.1083 -0.0371  0.4820
    2SAPS   H5X  225   3.620   0.207  10.411 -0.8899 -2.2124 -1.0100
    2SAPS   H5Y  226   3.712   0.219  10.263  0.0105 -1.0997  1.5432
    2SAPS   C36  227   3.503   0.264  10.236  0.0575 -0.7815 -0.0110
    2SAPS   H6X  228   3.433   0.332  10.290  1.3433  1.5545 -1.1055
    2SAPS   H6Y  229   3.462   0.161  10.228  1.0935 -1.2191  0.1817
    2SAPS   C37  230   3.528   0.332  10.096 -0.3744 -0.0172 -0.0707
    2SAPS   H7X  231   3.614   0.282  10.047 -0.5916 -0.1431 -0.3242
    2SAPS   H7Y  232   3.560   0.436  10.118  0.5549 -0.4443  0.7027
    2SAPS   C38  233   3.415   0.326   9.992  0.3982 -0.5202 -0.0004
    2SAPS   H8X  234   3.317   0.356  10.034 -0.3376 -2.1462 -0.4421
    2SAPS   H8Y  235   3.389   0.220   9.969 -1.9253 -0.2262  1.0107
    2SAPS   C39  236   3.445   0.406   9.865 -0.0303 -0.4374 -0.2979
    2SAPS   H9X  237   3.477   0.508   9.897  0.3719 -0.6196 -0.1110
    2SAPS   H9Y  238   3.360   0.425   9.797  0.1928 -0.2916 -0.5367
    2SAPS  C310  239   3.563   0.343   9.777  0.4910 -0.3583 -0.0142
    2SAPS  H10X  240   3.533   0.236   9.769 -0.1912 -0.1114 -0.9648
    2SAPS  H10Y  241   3.663   0.352   9.823  1.3205 -1.8781 -1.4144
    2SAPS  C311  242   3.581   0.402   9.633  0.3437  0.8415 -0.1368
    2SAPS  H11X  243   3.655   0.341   9.578  4.0435  3.4552  1.5435
    2SAPS  H11Y  244   3.621   0.505   9.644 -0.9747  1.1937  1.9560
    2SAPS  C312  245   3.454   0.422   9.551 -0.6486  0.2279 -0.5821
    2SAPS  H12X  246   3.397   0.504   9.601 -0.8849  0.1272 -0.6810
    2SAPS  H12Y  247   3.399   0.326   9.555 -1.9607  0.9762  0.3862
    2SAPS  C313  248   3.480   0.454   9.408  0.8477 -0.1500  0.4174
    2SAPS  H13X  249   3.555   0.536   9.403  0.3971  0.2759  0.5888
    2SAPS  H13Y  250   3.387   0.500   9.369 -0.3363 -3.8803 -1.5960
    2SAPS  C314  251   3.520   0.333   9.324  0.7586  0.0774  0.0698
    2SAPS  H14X  252   3.426   0.274   9.323 -0.3042  1.6737 -1.8047
    2SAPS  H14Y  253   3.612   0.282   9.358 -0.0574  0.2150  2.6762
    2SAPS  C315  254   3.530   0.357   9.176  0.2476  0.3425 -0.0962
    2SAPS  H15X  255   3.614   0.427   9.157  1.8163 -0.8108  2.0927
    2SAPS  H15Y  256   3.440   0.408   9.135  0.0778  1.1969  1.2569
    2SAPS  C316  257   3.535   0.229   9.100  0.1908 -0.6909 -0.1735
    2SAPS  H16X  258   3.439   0.179   9.122  0.3218 -0.2517  1.5250
    2SAPS  H16Y  259   3.606   0.157   9.146  0.2105  0.9972  2.6723
    2SAPS  C317  260   3.553   0.263   8.950 -0.3995  0.6539  0.1083
    2SAPS  H17X  261   3.646   0.323   8.937  0.4091 -0.6156 -0.1908
    2SAPS  H17Y  262   3.460   0.318   8.924 -0.0970  0.9797 -0.2834
    2SAPS  C318  263   3.560   0.141   8.854 -0.0341  0.1362 -0.0160
    2SAPS  H18X  264   3.602   0.176   8.758  0.2558 -0.3505 -0.0716
    2SAPS  H18Y  265   3.459   0.102   8.830  0.5898  0.0099 -2.6917
    2SAPS  H18Z  266   3.625   0.064   8.902 -0.2070  1.1955  2.0400
    3SAPS     N  267   4.216   1.920  11.105  0.0752  0.7843  0.4599
    3SAPS   HN1  268   4.143   1.887  11.171 -0.8955 -0.5408 -1.1761
    3SAPS   HN2  269   4.188   1.999  11.044  0.7453 -1.1224 -2.5429
    3SAPS   HN3  270   4.244   1.846  11.037 -0.9323  1.8356 -1.1728
    3SAPS   C12  271   4.338   1.960  11.181  0.1345 -0.1716 -0.1088
    3SAPS  H12A  272   4.310   2.014  11.270  2.4322  0.7321  0.1317
    3SAPS   C13  273   4.413   1.839  11.242  0.9694  0.1889 -0.7737
    3SAPS  O13A  274   4.337   1.745  11.286 -0.4390 -0.0708  0.1011
    3SAPS  O13B  275   4.511   1.870  11.315 -0.2833  0.1134 -0.1837
    3SAPS   C11  276   4.433   2.037  11.088 -0.6446 -0.0286 -0.0247
    3SAPS  H11A  277   4.461   1.964  11.009  0.5629 -1.3155  1.5158
    3SAPS  H11B  278   4.520   2.069  11.150  1.4708  0.6792 -3.1196
    3SAPS     P  279   4.431   2.234  10.911  0.0044 -0.1021 -0.4001
    3SAPS   O13  280   4.328   2.322  10.856 -0.0446  0.3480 -0.0977
    3SAPS   O14  281   4.571   2.282  10.942 -0.0463  0.8352 -0.1647
    3SAPS   O12  282   4.378   2.162  11.039 -0.3582  0.3368  0.5508
    3SAPS   O11  283   4.440   2.115  10.820  0.3366  0.4822 -0.6333
    3SAPS    C1  284   4.327   2.043  10.769  0.6204  0.4497  0.0135
    3SAPS    HA  285   4.336   1.940  10.810  0.4451  1.0102  1.5178
    3SAPS    HB  286   4.226   2.076  10.801 -0.3515 -1.4537 -0.9195
    3SAPS    C2  287   4.335   2.047  10.617  0.4971 -0.3517 -0.2291
    3SAPS    HS  288   4.433   2.004  10.586 -0.4086 -2.9817  0.3203
    3SAPS   O21  289   4.299   2.184  10.581  0.2817 -0.2324 -0.1659
    3SAPS   C21  290   4.396   2.260  10.558 -0.4781 -0.0489 -0.2247
    3SAPS   O22  291   4.516   2.234  10.572  0.4005 -0.3994 -0.1928
    3SAPS   C22  292   4.348   2.396  10.495  0.2649 -0.7255  0.4439
    3SAPS   H2R  293   4.251   2.375  10.444  0.1404 -2.1838  1.2187
    3SAPS   H2S  294   4.325   2.452  10.588 -0.0944 -3.0966  1.8644
    3SAPS    C3  295   4.238   1.944  10.545 -0.5182 -0.1351 -0.5317
    3SAPS    HX  296   4.136   1.945  10.590 -0.1277 -0.2271  0.3960
    3SAPS    HY  297   4.269   1.840  10.570 -2.0878 -0.1337  1.6865
    3SAPS   O31  298   4.233   1.973  10.405  0.3703  0.0132  0.2099
    3SAPS   C31  299   4.183   1.884  10.327  0.2022 -0.3443 -0.4998
    3SAPS   O32  300   4.140   1.775  10.360 -0.1533 -0.2852  0.2117
    3SAPS   C32  301   4.178   1.943  10.189 -1.2031  0.4185  0.5523
    3SAPS   H2X  302   4.272   2.001  10.178 -1.5415  0.8873  0.0877
    3SAPS   H2Y  303   4.085   2.002  10.198 -0.0400  2.1716  1.6260
    3SAPS   C23  304   4.447   2.456  10.401  0.1303 -0.0706  0.5098
    3SAPS   H3R  305   4.551   2.453  10.439  0.7238 -2.1760 -1.0869
    3SAPS   H3S  306   4.416   2.559  10.374  0.6845  0.4318  1.7187
    3SAPS   C24  307   4.441   2.377  10.260  0.1348 -0.3036 -1.3548
    3SAPS   H4R  308   4.446   2.269  10.284  0.5924 -0.1419 -0.6657
    3SAPS   H4S  309   4.533   2.410  10.206  1.0933  1.2258  1.0179
    3SAPS   C25  310   4.320   2.418  10.186  0.2419 -0.1797  0.4455
    3SAPS   H5R  311   4.230   2.414  10.248  1.0351  0.2000  1.6561
    3SAPS   C26  312   4.303   2.444  10.051 -0.1938  0.2760  0.4907
    3SAPS   H6R  313   4.214   2.485  10.002  0.4925  1.2001 -0.0305
    3SAPS   C27  314   4.411   2.430   9.947 -0.1598  0.0699 -0.1187
    3SAPS   H7R  315   4.514   2.449   9.985 -0.4559  0.7307  0.3794
    3SAPS   H7S  316   4.402   2.509   9.870 -1.1099  1.3229  1.2230
    3SAPS   C28  317   4.407   2.296   9.890 -0.2397  0.1049 -0.0975
    3SAPS   H8R  318   4.470   2.224   9.945  1.9984  0.9996 -1.3388
    3SAPS   C29  319   4.355   2.254   9.775 -0.4061  0.5549  0.0712
    3SAPS   H9R  320   4.353   2.146   9.757 -1.4866  0.5817 -0.0088
    3SAPS  C210  321   4.286   2.333   9.673  0.0109 -0.0903  0.0543
    3SAPS  H10R  322   4.223   2.411   9.721 -0.9873 -0.5535 -0.4690
    3SAPS  H10S  323   4.220   2.263   9.617 -1.5822  0.7913  0.7520
    3SAPS  C211  324   4.380   2.386   9.566 -0.1888  0.2945  0.3844
    3SAPS  H11R  325   4.478   2.399   9.614 -0.9528  2.3160  1.4775
    3SAPS  C212  326   4.355   2.415   9.440 -0.0406 -0.6743  0.3659
    3SAPS  H12R  327   4.436   2.445   9.373  0.9032 -3.4247  0.1675
    3SAPS  C213  328   4.216   2.411   9.380  0.3731 -0.1122  0.5501
    3SAPS  H13R  329   4.197   2.497   9.312  0.5522  0.1769  0.8626
    3SAPS  H13S  330   4.141   2.429   9.460  0.3322  1.7055  0.1381
    3SAPS  C214  331   4.178   2.286   9.304  1.0290  0.3926 -0.3899
    3SAPS  H14R  332   4.125   2.207   9.359 -0.6531  1.3382 -0.5937
    3SAPS  C215  333   4.209   2.258   9.177  0.2513 -0.0471 -0.1906
    3SAPS  H15R  334   4.179   2.161   9.135 -0.0473 -0.6549  1.3614
    3SAPS  C216  335   4.286   2.345   9.082 -0.2922  0.5954  0.3406
    3SAPS  H16R  336   4.324   2.443   9.119 -0.8079  0.1406  2.1815
    3SAPS  H16S  337   4.214   2.361   9.000 -0.1936 -1.8476 -0.2854
    3SAPS  C217  338   4.406   2.270   9.017 -0.2016 -0.3182  0.2686
    3SAPS  H17R  339   4.388   2.163   8.997  0.9127 -0.3173 -0.8977
    3SAPS  H17S  340   4.488   2.288   9.089 -0.8456  2.3568  0.4420
    3SAPS  C218  341   4.443   2.333   8.884  0.3321 -0.5494  0.0582
    3SAPS  H18R  342   4.367   2.403   8.843 -0.1104 -0.5280  0.9069
    3SAPS  H18S  343   4.446   2.246   8.816  1.4862 -1.7519  1.5820
    3SAPS  C219  344   4.582   2.402   8.886  0.4785 -0.3576  0.2409
    3SAPS  H19R  345   4.648   2.340   8.952  1.3184  1.4899  1.2238
    3SAPS  H19S  346   4.581   2.503   8.932  1.9313 -0.0543 -0.3479
    3SAPS  C220  347   4.636   2.414   8.746 -0.1046  0.8388  0.4337
    3SAPS  H20R  348   4.735   2.465   8.738 -0.2398  1.2277  1.2036
    3SAPS  H20S  349   4.552   2.453   8.686 -1.5330 -0.4863  1.5018
    3SAPS  H20T  350   4.663   2.310   8.719 -1.4623  0.5088  0.3161
    3SAPS   C33  351   4.171   1.825  10.086  0.3912  0.0260 -0.4232
    3SAPS   H3X  352   4.115   1.864   9.998 -1.0989 -0.7553  0.1353
    3SAPS   H3Y  353   4.094   1.757  10.130  0.8530  0.4410  1.0553
    3SAPS   C34  354   4.305   1.760  10.045 -0.2210  0.7037 -0.5440
    3SAPS   H4X  355   4.354   1.707  10.130 -0.4378  0.0150 -0.8449
    3SAPS   H4Y  356   4.372   1.843  10.013  0.0411  0.4850 -0.5635
    3SAPS   C35  357   4.292   1.679   9.919  0.0426 -0.4988 -0.1403
    3SAPS   H5X  358   4.393   1.645   9.887  0.6167 -0.3502  1.4410
    3SAPS   H5Y  359   4.246   1.735   9.835  1.1138  2.0323  0.8527
    3SAPS   C36  360   4.199   1.553   9.935 -0.3921  0.2049  0.5070
    3SAPS   H6X  361   4.117   1.590  10.000 -0.5238 -0.7735  0.9263
    3SAPS   H6Y  362   4.254   1.483  10.002  1.3836  1.0187 -0.0293
    3SAPS   C37  363   4.156   1.484   9.800  0.1201 -0.3696  0.2107
    3SAPS   H7X  364   4.249   1.449   9.749  0.4534  0.8129 -0.0253
    3SAPS   H7Y  365   4.099   1.555   9.737 -0.5788 -1.4635 -0.4318
    3SAPS   C38  366   4.069   1.354   9.821 -0.1381 -0.1165  0.6825
    3SAPS   H8X  367   3.965   1.375   9.852 -0.4995 -2.3885  1.2294
    3SAPS   H8Y  368   4.098   1.293   9.909 -1.0928  0.2013  1.2329
    3SAPS   C39  369   4.076   1.271   9.695 -0.0259  0.3167  0.6116
    3SAPS   H9X  370   4.012   1.181   9.706 -0.1739  0.1123 -1.4192
    3SAPS   H9Y  371   4.182   1.241   9.687  0.0138  0.7859 -1.0562
    3SAPS  C310  372   4.029   1.337   9.565 -0.4164  0.2980  0.6349
    3SAPS  H10X  373   4.093   1.425   9.541  2.1693 -1.7261 -0.3329
    3SAPS  H10Y  374   3.922   1.364   9.575 -1.0195 -1.2594 -1.0346
    3SAPS  C311  375   4.033   1.245   9.443  0.6241  0.0728  0.3948
    3SAPS  H11X  376   3.979   1.152   9.472 -1.1611  1.0585  0.3773
    3SAPS  H11Y  377   4.135   1.210   9.414  0.6186 -0.7359  1.3024
    3SAPS  C312  378   3.954   1.302   9.320 -0.0141 -0.3452  0.3206
    3SAPS  H12X  379   3.994   1.403   9.299 -1.7183  0.2225 -0.3219
    3SAPS  H12Y  380   3.848   1.326   9.342  0.4201  0.9109  1.1045
    3SAPS  C313  381   3.967   1.217   9.190 -0.2250  0.2046 -0.3482
    3SAPS  H13X  382   3.894   1.133   9.196 -2.0084  1.8084  1.7107
    3SAPS  H13Y  383   4.073   1.183   9.185 -0.1217 -0.3021  2.9325
    3SAPS  C314  384   3.942   1.297   9.067  0.2153  0.2722 -0.0240
    3SAPS  H14X  385   4.030   1.361   9.044  0.4013 -0.4305 -1.3484
    3SAPS  H14Y  386   3.843   1.348   9.065 -1.1958 -2.2856 -2.9693
    3SAPS  C315  387   3.925   1.215   8.939 -0.9241  1.3972 -0.0211
    3SAPS  H15X  388   3.829   1.244   8.891 -1.6924  0.5672  0.9560
    3SAPS  H15Y  389   3.920   1.105   8.957 -0.3063  1.3270 -0.2560
    3SAPS  C316  390   4.032   1.240   8.827  0.9350  0.1742  0.1939
    3SAPS  H16X  391   4.028   1.351   8.816 -1.0234  0.3172  1.7410
    3SAPS  H16Y  392   4.007   1.202   8.726  0.6377  1.0312 -0.0606
    3SAPS  C317  393   4.171   1.182   8.852 -0.1871  0.0267 -0.8541
    3SAPS  H17X  394   4.159   1.072   8.859  1.2283 -0.1374 -0.5332
    3SAPS  H17Y  395   4.208   1.215   8.952  0.3585 -0.3926 -0.9089
    3SAPS  C318  396   4.282   1.207   8.751  0.2452 -0.6806  0.2508
    3SAPS  H18X  397   4.264   1.170   8.648  2.4650 -0.3122 -0.3325
    3SAPS  H18Y  398   4.374   1.150   8.776  0.8302 -0.2319 -0.8043
    3SAPS  H18Z  399   4.315   1.313   8.737  1.8882 -1.2865 -0.8801
    4SAPS     N  400   0.867   3.394  10.529  0.3319 -0.0580 -0.6248
    4SAPS   HN1  401   0.958   3.394  10.579  0.7421  0.9281 -1.3583
    4SAPS   HN2  402   0.880   3.338  10.442  2.0786  0.9896 -1.0792
    4SAPS   HN3  403   0.858   3.496  10.511  2.5925  0.1198 -1.0223
    4SAPS   C12  404   0.753   3.367  10.630 -0.4491  0.6956  0.7293
    4SAPS  H12A  405   0.730   3.262  10.638  1.3114  0.2020 -0.0773
    4SAPS   C13  406   0.782   3.400  10.776 -0.5192  0.3600 -0.7057
    4SAPS  O13A  407   0.900   3.435  10.803 -0.5167 -0.1829 -0.2392
    4SAPS  O13B  408   0.690   3.361  10.853  0.1827 -0.4639  0.2981
    4SAPS   C11  409   0.619   3.438  10.575  0.5453  0.7186  0.2695
    4SAPS  H11A  410   0.537   3.408  10.643 -0.4977  1.9080 -0.4256
    4SAPS  H11B  411   0.589   3.397  10.476 -0.3129  1.4726  0.2108
    4SAPS     P  412   0.520   3.687  10.585 -0.0208  0.2487 -0.4125
    4SAPS   O13  413   0.384   3.626  10.569 -0.1465 -0.1086  0.2131
    4SAPS   O14  414   0.545   3.771  10.709  0.0620  0.2619  0.5532
    4SAPS   O12  415   0.630   3.575  10.570  0.3006 -0.3054 -0.0736
    4SAPS   O11  416   0.551   3.777  10.456  0.0013  0.2265  0.6873
    4SAPS    C1  417   0.571   3.719  10.320  0.4317 -0.5783  0.2843
    4SAPS    HA  418   0.663   3.767  10.280 -1.4288  0.8412 -2.6622
    4SAPS    HB  419   0.563   3.609  10.318 -4.3733 -0.4045 -1.3148
    4SAPS    C2  420   0.457   3.766  10.220 -0.1728  0.5942 -0.6188
    4SAPS    HS  421   0.373   3.693  10.214  1.7508 -1.6969 -0.8368
    4SAPS   O21  422   0.513   3.805  10.097 -0.6783 -0.2127  0.3363
    4SAPS   C21  423   0.577   3.722  10.021  0.7082  0.0696 -0.0490
    4SAPS   O22  424   0.582   3.602  10.039 -0.2878  0.0970  0.2308
    4SAPS   C22  425   0.659   3.797   9.912 -0.0317  0.7058 -0.4532
    4SAPS   H2R  426   0.631   3.904   9.918 -3.0508 -0.0111 -0.3424
    4SAPS   H2S  427   0.766   3.788   9.941 -0.1613 -3.9498 -0.7389
    4SAPS    C3  428   0.382   3.882  10.289  0.2029 -0.5174 -0.5930
    4SAPS    HX  429   0.452   3.964  10.314 -0.1834 -0.4037  0.1506
    4SAPS    HY  430   0.352   3.856  10.393 -1.9758 -0.1412 -1.0668
    4SAPS   O31  431   0.266   3.934  10.215  0.2098  0.8779  0.3755
    4SAPS   C31  432   0.280   4.051  10.157 -0.3327 -0.0714 -0.4223
    4SAPS   O32  433   0.380   4.118  10.154 -0.2942  0.2711  0.9061
    4SAPS   C32  434   0.155   4.081  10.078 -0.5364  0.2662  0.7442
    4SAPS   H2X  435   0.153   4.187  10.044  1.0773  0.2057  0.3934
    4SAPS   H2Y  436   0.071   4.074  10.151 -0.9554  0.3881  0.2806
    4SAPS   C23  437   0.639   3.736   9.768  0.2771 -0.2333  0.6232
    4SAPS   H3R  438   0.532   3.748   9.742  0.7173  2.4592 -0.1882
    4SAPS   H3S  439   0.666   3.628   9.769 -2.7332 -1.1351 -1.6954
    4SAPS   C24  440   0.726   3.803   9.666  0.3234 -0.2264 -0.3770
    4SAPS   H4R  441   0.829   3.770   9.692 -0.0776 -0.5044  0.9366
    4SAPS   H4S  442   0.723   3.913   9.678  1.0153  0.1082 -2.6722
    4SAPS   C25  443   0.711   3.784   9.514  0.8551  0.0304 -0.0909
    4SAPS   H5R  444   0.628   3.717   9.488  1.6216 -1.2322  0.6239
    4SAPS   C26  445   0.789   3.830   9.416  0.1005  0.6795 -0.8168
    4SAPS   H6R  446   0.766   3.793   9.315  2.1364 -1.3544 -0.6261
    4SAPS   C27  447   0.916   3.913   9.433  0.5682 -0.0051  0.4111
    4SAPS   H7R  448   1.005   3.857   9.396  0.8024  1.0813 -0.7508
    4SAPS   H7S  449   0.950   3.941   9.535  1.6761  2.1659 -0.4937
    4SAPS   C28  450   0.903   4.044   9.368 -0.6203 -0.4506  0.4633
    4SAPS   H8R  451   0.841   4.121   9.416 -0.0480  0.0592  0.3971
    4SAPS   C29  452   0.949   4.072   9.241 -0.4746  0.1076  0.6287
    4SAPS   H9R  453   0.940   4.176   9.207  0.0454 -0.5117 -1.5377
    4SAPS  C210  454   1.017   3.977   9.137  0.5806 -0.0612 -0.6740
    4SAPS  H10R  455   0.942   3.984   9.055  0.7864  2.8239 -0.7108
    4SAPS  H10S  456   1.009   3.874   9.179 -2.4274 -0.0117 -0.9241
    4SAPS  C211  457   1.162   4.010   9.110  0.6366  0.0793 -0.3541
    4SAPS  H11R  458   1.226   4.032   9.197  1.3303  1.8600 -1.2517
    4SAPS  C212  459   1.213   4.004   8.980  0.4205 -0.3542  0.8118
    4SAPS  H12R  460   1.322   4.001   8.974  0.6662 -4.7114  3.3484
    4SAPS  C213  461   1.137   3.964   8.859  0.0706  0.3689 -0.0600
    4SAPS  H13R  462   1.077   4.052   8.829 -0.1646  0.0347 -0.5978
    4SAPS  H13S  463   1.063   3.887   8.892  1.0003 -0.2520  0.6644
    4SAPS  C214  464   1.213   3.917   8.736 -0.0025  0.1698  0.2191
    4SAPS  H14R  465   1.203   3.985   8.650 -1.8166  0.8385  0.9267
    4SAPS  C215  466   1.294   3.810   8.721 -0.1415  0.2127 -0.0302
    4SAPS  H15R  467   1.352   3.802   8.628 -1.4685 -2.8199 -0.7272
    4SAPS  C216  468   1.325   3.699   8.818  0.6117 -0.1867  0.1240
    4SAPS  H16R  469   1.277   3.609   8.774  2.5041 -0.6495 -1.1163
    4SAPS  H16S  470   1.288   3.707   8.922 -0.7412 -2.5222 -0.0946
    4SAPS  C217  471   1.469   3.669   8.835  0.0428 -0.2036  0.0065
    4SAPS  H17R  472   1.523   3.748   8.892 -0.4383 -0.8402  1.3985
    4SAPS  H17S  473   1.525   3.655   8.740 -1.7862 -1.0358 -1.0008
    4SAPS  C218  474   1.483   3.542   8.923 -0.0222 -0.0570  0.1266
    4SAPS  H18R  475   1.407   3.534   9.005  1.5661 -1.0482  1.5834
    4SAPS  H18S  476   1.583   3.538   8.971 -0.1671 -1.0170  0.3711
    4SAPS  C219  477   1.484   3.408   8.857 -0.5952  0.3136 -0.1520
    4SAPS  H19R  478   1.383   3.380   8.819  0.3551 -2.4434 -0.8997
    4SAPS  H19S  479   1.519   3.339   8.937  1.4158  1.8188  0.3335
    4SAPS  C220  480   1.592   3.393   8.743  0.1307  0.1462  0.1811
    4SAPS  H20R  481   1.567   3.308   8.677  1.6560 -0.5373  0.4427
    4SAPS  H20S  482   1.695   3.378   8.782  0.5085  0.7043 -0.5606
    4SAPS  H20T  483   1.615   3.484   8.684 -1.0885  1.8672  2.1943
    4SAPS   C33  484   0.141   3.992   9.958  0.3075  0.3126  0.2874
    4SAPS   H3X  485   0.035   4.010   9.930  0.2537 -0.3127  0.0685
    4SAPS   H3Y  486   0.145   3.882   9.978 -0.5411 -0.1661 -1.9211
    4SAPS   C34  487   0.210   4.026   9.819 -0.2496  0.4757  0.0162
    4SAPS   H4X  488   0.193   4.132   9.790  0.3130  0.5232 -0.1462
    4SAPS   H4Y  489   0.166   3.962   9.739 -1.6777  0.9830  0.3656
    4SAPS   C35  490   0.358   3.987   9.832 -0.3925 -0.3503  0.6565
    4SAPS   H5X  491   0.353   3.876   9.835 -0.4099 -0.3561  0.4130
    4SAPS   H5Y  492   0.405   4.033   9.922  0.2567  2.2538 -0.9112
    4SAPS   C36  493   0.433   4.042   9.706  0.0234 -0.4115 -0.3245
    4SAPS   H6X  494   0.540   4.014   9.716 -0.2140 -1.4601 -0.5992
    4SAPS   H6Y  495   0.432   4.152   9.689  0.5132 -0.7081 -2.6320
    4SAPS   C37  496   0.378   3.983   9.569  0.7146  0.0916 -0.2680
    4SAPS   H7X  497   0.276   4.020   9.547  0.5087 -0.2782  0.0422
    4SAPS   H7Y  498   0.370   3.873   9.578 -3.5606  0.2728  0.2407
    4SAPS   C38  499   0.467   4.035   9.451  0.0040  0.1896 -0.1125
    4SAPS   H8X  500   0.573   4.006   9.460  0.1082  0.7530  0.5429
    4SAPS   H8Y  501   0.463   4.144   9.473 -0.1893 -0.5022  4.1079
    4SAPS   C39  502   0.423   3.998   9.303  0.0594 -0.2785  0.1032
    4SAPS   H9X  503   0.312   3.994   9.303  0.0899 -2.1121  0.6973
    4SAPS   H9Y  504   0.467   3.904   9.264  1.0631 -0.3214  1.2768
    4SAPS  C310  505   0.446   4.113   9.199  0.7110  0.5948 -0.0458
    4SAPS  H10X  506   0.381   4.201   9.217  0.0302 -0.1362  1.2719
    4SAPS  H10Y  507   0.422   4.066   9.102 -2.2527 -1.0576  1.3436
    4SAPS  C311  508   0.589   4.169   9.189  0.0882  0.0855 -0.0807
    4SAPS  H11X  509   0.663   4.087   9.179 -0.8530 -0.5819 -1.9386
    4SAPS  H11Y  510   0.624   4.213   9.285 -1.0197 -2.5677  1.6726
    4SAPS  C312  511   0.615   4.261   9.068 -0.8667  0.3101 -0.4475
    4SAPS  H12X  512   0.590   4.364   9.101 -0.2936  0.0831  0.7422
    4SAPS  H12Y  513   0.545   4.237   8.984 -1.4059 -2.1928  0.6298
    4SAPS  C313  514   0.760   4.267   9.006  0.2125 -0.2151  0.2537
    4SAPS  H13X  515   0.799   4.168   8.973  2.0635 -0.3792  2.6002
    4SAPS  H13Y  516   0.830   4.296   9.088 -0.2311 -3.6949  2.0453
    4SAPS  C314  517   0.768   4.373   8.895  0.1636 -0.1368  0.9004
    4SAPS  H14X  518   0.872   4.410   8.890 -0.4801  1.8134  0.9590
    4SAPS  H14Y  519   0.709   4.462   8.925 -0.0393 -0.3370  1.1090
    4SAPS  C315  520   0.719   4.317   8.761  0.3159 -0.4539 -0.5666
    4SAPS  H15X  521   0.629   4.372   8.726 -0.6291  0.0098  2.3528
    4SAPS  H15Y  522   0.693   4.209   8.770  0.7660 -0.4238  1.5328
    4SAPS  C316  523   0.826   4.337   8.655  1.1082 -0.6878  0.2169
    4SAPS  H16X  524   0.832   4.447   8.644 -0.0733 -0.4980  1.2274
    4SAPS  H16Y  525   0.781   4.290   8.566 -0.8754  3.4445 -1.2214
    4SAPS  C317  526   0.958   4.255   8.659 -0.2788 -0.5282 -0.0219
    4SAPS  H17X  527   0.934   4.157   8.704 -1.4833  1.0306  2.9704
    4SAPS  H17Y  528   1.023   4.302   8.736  2.0594 -1.8798 -1.0280
    4SAPS  C318  529   1.026   4.250   8.524 -0.5255  0.2262 -0.4379
    4SAPS  H18X  530   1.060   4.146   8.503  2.4553  0.4749  2.3708
    4SAPS  H18Y  531   1.115   4.315   8.523 -0.7103  0.5385  1.0393
    4SAPS  H18Z  532   0.949   4.272   8.447 -1.7503 -0.1341  0.6414
    5SAPS     N  533   4.073   2.286  10.761 -0.4697  0.6650 -0.4527
    5SAPS   HN1  534   4.056   2.360  10.690 -2.3720  1.8647  1.1252
    5SAPS   HN2  535   4.174   2.288  10.787 -0.5990 -1.0838  0.3032
    5SAPS   HN3  536   4.042   2.191  10.734  0.8977  0.1640 -0.3133
    5SAPS   C12  537   3.992   2.320  10.884  0.9745 -0.6609  0.1542
    5SAPS  H12A  538   3.891   2.325  10.849  0.1656 -3.0323  1.8621
    5SAPS   C13  539   3.994   2.208  10.986 -0.0046 -0.6563  0.4176
    5SAPS  O13A  540   4.069   2.111  10.969  0.2391  0.1609  0.4154
    5SAPS  O13B  541   3.925   2.228  11.093 -0.3428  0.2766  0.1866
    5SAPS   C11  542   4.028   2.458  10.949  0.3595 -0.2710 -0.4997
    5SAPS  H11A  543   4.109   2.442  11.024  0.2372 -1.0215 -0.5228
    5SAPS  H11B  544   3.941   2.490  11.010  0.5906  0.5271 -0.5738
    5SAPS     P  545   3.943   2.661  10.821 -0.1888 -0.1383 -0.0939
    5SAPS   O13  546   3.824   2.589  10.762 -0.2498 -0.3887 -0.0637
    5SAPS   O14  547   3.904   2.746  10.934 -0.0577 -0.5512 -0.2196
    5SAPS   O12  548   4.060   2.563  10.859 -0.1759  0.0116  0.4441
    5SAPS   O11  549   4.003   2.751  10.707 -0.2214  0.1603  0.4708
    5SAPS    C1  550   4.138   2.720  10.652  0.0670  0.1461 -0.1622
    5SAPS    HA  551   4.153   2.610  10.654 -1.0389 -0.0374 -1.1683
    5SAPS    HB  552   4.158   2.743  10.545  2.0200 -0.6375  0.0065
    5SAPS    C2  553   4.253   2.793  10.722  0.2222  0.1428  0.2069
    5SAPS    HS  554   4.242   2.798  10.832 -0.7827  1.5612  0.0624
    5SAPS   O21  555   4.255   2.928  10.663 -0.4989  0.2207  0.1219
    5SAPS   C21  556   4.178   3.016  10.720 -0.0023 -0.1219  0.0883
    5SAPS   O22  557   4.106   2.992  10.818 -0.3521  0.3588 -0.0878
    5SAPS   C22  558   4.175   3.154  10.651  0.0101 -0.1381  0.3035
    5SAPS   H2R  559   4.070   3.188  10.633  0.5736  1.2329 -0.6115
    5SAPS   H2S  560   4.217   3.226  10.725  0.1966 -0.2877  0.3427
    5SAPS    C3  561   4.396   2.730  10.702 -0.3951  0.1356  0.1808
    5SAPS    HX  562   4.408   2.623  10.731  0.8042 -0.2956 -1.7083
    5SAPS    HY  563   4.457   2.792  10.772 -2.0899 -0.5677  2.3842
    5SAPS   O31  564   4.440   2.745  10.564  0.5569  0.4846  0.1682
    5SAPS   C31  565   4.542   2.823  10.543  0.2337  0.3818 -0.0304
    5SAPS   O32  566   4.599   2.889  10.628  0.3842  0.1504  0.0308
    5SAPS   C32  567   4.596   2.829  10.396  0.7130  0.5157  0.0244
    5SAPS   H2X  568   4.614   2.723  10.368  0.7187  0.1753  1.2563
    5SAPS   H2Y  569   4.689   2.889  10.393  1.3561 -0.3030 -4.8099
    5SAPS   C23  570   4.273   3.171  10.534 -0.3070  0.4118  0.4370
    5SAPS   H3R  571   4.368   3.126  10.567  0.9651  1.9986 -0.8717
    5SAPS   H3S  572   4.288   3.279  10.509 -1.2029  0.6404  0.8404
    5SAPS   C24  573   4.229   3.099  10.402 -0.4403 -0.4001  0.0484
    5SAPS   H4R  574   4.232   2.989  10.414 -1.1888 -0.5727 -1.1751
    5SAPS   H4S  575   4.302   3.121  10.321 -0.6857 -2.6039 -0.8408
    5SAPS   C25  576   4.088   3.136  10.363  0.1175  0.2745  0.3501
    5SAPS   H5R  577   4.003   3.102  10.423 -0.8521  0.6869 -0.7341
    5SAPS   C26  578   4.051   3.210  10.257 -0.6890  0.4000  0.0651
    5SAPS   H6R  579   3.945   3.229  10.236 -0.6028 -1.3651 -2.3451
    5SAPS   C27  580   4.146   3.262  10.157  0.1566 -0.1161  0.7163
    5SAPS   H7R  581   4.243   3.288  10.203  0.1485  1.2357  0.0249
    5SAPS   H7S  582   4.098   3.359  10.130 -0.5915 -0.4055  0.9727
    5SAPS   C28  583   4.158   3.165  10.042 -0.4122 -0.1183  1.2181
    5SAPS   H8R  584   4.205   3.068  10.065  0.1012 -0.3182 -0.4930
    5SAPS   C29  585   4.129   3.183   9.912  0.2422 -0.0875  0.4725
    5SAPS   H9R  586   4.151   3.102   9.841  1.3145  0.2250  0.4371
    5SAPS  C210  587   4.045   3.300   9.844  0.2044  0.5575  0.0125
    5SAPS  H10R  588   4.000   3.362   9.924 -0.1216 -1.3113  1.3407
    5SAPS  H10S  589   3.972   3.247   9.778  1.8990 -0.0197 -1.4798
    5SAPS  C211  590   4.134   3.390   9.763  0.7491  0.3355 -0.9045
    5SAPS  H11R  591   4.193   3.461   9.823 -1.6064  1.9385 -0.3768
    5SAPS  C212  592   4.146   3.395   9.625 -0.4949 -0.0075 -0.6991
    5SAPS  H12R  593   4.221   3.466   9.587 -0.8759 -0.7080 -2.8784
    5SAPS  C213  594   4.076   3.302   9.528  0.2130  0.0502 -0.1532
    5SAPS  H13R  595   3.976   3.345   9.506 -0.0385 -0.8628 -0.8211
    5SAPS  H13S  596   4.057   3.205   9.578  1.0771 -1.4850 -2.6617
    5SAPS  C214  597   4.134   3.269   9.397 -0.6844 -0.2413  0.3277
    5SAPS  H14R  598   4.194   3.176   9.394 -0.2468  0.0403  0.2802
    5SAPS  C215  599   4.122   3.343   9.288  0.1629 -0.2460  0.3046
    5SAPS  H15R  600   4.167   3.302   9.196 -0.0847  0.7033 -0.2559
    5SAPS  C216  601   4.048   3.471   9.275  0.3969  0.7793  0.1416
    5SAPS  H16R  602   4.013   3.532   9.361 -2.3854 -0.9676  0.3811
    5SAPS  H16S  603   3.964   3.454   9.205  1.0108  0.8636 -0.6263
    5SAPS  C217  604   4.148   3.560   9.191  0.7002 -0.3078  0.4368
    5SAPS  H17R  605   4.189   3.503   9.105  2.0621  1.1691  0.0766
    5SAPS  H17S  606   4.233   3.599   9.250  0.9754  0.5354 -0.4902
    5SAPS  C218  607   4.082   3.678   9.122 -0.8517 -0.3552  0.5654
    5SAPS  H18R  608   4.170   3.715   9.065 -1.3273  1.4985  0.9637
    5SAPS  H18S  609   3.994   3.654   9.058  1.5911 -0.2610 -3.1152
    5SAPS  C219  610   4.037   3.785   9.229 -0.5683 -0.0625  0.9596
    5SAPS  H19R  611   4.105   3.802   9.316 -0.6276  0.7055  0.8684
    5SAPS  H19S  612   3.936   3.749   9.258 -2.2115  2.9973 -0.4329
    5SAPS  C220  613   4.011   3.921   9.158  0.3459 -0.3608  0.3408
    5SAPS  H20R  614   3.969   4.001   9.222  0.5455  1.1904 -1.3654
    5SAPS  H20S  615   3.946   3.914   9.068 -0.6706  0.8396  0.9396
    5SAPS  H20T  616   4.106   3.969   9.126  1.1966 -1.7906  0.6658
    5SAPS   C33  617   4.494   2.880  10.292 -0.2252 -0.5805 -0.5348
    5SAPS   H3X  618   4.490   2.990  10.305  1.2501 -0.6335  0.5739
    5SAPS   H3Y  619   4.393   2.845  10.320  0.3271 -0.8775  1.1838
    5SAPS   C34  620   4.525   2.834  10.150  0.4691 -0.4619 -0.5038
    5SAPS   H4X  621   4.527   2.724  10.135 -0.2484 -0.5404 -0.0990
    5SAPS   H4Y  622   4.627   2.869  10.124 -0.0063  0.7908 -0.7594
    5SAPS   C35  623   4.434   2.904  10.046  0.3199 -0.5204 -0.4418
    5SAPS   H5X  624   4.449   3.014  10.050 -0.1318 -0.4195 -1.2544
    5SAPS   H5Y  625   4.336   2.869  10.085  0.8058 -1.6288 -0.1644
    5SAPS   C36  626   4.444   2.844   9.904  0.1605  0.3142 -0.6058
    5SAPS   H6X  627   4.418   2.737   9.907 -1.5459  0.7193  0.0003
    5SAPS   H6Y  628   4.553   2.858   9.883 -0.0424  0.4651 -1.6426
    5SAPS   C37  629   4.371   2.919   9.791  0.6666  0.1949 -0.7044
    5SAPS   H7X  630   4.415   3.019   9.774  1.6987 -0.4989 -2.3645
    5SAPS   H7Y  631   4.262   2.932   9.808  0.3090  2.0131 -3.5684
    5SAPS   C38  632   4.374   2.837   9.659  0.1364 -0.3335 -0.3568
    5SAPS   H8X  633   4.300   2.757   9.681 -1.2264  0.6368 -1.2529
    5SAPS   H8Y  634   4.474   2.794   9.640  0.2886 -0.9227  1.5289
    5SAPS   C39  635   4.328   2.898   9.528 -1.0055  0.0304 -0.9005
    5SAPS   H9X  636   4.417   2.949   9.485  1.8427 -1.1712  2.9281
    5SAPS   H9Y  637   4.244   2.967   9.551 -0.4387  0.7825 -1.0385
    5SAPS  C310  638   4.280   2.796   9.422  0.0142 -0.3619 -0.7370
    5SAPS  H10X  639   4.209   2.724   9.466 -0.3382 -0.5611 -1.6121
    5SAPS  H10Y  640   4.370   2.735   9.403  1.7234  1.3454  1.2747
    5SAPS  C311  641   4.241   2.872   9.296  0.1507  0.2610  0.5925
    5SAPS  H11X  642   4.314   2.955   9.288 -0.0348  0.2542 -1.7039
    5SAPS  H11Y  643   4.138   2.912   9.308  0.0872  0.2715  0.0458
    5SAPS  C312  644   4.251   2.780   9.172 -0.1895 -0.0728  0.0077
    5SAPS  H12X  645   4.178   2.696   9.181 -1.1352  0.2301 -3.3648
    5SAPS  H12Y  646   4.354   2.739   9.161 -0.0835 -0.1134  1.0925
    5SAPS  C313  647   4.222   2.855   9.043  0.2042 -0.0970 -0.7535
    5SAPS  H13X  648   4.111   2.867   9.038  0.3325  0.6008 -3.3436
    5SAPS  H13Y  649   4.249   2.785   8.962 -0.1421 -0.9433 -0.1546
    5SAPS  C314  650   4.289   2.989   9.015 -0.2366  0.1338 -0.4606
    5SAPS  H14X  651   4.396   2.978   9.041 -0.7574  1.0972  2.5764
    5SAPS  H14Y  652   4.248   3.073   9.076 -0.0180  0.3136 -0.5558
    5SAPS  C315  653   4.267   3.030   8.868 -0.2337  0.2586  0.4671
    5SAPS  H15X  654   4.160   3.024   8.839 -0.4563 -3.3172  1.6035
    5SAPS  H15Y  655   4.327   2.952   8.818 -2.0933 -1.5851  0.9775
    5SAPS  C316  656   4.328   3.158   8.825 -0.9502  0.1209 -0.2573
    5SAPS  H16X  657   4.343   3.141   8.716  0.5075 -0.3040 -0.0079
    5SAPS  H16Y  658   4.431   3.178   8.861 -0.1773  0.2757 -2.4419
    5SAPS  C317  659   4.233   3.278   8.847 -0.0165  0.9462 -0.2763
    5SAPS  H17X  660   4.202   3.287   8.953 -0.1390  0.3187 -0.2573
    5SAPS  H17Y  661   4.134   3.257   8.803 -0.1771 -0.5464  0.7400
    5SAPS  C318  662   4.285   3.411   8.780  0.0258 -0.1700  0.7081
    5SAPS  H18X  663   4.392   3.432   8.805  0.3937 -1.2306  0.1305
    5SAPS  H18Y  664   4.227   3.504   8.795  0.2250 -0.2374  2.1200
    5SAPS  H18Z  665   4.301   3.396   8.671  1.7649  2.8478  0.4285
    6SAPS     N  666   3.588   1.892  10.994  0.2348 -0.7648  0.0465
    6SAPS   HN1  667   3.628   1.806  10.952  1.6854 -0.3064  0.4377
    6SAPS   HN2  668   3.669   1.929  11.048  1.9667 -3.0015 -0.8698
    6SAPS   HN3  669   3.508   1.852  11.048 -0.3797  0.9307  0.4457
    6SAPS   C12  670   3.540   1.983  10.891  0.2294  0.0820 -0.1738
    6SAPS  H12A  671   3.497   1.923  10.812  2.6961 -2.4534  0.2248
    6SAPS   C13  672   3.425   2.069  10.941  0.0143 -0.6715 -0.8471
    6SAPS  O13A  673   3.398   2.076  11.064 -0.7494 -0.0772  0.2280
    6SAPS  O13B  674   3.363   2.146  10.862 -0.1444 -0.1138 -0.1011
    6SAPS   C11  675   3.663   2.054  10.833  0.1970 -0.3214 -0.5395
    6SAPS  H11A  676   3.715   2.114  10.911 -2.0300  0.7298  0.2264
    6SAPS  H11B  677   3.615   2.135  10.774 -1.2670 -0.3706  0.5118
    6SAPS     P  678   3.829   1.987  10.639  0.6311  0.1186  0.1125
    6SAPS   O13  679   3.944   2.071  10.676 -0.4998 -0.2877  0.7385
    6SAPS   O14  680   3.847   1.849  10.588  0.4852 -0.1373  0.0614
    6SAPS   O12  681   3.750   1.959  10.772 -0.0840 -0.4174  0.1399
    6SAPS   O11  682   3.727   2.073  10.551  0.4925 -0.0380  0.5372
    6SAPS    C1  683   3.751   2.208  10.527  0.1511 -0.6019 -0.0521
    6SAPS    HA  684   3.659   2.251  10.481  1.2073  0.9262 -0.8137
    6SAPS    HB  685   3.764   2.264  10.622  1.1762 -1.6214  0.4297
    6SAPS    C2  686   3.860   2.240  10.418 -0.3274 -0.2888  0.3684
    6SAPS    HS  687   3.964   2.225  10.454  0.2797  2.2950 -0.1049
    6SAPS   O21  688   3.844   2.382  10.393  0.1246  0.1028  0.4605
    6SAPS   C21  689   3.912   2.468  10.469  0.1508 -0.1183  0.4254
    6SAPS   O22  690   3.994   2.433  10.554  0.3328  0.3416  0.0943
    6SAPS   C22  691   3.861   2.613  10.434 -1.0144  0.3723 -0.5376
    6SAPS   H2R  692   3.754   2.617  10.465 -0.7537  0.3256  0.4047
    6SAPS   H2S  693   3.925   2.693  10.477 -0.5331 -0.3953  0.2128
    6SAPS    C3  694   3.826   2.155  10.293 -0.1592 -0.3047  0.7839
    6SAPS    HX  695   3.717   2.133  10.295 -0.1602 -0.2672  2.6141
    6SAPS    HY  696   3.889   2.063  10.294  0.2026 -0.0782 -0.2358
    6SAPS   O31  697   3.856   2.234  10.173  0.2603  0.0866  0.0579
    6SAPS   C31  698   3.777   2.197  10.066  0.6013 -0.3737 -0.4495
    6SAPS   O32  699   3.684   2.122  10.069  0.1543 -0.2019 -0.2185
    6SAPS   C32  700   3.822   2.275   9.943 -0.1976 -0.1178  0.3577
    6SAPS   H2X  701   3.799   2.383   9.958  1.4252  0.3847 -0.5289
    6SAPS   H2Y  702   3.756   2.235   9.862  1.7398  0.5315 -1.6400
    6SAPS   C23  703   3.861   2.635  10.281  0.6297  0.1861 -0.1815
    6SAPS   H3R  704   3.813   2.735  10.277 -0.2744 -0.2212  0.0716
    6SAPS   H3S  705   3.791   2.566  10.228  0.4977  1.9935 -2.5069
    6SAPS   C24  706   3.998   2.643  10.219 -0.0130 -0.2544  0.6030
    6SAPS   H4R  707   4.018   2.549  10.163 -0.3303 -2.2207  3.5728
    6SAPS   H4S  708   4.067   2.634  10.305  2.0538 -0.0074 -0.9512
    6SAPS   C25  709   4.023   2.770  10.140 -0.3049 -0.0230 -0.5365
    6SAPS   H5R  710   4.079   2.847  10.196 -0.9937  1.0210 -1.2552
    6SAPS   C26  711   3.983   2.799  10.009 -0.4460  0.9000 -0.0791
    6SAPS   H6R  712   4.017   2.892   9.963  1.4603  0.3021  0.0140
    6SAPS   C27  713   3.899   2.719   9.911 -0.4811  0.1946 -0.2460
    6SAPS   H7R  714   3.830   2.784   9.853 -1.5523  0.8852  1.6999
    6SAPS   H7S  715   3.832   2.651   9.967  1.0551  1.1915  3.0209
    6SAPS   C28  716   3.985   2.638   9.821  0.0992 -0.7884  0.5136
    6SAPS   H8R  717   4.073   2.597   9.871  1.2374  0.4363 -0.4069
    6SAPS   C29  718   3.967   2.611   9.685 -0.9285  0.5523  0.1831
    6SAPS   H9R  719   4.031   2.533   9.641 -0.3756 -0.7148  3.0082
    6SAPS  C210  720   3.853   2.667   9.602  0.4213  0.4003  0.2178
    6SAPS  H10R  721   3.776   2.722   9.662 -0.9316 -0.8909 -0.2638
    6SAPS  H10S  722   3.794   2.586   9.555  0.3870  0.2904  0.4467
    6SAPS  C211  723   3.898   2.777   9.511 -0.0767 -0.1288  0.2968
    6SAPS  H11R  724   3.939   2.868   9.556  0.2798 -1.4925  2.9223
    6SAPS  C212  725   3.898   2.766   9.381  0.4393  0.1801  0.1085
    6SAPS  H12R  726   3.910   2.853   9.315 -0.0642 -1.5996 -2.4947
    6SAPS  C213  727   3.855   2.649   9.294 -0.2217  0.6264 -0.1953
    6SAPS  H13R  728   3.745   2.633   9.299 -0.0593 -0.7513 -0.7448
    6SAPS  H13S  729   3.901   2.553   9.323  1.8513  1.0629 -1.7845
    6SAPS  C214  730   3.885   2.655   9.147 -0.7735  0.2078 -0.3913
    6SAPS  H14R  731   3.989   2.626   9.125  0.0991  0.2026  3.1111
    6SAPS  C215  732   3.805   2.699   9.054  0.1931  0.1016  0.4812
    6SAPS  H15R  733   3.841   2.712   8.951  1.1635 -0.7418  0.7005
    6SAPS  C216  734   3.666   2.757   9.063  0.4536 -0.2577 -0.4231
    6SAPS  H16R  735   3.650   2.852   9.008 -0.9558  0.0306  0.4264
    6SAPS  H16S  736   3.637   2.771   9.169  2.1119 -1.0986  0.1775
    6SAPS  C217  737   3.567   2.654   9.005  0.6675  1.1809  0.2234
    6SAPS  H17R  738   3.470   2.702   9.029 -0.0254 -0.5401  1.0513
    6SAPS  H17S  739   3.575   2.557   9.058  0.0291  1.5492  1.0273
    6SAPS  C218  740   3.590   2.643   8.855 -0.6775 -0.2156 -0.5394
    6SAPS  H18R  741   3.685   2.588   8.833 -1.0512 -0.4943 -1.5353
    6SAPS  H18S  742   3.594   2.746   8.815  0.7058  0.3521  0.9630
    6SAPS  C219  743   3.487   2.556   8.786 -0.0499 -0.0603 -0.0701
    6SAPS  H19R  744   3.477   2.464   8.847 -0.4703  0.1520  0.1833
    6SAPS  H19S  745   3.519   2.539   8.681  1.9883  1.6979  0.1937
    6SAPS  C220  746   3.361   2.635   8.781  0.4523 -0.3450  0.6287
    6SAPS  H20R  747   3.325   2.646   8.886  3.0650  1.4392  1.4713
    6SAPS  H20S  748   3.280   2.583   8.726  1.0474 -1.5002  0.8137
    6SAPS  H20T  749   3.371   2.735   8.735  0.6877 -1.3432 -1.5958
    6SAPS   C33  750   3.969   2.245   9.911  0.5071  0.0578 -0.1351
    6SAPS   H3X  751   4.044   2.280   9.985  1.3382 -0.2592 -0.8158
    6SAPS   H3Y  752   3.996   2.305   9.821  1.6025  1.0718  0.8270
    6SAPS   C34  753   3.990   2.101   9.867 -0.1821  0.0894 -0.9983
    6SAPS   H4X  754   3.988   2.032   9.954  0.0991  0.3889 -0.7543
    6SAPS   H4Y  755   4.095   2.095   9.832 -0.7439 -1.8737 -2.5943
    6SAPS   C35  756   3.898   2.050   9.754 -0.2918 -0.1517 -0.3854
    6SAPS   H5X  757   3.794   2.058   9.791  0.9725 -0.9245  3.9729
    6SAPS   H5Y  758   3.917   1.941   9.743  1.6892  0.1740 -0.5486
    6SAPS   C36  759   3.904   2.126   9.622 -0.6551 -0.2826 -0.1163
    6SAPS   H6X  760   4.009   2.130   9.587 -0.0889 -0.0987  1.5376
    6SAPS   H6Y  761   3.861   2.225   9.649  0.0725 -0.4191  1.6225
    6SAPS   C37  762   3.808   2.061   9.522 -0.0398  0.3846 -0.6822
    6SAPS   H7X  763   3.701   2.068   9.554 -0.0309  1.4337 -0.8644
    6SAPS   H7Y  764   3.837   1.954   9.523  0.5855  0.5450 -1.1330
    6SAPS   C38  765   3.805   2.106   9.373  0.0848  0.2354 -0.4573
    6SAPS   H8X  766   3.742   2.029   9.325 -0.9082  0.9274 -0.2883
    6SAPS   H8Y  767   3.909   2.089   9.337  0.4693  2.8929 -0.8502
    6SAPS   C39  768   3.751   2.250   9.340  0.1899 -0.1369  0.1135
    6SAPS   H9X  769   3.820   2.315   9.398  0.9640 -1.7088  1.0192
    6SAPS   H9Y  770   3.652   2.268   9.387 -0.3252 -0.5176 -0.8016
    6SAPS  C310  771   3.734   2.277   9.189 -0.6416 -0.0640  0.3391
    6SAPS  H10X  772   3.677   2.373   9.189  0.1295  0.4193 -0.8112
    6SAPS  H10Y  773   3.657   2.215   9.140 -0.1654  1.1270 -2.1124
    6SAPS  C311  774   3.861   2.283   9.107  0.3013 -0.5120  0.0541
    6SAPS  H11X  775   3.898   2.178   9.097  0.3629 -0.3526 -1.5928
    6SAPS  H11Y  776   3.931   2.350   9.161 -0.6720 -0.3138  1.1151
    6SAPS  C312  777   3.827   2.326   8.959  0.1967  0.1312  0.2274
    6SAPS  H12X  778   3.926   2.341   8.913  0.3897 -1.8664 -0.1269
    6SAPS  H12Y  779   3.765   2.418   8.952 -1.1718 -0.8436 -1.3846
    6SAPS  C313  780   3.760   2.215   8.869 -0.5478  0.4816  0.0283
    6SAPS  H13X  781   3.662   2.183   8.911  0.1389 -0.9345  0.6088
    6SAPS  H13Y  782   3.822   2.124   8.859 -0.9901  0.2705 -0.7792
    6SAPS  C314  783   3.727   2.270   8.729  0.1907  0.1819  0.0009
    6SAPS  H14X  784   3.825   2.271   8.676  0.1244  1.4723 -0.1203
    6SAPS  H14Y  785   3.686   2.372   8.739 -1.2349 -0.3096 -0.5261
    6SAPS  C315  786   3.626   2.183   8.655  1.2500 -0.4127 -0.0540
    6SAPS  H15X  787   3.529   2.167   8.707  0.8773 -0.6935 -0.8316
    6SAPS  H15Y  788   3.670   2.081   8.648 -0.9385 -1.5469  1.3184
    6SAPS  C316  789   3.599   2.225   8.508 -0.1724 -0.3621 -0.3115
    6SAPS  H16X  790   3.689   2.220   8.443 -0.8185 -1.3284 -1.1723
    6SAPS  H16Y  791   3.577   2.334   8.510 -1.4727 -0.6205  1.5407
    6SAPS  C317  792   3.481   2.163   8.436 -0.1400 -0.0294  0.8512
    6SAPS  H17X  793   3.432   2.228   8.360 -2.8494 -2.7292  0.0897
    6SAPS  H17Y  794   3.407   2.139   8.515 -1.2853  0.9874  0.1164
    6SAPS  C318  795   3.516   2.034   8.364  0.2631  0.0983 -0.0670
    6SAPS  H18X  796   3.425   1.977   8.337  0.8623  0.1570 -2.4199
    6SAPS  H18Y  797   3.591   1.973   8.419 -1.7579 -1.8495  0.6705
    6SAPS  H18Z  798   3.575   2.069   8.276 -0.1828  0.2498 -0.3077
    7SAPS     N  799   5.591   4.327  10.760  0.0342 -0.0500 -0.1884
    7SAPS   HN1  800   5.534   4.271  10.827 -2.0197  0.6642 -1.2506
    7SAPS   HN2  801   5.548   4.420  10.739  2.8459  1.2348 -0.8050
    7SAPS   HN3  802   5.591   4.265  10.676 -4.1674  0.1674 -0.5465
    7SAPS   C12  803   5.729   4.336  10.826 -0.2530 -0.5089  0.3796
    7SAPS  H12A  804   5.744   4.436  10.863  0.6241  0.5849 -2.6251
    7SAPS   C13  805   5.754   4.240  10.940 -0.5798  0.0957  0.0274
    7SAPS  O13A  806   5.658   4.170  10.983 -0.1285 -0.3837 -0.3063
    7SAPS  O13B  807   5.862   4.242  10.999 -0.3170 -0.9818 -0.5214
    7SAPS   C11  808   5.839   4.317  10.717 -0.1441 -0.1092  0.8491
    7SAPS  H11A  809   5.938   4.339  10.763  1.3899 -1.9081 -1.3705
    7SAPS  H11B  810   5.811   4.394  10.642  2.6421 -0.2380 -0.4650
    7SAPS     P  811   5.954   4.156  10.558  0.5825  0.1119  0.0630
    7SAPS   O13  812   6.084   4.208  10.611 -0.1930  0.5162 -0.3244
    7SAPS   O14  813   5.945   4.016  10.519  0.0758  0.2457  0.1902
    7SAPS   O12  814   5.828   4.192  10.659  0.3521 -0.0911  0.6296
    7SAPS   O11  815   5.910   4.247  10.437  0.3940  0.0796  0.0799
    7SAPS    C1  816   5.799   4.214  10.354 -0.1412  0.0753  1.0164
    7SAPS    HA  817   5.795   4.104  10.336  0.2871  0.5281 -2.4471
    7SAPS    HB  818   5.699   4.248  10.390  0.1854  1.2864  0.7987
    7SAPS    C2  819   5.825   4.274  10.213 -0.0412  0.3184 -0.6933
    7SAPS    HS  820   5.755   4.233  10.136  0.0472  0.3988 -0.8179
    7SAPS   O21  821   5.961   4.252  10.167 -0.0491 -0.0277 -0.3190
    7SAPS   C21  822   6.000   4.128  10.137  0.7296  0.7554  0.6342
    7SAPS   O22  823   5.930   4.029  10.121  0.0272 -0.6728  0.1709
    7SAPS   C22  824   6.149   4.123  10.131 -0.0250  0.2293 -0.2309
    7SAPS   H2R  825   6.184   4.186  10.046 -0.0399  1.0732  0.3729
    7SAPS   H2S  826   6.198   4.155  10.226  2.6185 -1.4950 -0.8934
    7SAPS    C3  827   5.809   4.427  10.219 -0.4562  0.8944 -0.3459
    7SAPS    HX  828   5.848   4.463  10.121 -0.0726 -0.0099 -0.5293
    7SAPS    HY  829   5.864   4.467  10.307 -1.3379 -0.3634  0.8266
    7SAPS   O31  830   5.668   4.448  10.231 -0.5211  0.0578  0.0784
    7SAPS   C31  831   5.623   4.528  10.321  0.4097 -0.4272  0.2063
    7SAPS   O32  832   5.692   4.584  10.407  0.1583 -0.5906 -0.2305
    7SAPS   C32  833   5.475   4.526  10.327  0.7925  0.3522  0.3159
    7SAPS   H2X  834   5.443   4.617  10.382 -1.3982  0.2841 -0.7384
    7SAPS   H2Y  835   5.449   4.439  10.391  1.0632  0.3015  0.3596
    7SAPS   C23  836   6.207   3.982  10.106  0.4139  0.2923 -0.2502
    7SAPS   H3R  837   6.135   3.909  10.064  0.1723 -0.7888  1.8991
    7SAPS   H3S  838   6.208   3.929  10.204 -3.1720  0.5624  0.0758
    7SAPS   C24  839   6.337   3.983  10.039  0.1199 -0.3832  0.2927
    7SAPS   H4R  840   6.323   4.032   9.941 -1.0934 -0.0271  0.6262
    7SAPS   H4S  841   6.376   3.881  10.019  1.4098  0.4016 -1.3375
    7SAPS   C25  842   6.443   4.050  10.130  0.5113 -0.4062  0.0638
    7SAPS   H5R  843   6.425   4.028  10.236  0.1109 -2.1900 -0.3554
    7SAPS   C26  844   6.551   4.117  10.097 -0.0767 -0.2140  0.0543
    7SAPS   H6R  845   6.602   4.175  10.175  0.4101 -0.1302 -0.3169
    7SAPS   C27  846   6.597   4.142   9.955  0.0814  0.1646  0.7209
    7SAPS   H7R  847   6.515   4.131   9.882 -0.8525  1.5392  1.5158
    7SAPS   H7S  848   6.668   4.062   9.926  0.0790  0.7734 -1.0423
    7SAPS   C28  849   6.656   4.277   9.950 -0.1142 -1.0702 -0.7119
    7SAPS   H8R  850   6.701   4.318  10.041 -0.7005 -1.3749 -0.2822
    7SAPS   C29  851   6.665   4.348   9.837  0.3953 -0.5975  0.2232
    7SAPS   H9R  852   6.686   4.455   9.850  0.2179 -0.6593  1.1228
    7SAPS  C210  853   6.610   4.320   9.697 -0.3744  0.2649  0.2796
    7SAPS  H10R  854   6.547   4.402   9.656 -0.5005  0.1790  0.2998
    7SAPS  H10S  855   6.541   4.233   9.704  2.1011 -1.8200  0.2993
    7SAPS  C211  856   6.727   4.295   9.597  0.7192 -0.0760 -0.2504
    7SAPS  H11R  857   6.825   4.286   9.647 -0.4201 -0.6494  2.0102
    7SAPS  C212  858   6.712   4.277   9.463 -0.3622 -0.0311 -0.1199
    7SAPS  H12R  859   6.800   4.255   9.402  2.0457  0.0681  3.0640
    7SAPS  C213  860   6.577   4.285   9.389  0.2867 -0.9319 -0.1650
    7SAPS  H13R  861   6.541   4.389   9.406  0.0238 -1.3409  2.0398
    7SAPS  H13S  862   6.503   4.214   9.432  0.2265 -0.0208  1.3090
    7SAPS  C214  863   6.592   4.238   9.249 -0.6389 -0.7250  0.5625
    7SAPS  H14R  864   6.627   4.134   9.245 -0.2256 -0.6920  2.2545
    7SAPS  C215  865   6.569   4.318   9.141 -1.6338  0.2641  0.9803
    7SAPS  H15R  866   6.582   4.277   9.040  0.1315  3.1873 -0.1238
    7SAPS  C216  867   6.519   4.460   9.135  0.3972 -0.0828 -0.4329
    7SAPS  H16R  868   6.573   4.524   9.061 -2.4537  1.7789 -1.0672
    7SAPS  H16S  869   6.526   4.522   9.227 -0.6857  1.5102 -1.3769
    7SAPS  C217  870   6.369   4.468   9.096 -0.5133  0.1473 -0.2030
    7SAPS  H17R  871   6.365   4.415   8.998  3.9536 -0.1656 -0.4255
    7SAPS  H17S  872   6.343   4.575   9.079  0.6109  0.3573 -0.6863
    7SAPS  C218  873   6.269   4.417   9.199 -0.2949 -0.5809 -0.5758
    7SAPS  H18R  874   6.281   4.465   9.299 -2.4497 -1.4013  0.1344
    7SAPS  H18S  875   6.300   4.311   9.214  4.2866 -0.0462 -4.0788
    7SAPS  C219  876   6.129   4.423   9.150  0.9569  0.3750 -0.3697
    7SAPS  H19R  877   6.117   4.368   9.055  1.6920 -0.4623  0.0052
    7SAPS  H19S  878   6.101   4.530   9.136 -1.6396 -0.1909 -0.0758
    7SAPS  C220  879   6.020   4.351   9.238 -0.7417  0.2211  0.0946
    7SAPS  H20R  880   6.036   4.241   9.242 -0.3239  0.3127  1.9281
    7SAPS  H20S  881   5.918   4.374   9.200  0.0371  2.1879 -0.9236
    7SAPS  H20T  882   6.018   4.381   9.345 -1.2104 -2.2921  0.8523
    7SAPS   C33  883   5.414   4.515  10.182 -0.4530 -0.3828  0.1537
    7SAPS   H3X  884   5.422   4.409  10.151  0.6219 -0.9520  2.1968
    7SAPS   H3Y  885   5.462   4.585  10.110 -2.6610  2.1248  0.9234
    7SAPS   C34  886   5.265   4.553  10.184  0.9064 -0.1496  0.4643
    7SAPS   H4X  887   5.215   4.538  10.086 -1.3837 -0.4196  1.6117
    7SAPS   H4Y  888   5.261   4.662  10.207 -0.5259 -0.3811  1.3799
    7SAPS   C35  889   5.176   4.470  10.273 -0.0536 -0.1578  0.1483
    7SAPS   H5X  890   5.067   4.487  10.256  0.4429  1.0783 -2.2865
    7SAPS   H5Y  891   5.198   4.496  10.378 -0.5365 -3.4513  1.1763
    7SAPS   C36  892   5.195   4.319  10.265  0.6222  0.5563  0.5629
    7SAPS   H6X  893   5.132   4.260  10.334  2.5659 -0.3273  1.6674
    7SAPS   H6Y  894   5.297   4.275  10.276 -0.4268 -1.9892  0.7337
    7SAPS   C37  895   5.141   4.263  10.129  0.3649 -0.0001  0.5328
    7SAPS   H7X  896   5.210   4.314  10.059  0.8204 -1.1997  0.0872
    7SAPS   H7Y  897   5.035   4.294  10.115  0.7008  0.2645 -1.7318
    7SAPS   C38  898   5.139   4.111  10.112  0.2980  0.0743  0.0453
    7SAPS   H8X  899   5.070   4.079  10.193 -1.3208 -2.0268 -2.0509
    7SAPS   H8Y  900   5.239   4.065  10.127  0.6579  1.3104  1.8078
    7SAPS   C39  901   5.070   4.062   9.982  0.2107  0.2964 -0.8374
    7SAPS   H9X  902   4.970   4.110   9.987 -0.3466 -0.8879  0.1052
    7SAPS   H9Y  903   5.048   3.953   9.987 -1.1795  0.5512 -1.2190
    7SAPS  C310  904   5.144   4.090   9.860 -0.0636  0.0887 -0.4978
    7SAPS  H10X  905   5.244   4.041   9.861  0.0705  0.3540  0.8899
    7SAPS  H10Y  906   5.148   4.199   9.838  0.4843  0.2616  0.3941
    7SAPS  C311  907   5.069   4.031   9.747 -0.0681 -0.3673  0.2775
    7SAPS  H11X  908   4.962   4.055   9.762  0.0064 -0.8781  1.8181
    7SAPS  H11Y  909   5.072   3.920   9.757 -0.3513 -0.5017 -0.9835
    7SAPS  C312  910   5.126   4.083   9.616 -0.0359 -0.1319  0.1230
    7SAPS  H12X  911   5.219   4.023   9.604 -0.0182 -0.0793 -0.0074
    7SAPS  H12Y  912   5.161   4.189   9.617  0.2429 -0.2296  1.4064
    7SAPS  C313  913   5.043   4.039   9.490 -0.2540  0.2214 -0.0998
    7SAPS  H13X  914   4.934   4.053   9.503 -0.0854 -0.1380  2.1937
    7SAPS  H13Y  915   5.040   3.929   9.510 -0.2313 -0.1212 -1.7962
    7SAPS  C314  916   5.106   4.082   9.358  0.0565  0.5682  0.4471
    7SAPS  H14X  917   5.186   4.007   9.341 -2.2905 -1.3950 -3.0347
    7SAPS  H14Y  918   5.153   4.183   9.364 -0.1223  0.6112  1.2947
    7SAPS  C315  919   5.005   4.076   9.245  0.2042  0.7560 -0.2649
    7SAPS  H15X  920   4.926   4.008   9.283 -0.6341  1.2946 -1.0199
    7SAPS  H15Y  921   5.049   4.031   9.154 -1.9967 -2.2419  0.0098
    7SAPS  C316  922   4.930   4.214   9.239 -0.3150  0.6413  0.1695
    7SAPS  H16X  923   5.006   4.292   9.260 -1.5465  1.8522  0.2786
    7SAPS  H16Y  924   4.863   4.212   9.328 -1.0685 -0.2864 -0.3951
    7SAPS  C317  925   4.874   4.236   9.099 -0.1154  0.4070  0.2729
    7SAPS  H17X  926   4.808   4.149   9.079  0.2987 -0.2020  1.4109
    7SAPS  H17Y  927   4.956   4.234   9.025  0.9704  1.4724  1.3816
    7SAPS  C318  928   4.788   4.360   9.092 -0.4284  0.1227  0.0091
    7SAPS  H18X  929   4.707   4.351   9.168 -0.9888 -0.2937 -0.6157
    7SAPS  H18Y  930   4.751   4.371   8.987 -1.7878  0.8631  0.5383
    7SAPS  H18Z  931   4.850   4.449   9.115  0.2830 -0.5395  0.7027
    8SAPS     N  932   3.823   5.858  11.073  0.6608 -0.5296  0.5202
    8SAPS   HN1  933   3.738   5.833  11.019  1.3507 -3.2148  0.5196
    8SAPS   HN2  934   3.799   5.847  11.173 -1.2336 -1.2073  0.0320
    8SAPS   HN3  935   3.838   5.957  11.046  0.1767 -0.2442  1.2797
    8SAPS   C12  936   3.924   5.763  11.022  0.5216  0.2078  1.2235
    8SAPS  H12A  937   3.917   5.758  10.914 -0.2171  0.1733  1.2733
    8SAPS   C13  938   4.071   5.815  11.046 -0.0654  0.6715  0.1902
    8SAPS  O13A  939   4.096   5.910  11.123  0.1076  0.4814  1.1631
    8SAPS  O13B  940   4.163   5.768  10.977  0.0343  0.7587 -0.3982
    8SAPS   C11  941   3.897   5.629  11.083 -0.1387 -0.2916  0.3331
    8SAPS  H11A  942   3.881   5.642  11.192 -0.6317  0.0068  0.2320
    8SAPS  H11B  943   3.978   5.562  11.049 -0.4716 -0.1511 -0.7861
    8SAPS     P  944   3.721   5.424  11.048  0.4077  0.2798  0.5128
    8SAPS   O13  945   3.720   5.402  11.192  0.1539  0.0854 -0.1479
    8SAPS   O14  946   3.593   5.410  10.980  0.4537  0.1708  0.1672
    8SAPS   O12  947   3.785   5.568  11.015  0.0385 -0.4355  0.1748
    8SAPS   O11  948   3.821   5.321  10.984 -0.4152 -0.0084  0.0217
    8SAPS    C1  949   3.877   5.347  10.858  0.7330 -0.5503 -0.0279
    8SAPS    HA  950   3.921   5.449  10.860 -0.0579 -0.1684 -1.4043
    8SAPS    HB  951   3.969   5.288  10.836  1.4337  1.1242 -1.8936
    8SAPS    C2  952   3.785   5.328  10.734 -0.7015 -0.3207 -0.4477
    8SAPS    HS  953   3.694   5.392  10.744 -0.5590 -0.4174  1.9262
    8SAPS   O21  954   3.747   5.191  10.719  0.1669  0.3240 -0.4142
    8SAPS   C21  955   3.632   5.176  10.659 -0.2537  0.1054 -0.1628
    8SAPS   O22  956   3.560   5.258  10.614 -0.6409 -0.0729  0.2829
    8SAPS   C22  957   3.602   5.024  10.633 -0.0973 -0.1463  0.1649
    8SAPS   H2R  958   3.687   4.955  10.650  0.7643  1.1062  1.1576
    8SAPS   H2S  959   3.516   5.002  10.701 -0.1328  1.2388  0.6011
    8SAPS    C3  960   3.856   5.388  10.604  0.5307  0.0505 -0.5832
    8SAPS    HX  961   3.960   5.351  10.588  2.1253  3.8317 -0.1963
    8SAPS    HY  962   3.865   5.496  10.631 -2.9701  0.1818  0.5811
    8SAPS   O31  963   3.778   5.368  10.490 -0.0568 -0.0841 -0.2927
    8SAPS   C31  964   3.710   5.461  10.436 -0.2779  0.1529 -0.6327
    8SAPS   O32  965   3.705   5.579  10.477 -0.2554  0.0344  0.6238
    8SAPS   C32  966   3.643   5.408  10.311  0.1256  0.5250  0.3529
    8SAPS   H2X  967   3.567   5.330  10.330 -0.6397  0.8219 -1.3150
    8SAPS   H2Y  968   3.722   5.349  10.261  1.4210 -0.3885  3.2805
    8SAPS   C23  969   3.540   5.002  10.485  0.7435  0.0384 -0.6087
    8SAPS   H3R  970   3.455   5.069  10.459 -0.2992 -0.3615  1.5328
    8SAPS   H3S  971   3.499   4.899  10.493  0.5836 -0.0395 -2.1688
    8SAPS   C24  972   3.636   5.013  10.367  0.5210  0.1442 -0.3569
    8SAPS   H4R  973   3.674   5.117  10.380  0.4597  0.6913 -3.5281
    8SAPS   H4S  974   3.578   5.017  10.272 -0.8796  0.7871  0.5056
    8SAPS   C25  975   3.737   4.902  10.342 -0.1741 -0.2523  0.4951
    8SAPS   H5R  976   3.700   4.822  10.276  2.1114 -0.4945 -0.5831
    8SAPS   C26  977   3.868   4.896  10.379  0.0045 -0.4206  0.5179
    8SAPS   H6R  978   3.938   4.815  10.356 -0.1805 -0.3540 -0.3231
    8SAPS   C27  979   3.939   5.000  10.457 -0.2331  0.3093  0.1794
    8SAPS   H7R  980   3.865   5.076  10.488 -2.1927 -0.7605 -1.6033
    8SAPS   H7S  981   4.027   5.033  10.398  0.9865  1.0038  2.3047
    8SAPS   C28  982   4.003   4.949  10.583  0.3029  0.5324 -0.0535
    8SAPS   H8R  983   3.969   4.848  10.610 -0.5620  0.4284 -1.4350
    8SAPS   C29  984   4.101   5.010  10.651  0.1037  0.0918 -0.1417
    8SAPS   H9R  985   4.142   4.957  10.738 -2.3399  0.5140  1.3837
    8SAPS  C210  986   4.179   5.135  10.598 -0.3913  0.1831  0.0095
    8SAPS  H10R  987   4.148   5.224  10.657  1.5544  0.1998  1.1009
    8SAPS  H10S  988   4.148   5.155  10.493 -3.3091  2.1240  1.1337
    8SAPS  C211  989   4.329   5.113  10.601  0.0302 -1.0788 -0.3544
    8SAPS  H11R  990   4.377   5.078  10.693 -0.1993 -3.8662 -1.2125
    8SAPS  C212  991   4.415   5.131  10.503 -0.3879 -0.7749  0.5091
    8SAPS  H12R  992   4.522   5.114  10.521 -0.1967 -2.1103 -1.5410
    8SAPS  C213  993   4.394   5.182  10.361  0.2864  0.1076 -0.3455
    8SAPS  H13R  994   4.401   5.292  10.373 -0.1781 -0.0132  1.2558
    8SAPS  H13S  995   4.293   5.155  10.323  0.2529  1.6399 -1.4121
    8SAPS  C214  996   4.505   5.126  10.276 -0.0828 -0.4599 -0.1282
    8SAPS  H14R  997   4.581   5.076  10.338  0.3602  0.3992  0.0523
    8SAPS  C215  998   4.511   5.137  10.145  0.9238  0.2464  0.3562
    8SAPS  H15R  999   4.597   5.100  10.088 -0.2921 -1.2024 -0.6471
    8SAPS  C216 1000   4.402   5.200  10.051 -0.0606 -0.4738  0.2664
    8SAPS  H16R 1001   4.393   5.310  10.058 -0.3345 -0.5285  0.8517
    8SAPS  H16S 1002   4.303   5.157  10.081  0.4046 -2.3153 -0.7129
    8SAPS  C217 1003   4.425   5.155   9.906  0.2500  0.5497  0.5718
    8SAPS  H17R 1004   4.442   5.046   9.895  1.0633  0.7778 -0.7804
    8SAPS  H17S 1005   4.516   5.207   9.869  0.2910 -0.4576 -0.8501
    8SAPS  C218 1006   4.313   5.185   9.805  0.6908  0.4435 -0.1529
    8SAPS  H18R 1007   4.273   5.288   9.815  0.3475  0.2806  0.1961
    8SAPS  H18S 1008   4.226   5.125   9.839  0.8190  1.2346  1.6712
    8SAPS  C219 1009   4.364   5.134   9.662  0.4148  0.5627  0.2676
    8SAPS  H19R 1010   4.325   5.030   9.653  0.9354  0.3568  0.3620
    8SAPS  H19S 1011   4.474   5.145   9.657  0.8519 -1.5879  2.6111
    8SAPS  C220 1012   4.309   5.225   9.550 -0.2347  0.0600 -0.2532
    8SAPS  H20R 1013   4.372   5.316   9.559 -0.7056  0.2683  1.3774
    8SAPS  H20S 1014   4.205   5.258   9.571 -0.4340 -0.4792 -0.3700
    8SAPS  H20T 1015   4.318   5.194   9.444  0.0008 -0.7342 -0.0072
    8SAPS   C33 1016   3.595   5.517  10.214  1.1132 -0.2835 -0.5198
    8SAPS   H3X 1017   3.686   5.572  10.182  1.9770 -1.5601 -0.3440
    8SAPS   H3Y 1018   3.524   5.582  10.270 -1.5054 -2.3230 -1.2570
    8SAPS   C34 1019   3.533   5.449  10.090 -0.6339 -0.6124 -0.0969
    8SAPS   H4X 1020   3.584   5.351  10.074  1.5146  0.5158 -0.6028
    8SAPS   H4Y 1021   3.563   5.501   9.997  1.8018 -0.5094  0.6758
    8SAPS   C35 1022   3.383   5.421  10.098  0.4008 -0.0155  0.0786
    8SAPS   H5X 1023   3.338   5.512  10.143  1.0231 -0.0591  0.8219
    8SAPS   H5Y 1024   3.376   5.335  10.168  1.0469  0.1664  0.3745
    8SAPS   C36 1025   3.317   5.405   9.962  0.0902  0.1549 -0.3883
    8SAPS   H6X 1026   3.325   5.501   9.907 -1.2067  1.2809  1.2958
    8SAPS   H6Y 1027   3.208   5.383   9.967  0.2037 -1.1316 -2.2862
    8SAPS   C37 1028   3.378   5.295   9.879  0.0898  0.0097 -0.5592
    8SAPS   H7X 1029   3.478   5.336   9.854  0.1932  2.0934  2.6686
    8SAPS   H7Y 1030   3.323   5.290   9.782  0.3486  2.3415 -0.8770
    8SAPS   C38 1031   3.392   5.165   9.953  0.2667  0.7037 -0.6236
    8SAPS   H8X 1032   3.290   5.126   9.971  0.3151  0.0234 -1.7407
    8SAPS   H8Y 1033   3.431   5.185  10.055 -1.6102 -0.4352  0.3824
    8SAPS   C39 1034   3.486   5.066   9.888  0.7530  0.0961  1.0105
    8SAPS   H9X 1035   3.520   4.993   9.966 -0.6375 -0.6791  0.9243
    8SAPS   H9Y 1036   3.573   5.117   9.842 -0.6486  0.2930 -1.5695
    8SAPS  C310 1037   3.411   4.985   9.775  0.3420 -0.0063 -0.3982
    8SAPS  H10X 1038   3.328   5.037   9.723  0.2665 -1.4671 -1.8344
    8SAPS  H10Y 1039   3.368   4.894   9.823 -0.3005  1.1490  1.2709
    8SAPS  C311 1040   3.489   4.935   9.655  0.5527  0.0237 -0.3316
    8SAPS  H11X 1041   3.539   4.842   9.689 -0.7599 -0.0108  1.6627
    8SAPS  H11Y 1042   3.571   5.004   9.627  0.5626 -0.4423 -1.5210
    8SAPS  C312 1043   3.407   4.898   9.534  0.4906  0.5874 -0.0257
    8SAPS  H12X 1044   3.374   4.983   9.472  1.1009 -0.9502 -2.6045
    8SAPS  H12Y 1045   3.311   4.848   9.563  1.0758 -1.4891 -1.4094
    8SAPS  C313 1046   3.479   4.804   9.431 -0.4478 -0.2851 -0.5188
    8SAPS  H13X 1047   3.532   4.730   9.496  0.1055  1.8779  1.6307
    8SAPS  H13Y 1048   3.558   4.867   9.385 -0.7209 -0.1517 -0.8057
    8SAPS  C314 1049   3.394   4.745   9.311 -0.0037 -0.2146 -0.1068
    8SAPS  H14X 1050   3.360   4.834   9.253  2.0458  0.2219 -0.7289
    8SAPS  H14Y 1051   3.314   4.690   9.364  0.3313 -0.8766 -0.2739
    8SAPS  C315 1052   3.478   4.652   9.220  0.3010  0.1677  0.1248
    8SAPS  H15X 1053   3.408   4.600   9.152  0.9545 -1.4183  0.6102
    8SAPS  H15Y 1054   3.530   4.566   9.268  0.1755 -1.2332 -2.0812
    8SAPS  C316 1055   3.590   4.729   9.154  0.4501  0.1593 -0.0350
    8SAPS  H16X 1056   3.667   4.730   9.235 -1.0982 -0.8932  1.5268
    8SAPS  H16Y 1057   3.568   4.835   9.130 -1.8112 -0.6265 -1.8163
    8SAPS  C317 1058   3.638   4.662   9.028 -0.5854 -0.3219 -0.0297
    8SAPS  H17X 1059   3.678   4.727   8.947  2.7066 -1.6112  0.3888
    8SAPS  H17Y 1060   3.550   4.618   8.976 -0.6019 -0.4617  0.1143
    8SAPS  C318 1061   3.742   4.552   9.050  0.3384 -0.2862  0.3308
    8SAPS  H18X 1062   3.815   4.587   9.127 -0.1270 -0.8740  1.0551
    8SAPS  H18Y 1063   3.790   4.521   8.955 -0.5065 -2.0775  0.4440
    8SAPS  H18Z 1064   3.682   4.468   9.091 -0.9620  1.1148  1.4605
    9SAPS     N 1065   4.380   2.432   6.195 -0.2144 -0.3787 -0.2828
    9SAPS   HN1 1066   4.448   2.370   6.244 -0.7046  0.6113  1.7738
    9SAPS   HN2 1067   4.352   2.507   6.262 -0.9312  0.1996 -1.2043
    9SAPS   HN3 1068   4.297   2.378   6.166 -0.2415 -0.5365  0.0838
    9SAPS   C12 1069   4.449   2.491   6.072  0.7876 -0.2678  0.1958
    9SAPS  H12A 1070   4.500   2.409   6.024 -2.1436 -1.7149 -0.6567
    9SAPS   C13 1071   4.360   2.547   5.963  0.5463 -0.1921 -0.2664
    9SAPS  O13A 1072   4.236   2.530   5.967 -0.5006  0.4607  0.0348
    9SAPS  O13B 1073   4.423   2.617   5.876 -0.2644 -0.0718  0.0156
    9SAPS   C11 1074   4.551   2.598   6.125 -0.0860  0.0934 -0.4660
    9SAPS  H11A 1075   4.486   2.684   6.153 -2.4422 -0.9753 -2.2863
    9SAPS  H11B 1076   4.613   2.638   6.042 -1.1709  1.9616 -0.4300
    9SAPS     P 1077   4.746   2.615   6.301 -0.1168 -0.0882 -0.3092
    9SAPS   O13 1078   4.841   2.518   6.361  0.6235 -0.4204 -0.7202
    9SAPS   O14 1079   4.817   2.703   6.208  0.0824 -0.2542  0.2990
    9SAPS   O12 1080   4.627   2.545   6.229  0.1507 -0.4008  0.3110
    9SAPS   O11 1081   4.670   2.698   6.409  0.1531  0.4399  0.6841
    9SAPS    C1 1082   4.531   2.673   6.444 -1.0248 -0.2892 -0.1102
    9SAPS    HA 1083   4.464   2.717   6.368 -0.0650 -0.0757 -0.8509
    9SAPS    HB 1084   4.513   2.564   6.456  1.1124 -0.7706 -0.8358
    9SAPS    C2 1085   4.501   2.749   6.578 -0.4877  0.1565 -0.0121
    9SAPS    HS 1086   4.488   2.857   6.555  0.0387  0.2489  0.1280
    9SAPS   O21 1087   4.597   2.718   6.676  0.2152 -0.8423 -0.4099
    9SAPS   C21 1088   4.700   2.801   6.693  0.5020  0.6727 -1.0821
    9SAPS   O22 1089   4.696   2.917   6.662 -0.5070 -0.3628 -0.0658
    9SAPS   C22 1090   4.826   2.727   6.738  0.4752 -0.6087 -0.0895
    9SAPS   H2R 1091   4.844   2.644   6.668  1.8710  0.3554 -0.9212
    9SAPS   H2S 1092   4.918   2.787   6.723 -0.5499  0.6358 -1.7291
    9SAPS    C3 1093   4.361   2.727   6.635  0.2281 -0.0295  0.4805
    9SAPS    HX 1094   4.362   2.618   6.658  2.0465  0.1671  1.4940
    9SAPS    HY 1095   4.288   2.765   6.561 -0.1445 -1.1087  0.2666
    9SAPS   O31 1096   4.340   2.784   6.764  0.3799 -0.5188 -0.6985
    9SAPS   C31 1097   4.214   2.808   6.799  0.5412 -0.5098 -0.4915
    9SAPS   O32 1098   4.117   2.769   6.735 -0.6974 -0.5943  0.2486
    9SAPS   C32 1099   4.207   2.894   6.925 -0.8669 -0.2195  0.6044
    9SAPS   H2X 1100   4.102   2.906   6.960 -1.0783  0.2141 -0.1514
    9SAPS   H2Y 1101   4.252   2.992   6.901  0.3255 -1.0330 -0.6199
    9SAPS   C23 1102   4.815   2.673   6.883  0.5453 -0.1790 -0.1767
    9SAPS   H3R 1103   4.888   2.591   6.900 -0.3374 -1.0514 -0.5015
    9SAPS   H3S 1104   4.719   2.618   6.897  1.0650 -1.0946 -0.1209
    9SAPS   C24 1105   4.838   2.787   6.985  0.5005 -0.8989  0.0372
    9SAPS   H4R 1106   4.934   2.841   6.968  0.1949 -0.7278 -1.2202
    9SAPS   H4S 1107   4.858   2.743   7.085  0.7570  0.9364  0.8235
    9SAPS   C25 1108   4.721   2.890   7.005 -1.0424 -0.2268  0.3930
    9SAPS   H5R 1109   4.712   2.954   6.916  0.7724  0.6078  0.7540
    9SAPS   C26 1110   4.669   2.922   7.122  0.4380  0.4749 -0.0192
    9SAPS   H6R 1111   4.586   2.994   7.118  1.0577  1.1921 -0.2689
    9SAPS   C27 1112   4.703   2.867   7.259 -0.4579 -0.2548  0.4319
    9SAPS   H7R 1113   4.701   2.756   7.266 -0.4546 -0.2399  0.6532
    9SAPS   H7S 1114   4.620   2.902   7.324  0.6348 -0.0463  1.7559
    9SAPS   C28 1115   4.839   2.932   7.307 -0.3554 -0.4873  0.7793
    9SAPS   H8R 1116   4.899   2.977   7.226 -1.4100  1.4737  1.0318
    9SAPS   C29 1117   4.881   2.945   7.429  1.2114  0.3419 -0.4356
    9SAPS   H9R 1118   4.978   2.983   7.464 -0.0356  1.4803  2.0769
    9SAPS  C210 1119   4.805   2.888   7.547  0.6523 -0.1898 -0.0801
    9SAPS  H10R 1120   4.858   2.795   7.573 -0.2909 -0.1131  2.4577
    9SAPS  H10S 1121   4.703   2.851   7.520  0.4862 -1.6359  2.3074
    9SAPS  C211 1122   4.785   2.994   7.660  0.0704  0.0571  0.1647
    9SAPS  H11R 1123   4.763   3.096   7.624  0.0578 -0.3969 -1.1767
    9SAPS  C212 1124   4.802   2.975   7.792 -0.1983 -0.0129  0.5360
    9SAPS  H12R 1125   4.790   3.063   7.856 -1.0155 -0.5017  1.0702
    9SAPS  C213 1126   4.846   2.853   7.873  0.7221 -0.2703  0.5647
    9SAPS  H13R 1127   4.950   2.862   7.913  0.7652  1.7014  0.0807
    9SAPS  H13S 1128   4.859   2.767   7.804  0.1020  1.4579 -1.8286
    9SAPS  C214 1129   4.744   2.824   7.980 -0.2456 -0.0482 -0.2185
    9SAPS  H14R 1130   4.658   2.772   7.935  0.6516 -0.9700 -0.9226
    9SAPS  C215 1131   4.756   2.825   8.110  0.0372 -0.2542  0.2650
    9SAPS  H15R 1132   4.661   2.824   8.165  0.8700 -1.1867  1.7565
    9SAPS  C216 1133   4.881   2.862   8.193 -0.0071  0.2653 -0.2983
    9SAPS  H16R 1134   4.975   2.847   8.136  0.0987  0.4716 -0.1781
    9SAPS  H16S 1135   4.883   2.803   8.287 -1.8648 -0.0890 -0.4294
    9SAPS  C217 1136   4.859   3.000   8.240  0.3544  0.1106  0.5167
    9SAPS  H17R 1137   4.949   3.020   8.303  0.7253 -1.0156  0.3850
    9SAPS  H17S 1138   4.772   3.014   8.307 -0.0662  0.2457 -0.0598
    9SAPS  C218 1139   4.854   3.110   8.132  0.6987  0.7948 -0.0296
    9SAPS  H18R 1140   4.908   3.069   8.044 -0.3998  2.7020 -1.6755
    9SAPS  H18S 1141   4.913   3.197   8.167  0.6017  0.0471  2.1966
    9SAPS  C219 1142   4.712   3.159   8.091 -0.5246  0.6842 -0.6569
    9SAPS  H19R 1143   4.654   3.076   8.047  0.5832 -0.2509 -0.3851
    9SAPS  H19S 1144   4.709   3.231   8.006  0.3533  0.6810 -0.6997
    9SAPS  C220 1145   4.625   3.221   8.198  0.4132  0.2900 -0.3255
    9SAPS  H20R 1146   4.586   3.147   8.271 -3.0754  1.8179 -0.4675
    9SAPS  H20S 1147   4.535   3.269   8.154  0.1349  0.0121 -0.0594
    9SAPS  H20T 1148   4.686   3.296   8.252  0.7963  0.7571 -1.3702
    9SAPS   C33 1149   4.280   2.849   7.053 -0.5099  0.0014 -0.3488
    9SAPS   H3X 1150   4.389   2.832   7.036  0.2664  3.6903  0.0136
    9SAPS   H3Y 1151   4.234   2.755   7.090 -0.5791  0.2895  0.3125
    9SAPS   C34 1152   4.269   2.954   7.166 -0.2771 -0.0514 -0.0330
    9SAPS   H4X 1153   4.165   2.991   7.175  0.0885  1.0037  0.0304
    9SAPS   H4Y 1154   4.331   3.045   7.150  0.1344  0.2034  2.4797
    9SAPS   C35 1155   4.317   2.900   7.303  0.0370 -0.1181 -0.0268
    9SAPS   H5X 1156   4.425   2.875   7.311  0.3973  1.3275 -0.0160
    9SAPS   H5Y 1157   4.265   2.802   7.305 -0.5607  0.1462 -1.6482
    9SAPS   C36 1158   4.285   2.992   7.424 -0.8115 -0.3054 -0.3855
    9SAPS   H6X 1159   4.176   3.016   7.428 -1.0092 -1.3210  0.8449
    9SAPS   H6Y 1160   4.344   3.085   7.410 -1.8355  0.5483  0.7447
    9SAPS   C37 1161   4.330   2.928   7.558 -0.2904 -0.1586  0.6288
    9SAPS   H7X 1162   4.425   2.872   7.545 -0.4471 -0.1106 -0.8646
    9SAPS   H7Y 1163   4.260   2.846   7.587 -1.2231  0.1316 -0.7228
    9SAPS   C38 1164   4.339   3.026   7.676  0.0995  0.0829 -0.3294
    9SAPS   H8X 1165   4.245   3.085   7.674 -0.9417 -1.5011  0.2684
    9SAPS   H8Y 1166   4.414   3.108   7.676 -1.1149  1.2278  0.3116
    9SAPS   C39 1167   4.340   2.954   7.816  0.6507 -0.1895  0.5383
    9SAPS   H9X 1168   4.430   2.892   7.832 -0.2376 -1.3204  1.3271
    9SAPS   H9Y 1169   4.258   2.879   7.824  1.4403 -1.0948  0.2844
    9SAPS  C310 1170   4.310   3.055   7.929  0.3533  0.1959  0.3837
    9SAPS  H10X 1171   4.218   3.109   7.899 -0.8541 -1.5448  0.8033
    9SAPS  H10Y 1172   4.400   3.120   7.937 -0.4856  1.5358 -0.4626
    9SAPS  C311 1173   4.270   2.991   8.063 -0.0478  0.1399 -0.9065
    9SAPS  H11X 1174   4.177   2.930   8.056 -0.1661  0.1086  0.6472
    9SAPS  H11Y 1175   4.243   3.072   8.133  0.2267 -0.5691  0.0435
    9SAPS  C312 1176   4.378   2.898   8.116 -0.3056 -0.2086  0.0865
    9SAPS  H12X 1177   4.463   2.966   8.138 -1.3398  0.5139  2.2180
    9SAPS  H12Y 1178   4.410   2.827   8.037  1.5762 -1.5768  1.9769
    9SAPS  C313 1179   4.334   2.820   8.238 -0.8693  0.4998 -0.5440
    9SAPS  H13X 1180   4.413   2.750   8.273  0.5539  1.3994 -1.8400
    9SAPS  H13Y 1181   4.241   2.761   8.226 -2.7923  2.1982  3.8359
    9SAPS  C314 1182   4.323   2.910   8.362 -0.4657 -0.5846  0.3452
    9SAPS  H14X 1183   4.238   2.981   8.350 -2.3402 -2.2689  2.6625
    9SAPS  H14Y 1184   4.424   2.954   8.375  0.8233 -2.6743 -1.6582
    9SAPS  C315 1185   4.280   2.838   8.482 -0.0289  0.2037 -0.7757
    9SAPS  H15X 1186   4.277   2.908   8.568  0.9040 -0.1082 -0.4801
    9SAPS  H15Y 1187   4.355   2.764   8.515  0.3341 -0.0664 -2.1171
    9SAPS  C316 1188   4.136   2.771   8.483 -0.1643 -0.0375  0.5804
    9SAPS  H16X 1189   4.133   2.688   8.409 -3.7881 -0.9015  1.5161
    9SAPS  H16Y 1190   4.062   2.848   8.451  0.2215  0.7526  1.5504
    9SAPS  C317 1191   4.106   2.706   8.618  0.0620  0.0994  0.3329
    9SAPS  H17X 1192   4.129   2.783   8.695 -0.4355  2.2720 -1.5696
    9SAPS  H17Y 1193   4.182   2.626   8.633  0.2893  0.0004 -1.1728
    9SAPS  C318 1194   3.959   2.653   8.631 -0.0235  0.0285 -0.1481
    9SAPS  H18X 1195   3.957   2.560   8.571  1.6056 -0.8238  1.0380
    9SAPS  H18Y 1196   3.883   2.725   8.595  1.4516  1.4448 -0.5689
    9SAPS  H18Z 1197   3.933   2.620   8.734  0.6369 -0.0418  0.0029
   10SAPS     N 1198   4.064   1.532   6.136 -0.7088  0.1438  0.2597
   10SAPS   HN1 1199   4.041   1.586   6.222  1.5811  2.3665 -0.3816
   10SAPS   HN2 1200   4.117   1.447   6.165  0.1063 -0.5518 -2.9440
   10SAPS   HN3 1201   4.118   1.579   6.060  0.3654 -1.5351 -0.0782
   10SAPS   C12 1202   3.936   1.485   6.076  0.5079  0.6139  0.5616
   10SAPS  H12A 1203   3.877   1.569   6.042 -0.3838  0.1192  0.8726
   10SAPS   C13 1204   3.962   1.391   5.952  0.2570  0.4655  0.2124
   10SAPS  O13A 1205   4.075   1.376   5.907  0.4296  0.4490 -0.5480
   10SAPS  O13B 1206   3.859   1.347   5.890 -0.2834 -0.3528  0.4079
   10SAPS   C11 1207   3.848   1.405   6.180 -0.0256  0.7586 -0.1026
   10SAPS  H11A 1208   3.762   1.351   6.136 -0.4331 -0.7076  2.2937
   10SAPS  H11B 1209   3.811   1.481   6.252 -0.5655 -0.6975  1.2278
   10SAPS     P 1210   3.874   1.203   6.357  0.2719 -0.0065  0.1219
   10SAPS   O13 1211   3.729   1.224   6.385 -0.1531 -0.0143 -0.8700
   10SAPS   O14 1212   3.925   1.066   6.330 -0.5215  0.4132  0.0626
   10SAPS   O12 1213   3.922   1.296   6.236  0.0207  0.1477 -0.2435
   10SAPS   O11 1214   3.970   1.259   6.469  0.0107 -0.1970  0.5804
   10SAPS    C1 1215   3.917   1.369   6.550  0.2571  0.2925  0.8094
   10SAPS    HA 1216   3.948   1.467   6.507  1.5299  0.1195  1.2823
   10SAPS    HB 1217   3.807   1.377   6.559  0.1608 -0.0761  0.0547
   10SAPS    C2 1218   3.986   1.352   6.688 -0.3360 -0.3020  0.2456
   10SAPS    HS 1219   4.091   1.321   6.670  0.7292  3.6009 -1.3993
   10SAPS   O21 1220   3.915   1.252   6.757  0.3376  0.1661 -0.6624
   10SAPS   C21 1221   3.976   1.163   6.837 -0.4028  0.3039  0.2472
   10SAPS   O22 1222   4.098   1.164   6.857 -0.4103 -0.1490 -0.0462
   10SAPS   C22 1223   3.873   1.077   6.905  0.3084  0.2757  0.0974
   10SAPS   H2R 1224   3.791   1.051   6.834  0.3726 -1.3755  0.5738
   10SAPS   H2S 1225   3.918   0.975   6.913 -2.8157 -1.1294  1.6718
   10SAPS    C3 1226   3.987   1.486   6.771  0.2940 -0.4335 -0.5945
   10SAPS    HX 1227   3.882   1.511   6.796 -0.3374 -2.6930 -0.7668
   10SAPS    HY 1228   4.027   1.566   6.704 -0.1527 -0.6005 -1.0658
   10SAPS   O31 1229   4.058   1.477   6.898 -0.4782  0.4030  0.2912
   10SAPS   C31 1230   4.190   1.494   6.882 -0.1294  1.1932 -0.4160
   10SAPS   O32 1231   4.256   1.526   6.783  0.6316 -0.1547  0.3406
   10SAPS   C32 1232   4.260   1.444   7.002 -0.1745 -0.3736 -1.1359
   10SAPS   H2X 1233   4.288   1.339   6.978  0.4740 -0.2598 -0.9013
   10SAPS   H2Y 1234   4.184   1.444   7.083  0.8623  1.0081 -0.1071
   10SAPS   C23 1235   3.821   1.129   7.040  0.4206 -0.3332  0.0780
   10SAPS   H3R 1236   3.737   1.201   7.026  0.5692 -0.0390  0.6539
   10SAPS   H3S 1237   3.898   1.185   7.097  0.3849 -1.6949  1.5614
   10SAPS   C24 1238   3.775   1.008   7.130  0.0398  0.4615  0.9293
   10SAPS   H4R 1239   3.722   1.045   7.221 -0.5235  2.3919 -0.1172
   10SAPS   H4S 1240   3.868   0.954   7.158  0.2266  0.5105  0.4140
   10SAPS   C25 1241   3.682   0.926   7.044 -0.9086 -0.6917 -0.5422
   10SAPS   H5R 1242   3.622   0.985   6.973  0.3273  2.8349  1.1307
   10SAPS   C26 1243   3.685   0.791   7.041  0.4183  0.3504 -0.7942
   10SAPS   H6R 1244   3.612   0.738   6.978  0.2812  0.5576 -0.8088
   10SAPS   C27 1245   3.764   0.686   7.126  0.3553 -0.0256 -0.6567
   10SAPS   H7R 1246   3.872   0.707   7.117 -0.2484  2.8340 -2.5378
   10SAPS   H7S 1247   3.742   0.593   7.069 -3.0533  0.8352 -0.9988
   10SAPS   C28 1248   3.719   0.673   7.274  0.3447  0.6459  0.5918
   10SAPS   H8R 1249   3.611   0.658   7.293  0.9555 -1.7222  2.8398
   10SAPS   C29 1250   3.797   0.685   7.380 -0.0842 -0.6226 -0.2589
   10SAPS   H9R 1251   3.752   0.670   7.479 -1.9885  0.9501 -0.8041
   10SAPS  C210 1252   3.941   0.725   7.375  0.6307 -0.4777  0.1411
   10SAPS  H10R 1253   3.973   0.770   7.279  1.7437  0.5091  0.9527
   10SAPS  H10S 1254   4.011   0.639   7.379  2.8251  1.0080 -2.6003
   10SAPS  C211 1255   3.974   0.818   7.488 -1.3217  0.0472 -0.6180
   10SAPS  H11R 1256   3.953   0.926   7.478 -2.3572  0.0287  1.0012
   10SAPS  C212 1257   4.008   0.786   7.618 -0.3845  0.5535 -0.8411
   10SAPS  H12R 1258   4.028   0.863   7.694 -2.9453 -1.6358  2.2995
   10SAPS  C213 1259   4.015   0.642   7.675 -0.3023 -0.7602  0.0478
   10SAPS  H13R 1260   4.107   0.622   7.735 -0.5828 -0.5489  0.5580
   10SAPS  H13S 1261   4.029   0.569   7.593  0.1015 -0.9470  0.2784
   10SAPS  C214 1262   3.890   0.613   7.757  0.1843 -0.4401  1.1820
   10SAPS  H14R 1263   3.801   0.598   7.694 -0.9024 -1.5755  2.8961
   10SAPS  C215 1264   3.875   0.621   7.890  0.6441  0.4495 -0.2277
   10SAPS  H15R 1265   3.780   0.596   7.939  0.7095 -0.9226 -0.7543
   10SAPS  C216 1266   3.988   0.648   7.981 -0.0420  0.5248 -0.4909
   10SAPS  H16R 1267   3.973   0.745   8.034  1.3066  0.1975  0.5575
   10SAPS  H16S 1268   4.092   0.658   7.944 -0.5134 -1.0725 -2.3922
   10SAPS  C217 1269   4.009   0.537   8.097  0.3482  0.6984 -0.0084
   10SAPS  H17R 1270   4.079   0.464   8.050  0.7687  1.4742 -0.6222
   10SAPS  H17S 1271   3.913   0.486   8.115  1.2136 -0.8179  0.4811
   10SAPS  C218 1272   4.087   0.586   8.216  0.6275 -1.3500 -0.0208
   10SAPS  H18R 1273   4.034   0.677   8.251 -0.7166 -2.4863  1.0486
   10SAPS  H18S 1274   4.191   0.613   8.188  0.0074  2.0105  0.5008
   10SAPS  C219 1275   4.078   0.499   8.346 -0.8020  0.5167  0.0883
   10SAPS  H19R 1276   3.971   0.474   8.363 -1.3558  0.9075 -2.3756
   10SAPS  H19S 1277   4.113   0.560   8.432  0.7998  1.0605 -0.9047
   10SAPS  C220 1278   4.171   0.375   8.331 -0.2134  0.0457  0.4678
   10SAPS  H20R 1279   4.156   0.313   8.240  0.8721  0.3408  0.0798
   10SAPS  H20S 1280   4.155   0.310   8.420  1.5943 -0.7659  0.2495
   10SAPS  H20T 1281   4.276   0.410   8.334 -0.0242 -0.4479 -0.2747
   10SAPS   C33 1282   4.383   1.522   7.045 -0.2221  0.4113  0.1639
   10SAPS   H3X 1283   4.351   1.616   7.095  0.7001  0.1693  1.2283
   10SAPS   H3Y 1284   4.445   1.550   6.957  0.5722 -1.0348  0.2479
   10SAPS   C34 1285   4.477   1.450   7.138 -0.3494  0.3561  0.6319
   10SAPS   H4X 1286   4.518   1.360   7.087  0.0511  0.3276  1.0040
   10SAPS   H4Y 1287   4.419   1.414   7.225  1.6282 -2.4592  0.9044
   10SAPS   C35 1288   4.599   1.538   7.182  0.0982  0.4521  0.5192
   10SAPS   H5X 1289   4.569   1.645   7.193  2.1373  0.9914  1.2220
   10SAPS   H5Y 1290   4.671   1.527   7.098  1.3732  0.0636  1.6487
   10SAPS   C36 1291   4.650   1.497   7.320 -0.1129  0.6641 -0.0920
   10SAPS   H6X 1292   4.572   1.483   7.398  0.6020 -2.2231  0.2079
   10SAPS   H6Y 1293   4.722   1.580   7.338 -0.4614  1.5184 -2.3058
   10SAPS   C37 1294   4.725   1.364   7.328 -0.6086  0.6705  0.0195
   10SAPS   H7X 1295   4.802   1.364   7.248 -1.0330  0.1612 -0.3969
   10SAPS   H7Y 1296   4.658   1.284   7.289 -0.2541 -0.4030  1.4990
   10SAPS   C38 1297   4.784   1.320   7.459 -0.1898 -0.4410  0.5839
   10SAPS   H8X 1298   4.707   1.351   7.534 -2.8275  0.2997 -2.2422
   10SAPS   H8Y 1299   4.872   1.384   7.480 -1.8636  1.9111  0.7852
   10SAPS   C39 1300   4.812   1.166   7.465  0.4290  0.0418  0.0321
   10SAPS   H9X 1301   4.888   1.148   7.387  2.6670 -0.1628  2.1268
   10SAPS   H9Y 1302   4.717   1.112   7.444 -0.1309 -0.3048  2.9584
   10SAPS  C310 1303   4.839   1.117   7.612  0.0233 -0.3203 -0.2955
   10SAPS  H10X 1304   4.927   1.173   7.651 -0.9831  0.5211  0.8583
   10SAPS  H10Y 1305   4.871   1.010   7.616  1.3026  0.0479 -0.1170
   10SAPS  C311 1306   4.715   1.132   7.707 -1.1410  0.2834 -0.6524
   10SAPS  H11X 1307   4.630   1.087   7.650 -0.0825 -3.3728  0.3703
   10SAPS  H11Y 1308   4.707   1.239   7.734 -0.8793 -0.3756  2.3399
   10SAPS  C312 1309   4.743   1.051   7.841  0.4009 -0.5038  0.5694
   10SAPS  H12X 1310   4.778   0.947   7.823 -1.5521 -1.5029  2.1558
   10SAPS  H12Y 1311   4.639   1.050   7.879  0.9223 -1.2783  2.0754
   10SAPS  C313 1312   4.822   1.136   7.934  0.1266  0.1376 -0.1619
   10SAPS  H13X 1313   4.753   1.220   7.955  0.7626  0.6479 -0.0947
   10SAPS  H13Y 1314   4.922   1.167   7.896  0.2368  0.0308  0.0388
   10SAPS  C314 1315   4.852   1.065   8.066 -0.0933  0.2273  0.3180
   10SAPS  H14X 1316   4.887   0.963   8.039  0.3421  0.7140 -1.0794
   10SAPS  H14Y 1317   4.756   1.065   8.121 -2.0304 -0.8760 -2.7853
   10SAPS  C315 1318   4.961   1.139   8.142 -0.7369  0.1542  0.2625
   10SAPS  H15X 1319   4.926   1.243   8.164 -0.5458  0.6070 -1.4018
   10SAPS  H15Y 1320   5.051   1.150   8.078 -0.7468 -1.3516 -0.0392
   10SAPS  C316 1321   5.005   1.075   8.266 -0.4864  0.2033 -0.9058
   10SAPS  H16X 1322   5.027   0.966   8.268  1.3669  0.5413  1.0233
   10SAPS  H16Y 1323   4.925   1.099   8.339  0.9917  0.3392  0.7442
   10SAPS  C317 1324   5.134   1.136   8.331 -0.7534  0.4089 -0.7515
   10SAPS  H17X 1325   5.215   1.130   8.256 -0.7305  0.8978 -0.7683
   10SAPS  H17Y 1326   5.164   1.079   8.422 -0.8907 -0.3879 -1.1951
   10SAPS  C318 1327   5.123   1.276   8.380 -0.5914 -0.3134 -0.5743
   10SAPS  H18X 1328   5.035   1.293   8.446 -0.3632  2.2540 -0.8168
   10SAPS  H18Y 1329   5.104   1.355   8.305  0.4122  1.0176  0.4973
   10SAPS  H18Z 1330   5.216   1.305   8.435 -0.8426 -0.2617 -0.1697
   11SAPS     N 1331   6.548   2.547   5.819 -0.1000  0.1737  0.1408
   11SAPS   HN1 1332   6.520   2.637   5.863 -1.8653 -0.6316  0.7451
   11SAPS   HN2 1333   6.486   2.523   5.740 -0.9634 -1.4707  1.2558
   11SAPS   HN3 1334   6.538   2.467   5.885  1.0036 -0.6620 -0.6587
   11SAPS   C12 1335   6.692   2.539   5.782  0.6831  0.3402 -0.4869
   11SAPS  H12A 1336   6.743   2.546   5.877  1.8595 -1.7437 -0.9029
   11SAPS   C13 1337   6.736   2.396   5.724 -0.0414  0.0180 -0.8774
   11SAPS  O13A 1338   6.665   2.293   5.749 -0.5752 -0.4873 -0.7108
   11SAPS  O13B 1339   6.856   2.379   5.691 -0.4087 -0.6512  0.5381
   11SAPS   C11 1340   6.722   2.653   5.681 -0.0481 -0.0389  0.6733
   11SAPS  H11A 1341   6.668   2.626   5.588 -0.4128  0.2701  0.7951
   11SAPS  H11B 1342   6.830   2.656   5.656 -0.2018  1.7465  0.0966
   11SAPS     P 1343   6.766   2.867   5.835  0.0684 -0.4406 -0.0689
   11SAPS   O13 1344   6.877   2.933   5.763  0.2938  0.0455  0.1844
   11SAPS   O14 1345   6.671   2.949   5.912 -0.0784  0.1200 -0.0934
   11SAPS   O12 1346   6.679   2.780   5.728 -0.3329 -0.1537 -0.5561
   11SAPS   O11 1347   6.821   2.757   5.933 -0.2471  0.4969 -0.0392
   11SAPS    C1 1348   6.956   2.705   5.932  0.1171  0.6033  0.4817
   11SAPS    HA 1349   6.976   2.630   5.852  3.1691 -1.1748  2.6986
   11SAPS    HB 1350   7.029   2.786   5.914 -0.0780  0.6081 -0.3166
   11SAPS    C2 1351   6.977   2.621   6.062 -0.0346 -0.3819  0.4968
   11SAPS    HS 1352   7.078   2.577   6.047  1.3960  2.9500 -0.7999
   11SAPS   O21 1353   6.866   2.525   6.082 -0.3818  0.0351 -0.3394
   11SAPS   C21 1354   6.903   2.408   6.125 -0.0817 -0.6056  0.3703
   11SAPS   O22 1355   7.016   2.376   6.161  0.9604  1.2769 -0.4268
   11SAPS   C22 1356   6.785   2.305   6.118  0.3015  0.0513 -0.2253
   11SAPS   H2R 1357   6.723   2.332   6.030 -1.0415 -1.7672  0.1204
   11SAPS   H2S 1358   6.832   2.207   6.096  1.6408  0.6373 -0.0750
   11SAPS    C3 1359   6.964   2.729   6.177  0.0747 -0.0057 -0.4717
   11SAPS    HX 1360   6.862   2.775   6.172  0.5557  1.1176 -0.2527
   11SAPS    HY 1361   7.040   2.807   6.158  0.0376  0.4034  0.9384
   11SAPS   O31 1362   6.981   2.675   6.312  0.5772  0.4021 -0.5916
   11SAPS   C31 1363   7.106   2.639   6.330 -0.2014  0.5598 -0.3177
   11SAPS   O32 1364   7.201   2.669   6.262  0.8069 -0.4744  0.0212
   11SAPS   C32 1365   7.119   2.579   6.469 -0.1356  0.5892 -0.1937
   11SAPS   H2X 1366   7.178   2.659   6.519  1.0166  0.0922 -0.7097
   11SAPS   H2Y 1367   7.182   2.488   6.457 -2.7911 -1.4423  0.3179
   11SAPS   C23 1368   6.705   2.300   6.249  0.2484  0.0393 -0.1507
   11SAPS   H3R 1369   6.770   2.291   6.339 -1.2256  1.2221  1.0980
   11SAPS   H3S 1370   6.654   2.201   6.244  1.3610 -0.6265  1.0419
   11SAPS   C24 1371   6.598   2.406   6.258 -1.0524  0.0600 -0.3319
   11SAPS   H4R 1372   6.525   2.355   6.324 -2.5118  1.3510 -0.8813
   11SAPS   H4S 1373   6.540   2.416   6.164  2.2789 -0.7024 -2.6594
   11SAPS   C25 1374   6.649   2.545   6.312 -0.2670  0.9149  0.1342
   11SAPS   H5R 1375   6.705   2.609   6.242 -0.9829  1.1813 -0.2097
   11SAPS   C26 1376   6.610   2.601   6.428 -0.3344  0.0694  0.9131
   11SAPS   H6R 1377   6.630   2.708   6.449 -2.8643  0.7146  0.3467
   11SAPS   C27 1378   6.517   2.544   6.533 -0.5572 -0.2650  0.2137
   11SAPS   H7R 1379   6.460   2.459   6.490  0.0487 -0.0713 -1.0301
   11SAPS   H7S 1380   6.439   2.616   6.563 -1.5736 -1.2912  0.1166
   11SAPS   C28 1381   6.598   2.497   6.648  0.5834  0.5285 -0.2473
   11SAPS   H8R 1382   6.663   2.413   6.623 -0.9195  0.1881 -3.4847
   11SAPS   C29 1383   6.617   2.566   6.765 -0.3308  0.2793  0.2369
   11SAPS   H9R 1384   6.683   2.529   6.845  0.9831  2.0308  0.0143
   11SAPS  C210 1385   6.553   2.686   6.817 -0.1833 -0.0107  0.2221
   11SAPS  H10R 1386   6.509   2.740   6.731  1.2497  1.5398  0.4007
   11SAPS  H10S 1387   6.630   2.759   6.850 -0.3269 -0.1472  0.8647
   11SAPS  C211 1388   6.449   2.645   6.916  0.3252 -0.5737 -0.2394
   11SAPS  H11R 1389   6.365   2.586   6.878  0.1687 -0.7817  0.4159
   11SAPS  C212 1390   6.446   2.660   7.051  0.3403 -0.6609 -0.2245
   11SAPS  H12R 1391   6.364   2.614   7.108 -0.4749  0.9537 -0.0463
   11SAPS  C213 1392   6.546   2.737   7.138 -0.6795 -0.5604  0.3248
   11SAPS  H13R 1393   6.503   2.820   7.198 -0.7331 -0.1911 -0.2147
   11SAPS  H13S 1394   6.622   2.781   7.070 -0.4218 -1.7564 -0.1798
   11SAPS  C214 1395   6.615   2.643   7.228 -0.3449  0.4159 -0.4504
   11SAPS  H14R 1396   6.661   2.562   7.169  1.9445  0.7255  0.7595
   11SAPS  C215 1397   6.618   2.643   7.365 -0.0563 -0.2367  0.5814
   11SAPS  H15R 1398   6.667   2.557   7.414  0.8121  0.0280  0.2058
   11SAPS  C216 1399   6.549   2.741   7.451  0.5086  0.5463 -0.8412
   11SAPS  H16R 1400   6.508   2.829   7.398  0.9053  0.2700 -1.6215
   11SAPS  H16S 1401   6.623   2.781   7.523  1.6136 -0.7625 -1.2063
   11SAPS  C217 1402   6.440   2.680   7.556 -0.0121 -0.8646 -0.3958
   11SAPS  H17R 1403   6.355   2.634   7.502  0.4913 -0.7430 -1.3284
   11SAPS  H17S 1404   6.403   2.763   7.620  0.0976 -1.5573  0.5773
   11SAPS  C218 1405   6.503   2.575   7.648 -0.7110 -0.1051  0.2936
   11SAPS  H18R 1406   6.539   2.495   7.579  1.9659 -0.2429  1.6938
   11SAPS  H18S 1407   6.423   2.535   7.714 -0.5910 -0.4065  0.2610
   11SAPS  C219 1408   6.628   2.618   7.730 -0.2552  0.4753  0.6090
   11SAPS  H19R 1409   6.592   2.700   7.796 -3.3112 -0.7927  0.6770
   11SAPS  H19S 1410   6.698   2.673   7.664 -4.3141  2.2586 -2.6708
   11SAPS  C220 1411   6.688   2.511   7.816  0.0373  0.0514 -0.1787
   11SAPS  H20R 1412   6.615   2.483   7.895 -1.4811  1.5067 -0.9918
   11SAPS  H20S 1413   6.774   2.550   7.874 -1.1100  0.0252  1.6252
   11SAPS  H20T 1414   6.726   2.423   7.760  0.8440  1.0019 -1.1667
   11SAPS   C33 1415   6.994   2.539   6.541  0.3431  0.1690  0.2199
   11SAPS   H3X 1416   6.947   2.460   6.480 -0.0795  0.5499  0.0438
   11SAPS   H3Y 1417   6.922   2.623   6.553 -0.3922 -0.4073 -0.0789
   11SAPS   C34 1418   7.022   2.489   6.680  0.1895  0.5218  0.3631
   11SAPS   H4X 1419   7.108   2.419   6.681 -2.0645 -2.4268  1.7955
   11SAPS   H4Y 1420   6.935   2.422   6.694  0.3259 -1.3589 -5.2909
   11SAPS   C35 1421   7.030   2.583   6.801 -0.0390 -0.3951  0.0503
   11SAPS   H5X 1422   6.943   2.652   6.795  0.4647  0.3049  0.6688
   11SAPS   H5Y 1423   7.119   2.650   6.803 -0.5149  0.2735 -0.5775
   11SAPS   C36 1424   7.026   2.514   6.936  0.0177 -0.4303  0.0103
   11SAPS   H6X 1425   7.115   2.448   6.945  0.7222  0.5250  0.2820
   11SAPS   H6Y 1426   6.936   2.450   6.947  0.8438 -1.7954 -0.9323
   11SAPS   C37 1427   7.035   2.627   7.048  0.0716  0.2828  0.1260
   11SAPS   H7X 1428   6.954   2.698   7.022 -0.7542 -1.0950 -1.2531
   11SAPS   H7Y 1429   7.137   2.670   7.047  0.3228 -0.2447 -1.6909
   11SAPS   C38 1430   6.998   2.573   7.180 -0.0622 -0.2772 -0.2859
   11SAPS   H8X 1431   7.077   2.500   7.207  0.7313  0.7841  0.3573
   11SAPS   H8Y 1432   6.899   2.524   7.167 -0.5824  0.9151 -1.0799
   11SAPS   C39 1433   6.990   2.685   7.289  0.2365  0.3077 -0.1471
   11SAPS   H9X 1434   6.901   2.750   7.285  0.7309  0.9905 -3.5045
   11SAPS   H9Y 1435   7.086   2.739   7.275  0.3342 -0.3250 -2.3361
   11SAPS  C310 1436   7.003   2.618   7.425 -0.7441  0.1510  0.3987
   11SAPS  H10X 1437   7.088   2.547   7.436 -0.4883  0.3499 -0.2988
   11SAPS  H10Y 1438   6.914   2.554   7.445 -0.6568 -0.1763 -0.2531
   11SAPS  C311 1439   7.008   2.713   7.541  0.2606  0.3064 -0.8863
   11SAPS  H11X 1440   6.907   2.757   7.559  0.2942  0.0854 -0.1161
   11SAPS  H11Y 1441   7.073   2.802   7.526  0.1885  0.6422  0.6427
   11SAPS  C312 1442   7.046   2.651   7.673  0.7390  0.2243  0.8017
   11SAPS  H12X 1443   7.141   2.593   7.675 -0.5329 -1.9608  2.3320
   11SAPS  H12Y 1444   6.970   2.573   7.695 -0.6271  1.1967 -0.2946
   11SAPS  C313 1445   7.060   2.745   7.792  0.1556  0.1503 -0.3814
   11SAPS  H13X 1446   6.970   2.810   7.789  0.9685  1.2620 -1.9477
   11SAPS  H13Y 1447   7.133   2.825   7.770 -0.6577  0.9019 -0.3790
   11SAPS  C314 1448   7.089   2.680   7.928 -0.4169  0.5607 -0.2561
   11SAPS  H14X 1449   7.188   2.630   7.928 -1.3729 -1.4350  0.9306
   11SAPS  H14Y 1450   7.018   2.596   7.936 -0.9113  1.0886  1.1558
   11SAPS  C315 1451   7.076   2.774   8.050 -0.4715 -0.2184 -0.4273
   11SAPS  H15X 1452   6.997   2.851   8.037  0.4663  1.7124  3.6287
   11SAPS  H15Y 1453   7.162   2.842   8.067  0.0462 -1.0051  0.1711
   11SAPS  C316 1454   7.063   2.689   8.177  0.9536 -0.7455  0.2948
   11SAPS  H16X 1455   7.152   2.626   8.195 -0.1520 -2.2892  0.6358
   11SAPS  H16Y 1456   6.979   2.617   8.164  1.0954 -0.7882 -0.4382
   11SAPS  C317 1457   7.024   2.776   8.300 -0.0094  0.2147  0.2245
   11SAPS  H17X 1458   6.987   2.714   8.385  0.1512 -0.8125 -0.4508
   11SAPS  H17Y 1459   6.935   2.834   8.266 -0.9094 -1.4093 -0.3083
   11SAPS  C318 1460   7.134   2.865   8.349  0.4668 -0.3411  0.2063
   11SAPS  H18X 1461   7.112   2.903   8.451 -0.0240  0.2764 -0.1217
   11SAPS  H18Y 1462   7.139   2.950   8.278 -1.3101 -1.2665 -1.1000
   11SAPS  H18Z 1463   7.235   2.820   8.340  1.7103  2.5775 -1.4799
   12SAPS     N 1464   0.367   4.829   5.655 -0.3166  0.1788  0.0669
   12SAPS   HN1 1465   0.404   4.749   5.710 -2.0065 -1.1044 -0.5959
   12SAPS   HN2 1466   0.264   4.823   5.656 -0.2890 -1.2876  2.6245
   12SAPS   HN3 1467   0.390   4.827   5.553  0.4010  0.4229  0.2189
   12SAPS   C12 1468   0.415   4.953   5.712  0.3361 -0.4686 -0.2082
   12SAPS  H12A 1469   0.517   4.943   5.746  0.4482 -0.1325 -0.4348
   12SAPS   C13 1470   0.441   5.069   5.614 -0.1018  0.3686 -0.2518
   12SAPS  O13A 1471   0.381   5.074   5.502  0.1995  0.0257  0.5797
   12SAPS  O13B 1472   0.513   5.166   5.645 -0.1194  0.2372 -0.0137
   12SAPS   C11 1473   0.332   5.001   5.832  0.2422 -0.3154 -0.3949
   12SAPS  H11A 1474   0.228   5.024   5.801 -0.0036  1.2765  1.4600
   12SAPS  H11B 1475   0.361   5.102   5.867 -1.2196  0.8092 -2.2832
   12SAPS     P 1476   0.440   4.857   6.035 -0.2799 -0.4727 -0.3200
   12SAPS   O13 1477   0.394   4.749   6.124  0.1855  0.0810  0.2952
   12SAPS   O14 1478   0.563   4.817   5.966 -0.1072  0.3399 -0.1447
   12SAPS   O12 1479   0.321   4.904   5.937 -0.1310  0.3244 -0.3794
   12SAPS   O11 1480   0.473   4.984   6.124  0.3536 -0.0603  0.0445
   12SAPS    C1 1481   0.398   5.019   6.237 -0.1539 -0.0034 -0.0476
   12SAPS    HA 1482   0.403   5.129   6.251  2.8730 -0.3203  2.6748
   12SAPS    HB 1483   0.291   4.999   6.214 -0.4824  0.5786  0.9127
   12SAPS    C2 1484   0.441   4.951   6.365  0.0762  1.2954 -0.1216
   12SAPS    HS 1485   0.445   4.840   6.356  2.4751  1.0435  2.5120
   12SAPS   O21 1486   0.354   4.983   6.476 -0.1915  0.6976 -0.0152
   12SAPS   C21 1487   0.228   4.950   6.468 -0.2036 -0.0734  0.4905
   12SAPS   O22 1488   0.175   4.869   6.393  0.1734 -0.2099 -0.1152
   12SAPS   C22 1489   0.152   5.026   6.578 -0.1674  0.5258 -0.1150
   12SAPS   H2R 1490   0.213   5.020   6.671  1.7204 -0.8404 -1.3562
   12SAPS   H2S 1491   0.140   5.135   6.565  0.8899  1.2208  3.5458
   12SAPS    C3 1492   0.586   4.987   6.398 -0.0108  0.9290  0.1787
   12SAPS    HX 1493   0.593   5.097   6.414  0.3589  0.5188  3.2642
   12SAPS    HY 1494   0.653   4.961   6.313  0.3155 -0.5835  0.8801
   12SAPS   O31 1495   0.631   4.937   6.520 -0.1735  0.1761 -0.0081
   12SAPS   C31 1496   0.688   4.819   6.523 -0.1656  0.6248 -0.9472
   12SAPS   O32 1497   0.710   4.753   6.422 -0.5168 -0.2278 -0.0652
   12SAPS   C32 1498   0.750   4.793   6.658 -0.1987 -0.0489 -0.4505
   12SAPS   H2X 1499   0.684   4.829   6.740 -0.4715 -0.0053 -0.6849
   12SAPS   H2Y 1500   0.841   4.854   6.671  1.2958 -2.1680 -0.4647
   12SAPS   C23 1501   0.009   4.975   6.589 -0.2037 -0.6356 -0.0711
   12SAPS   H3R 1502   0.013   4.866   6.610 -1.8516 -1.2227 -2.4225
   12SAPS   H3S 1503  -0.044   4.990   6.492  0.0457  2.2686  0.1674
   12SAPS   C24 1504  -0.077   5.047   6.698 -0.0486 -0.0152  0.7998
   12SAPS   H4R 1505  -0.184   5.040   6.672  0.3114 -1.9039 -0.3569
   12SAPS   H4S 1506  -0.057   5.156   6.688  1.6876 -0.2060  1.6484
   12SAPS   C25 1507  -0.048   5.003   6.838 -0.4303  0.6571 -0.2561
   12SAPS   H5R 1508  -0.073   4.896   6.851  1.1355 -0.0165 -2.2155
   12SAPS   C26 1509  -0.009   5.077   6.945 -0.6053  0.0149 -0.2797
   12SAPS   H6R 1510   0.012   5.030   7.042 -0.1954  1.3908  0.3314
   12SAPS   C27 1511   0.031   5.227   6.941 -0.2949  0.5061 -0.2463
   12SAPS   H7R 1512   0.062   5.253   6.837 -2.4454 -1.8731 -1.5900
   12SAPS   H7S 1513   0.126   5.242   6.998 -0.2351  1.0426 -0.4759
   12SAPS   C28 1514  -0.083   5.316   6.996 -0.4307  0.3117  0.2869
   12SAPS   H8R 1515  -0.184   5.301   6.957 -0.1352  0.7196 -0.6821
   12SAPS   C29 1516  -0.076   5.402   7.104  0.1170 -0.3107 -0.2104
   12SAPS   H9R 1517  -0.162   5.470   7.114  0.2612 -0.0330 -0.8482
   12SAPS  C210 1518   0.037   5.433   7.199 -0.1320  0.3470 -0.1738
   12SAPS  H10R 1519   0.024   5.540   7.225  0.5398  1.1052 -2.6966
   12SAPS  H10S 1520   0.137   5.432   7.151  1.7419 -1.6614  3.3523
   12SAPS  C211 1521   0.064   5.335   7.318  0.6259 -0.0126  0.8093
   12SAPS  H11R 1522   0.051   5.229   7.291 -2.0767  0.3207  0.6166
   12SAPS  C212 1523   0.116   5.372   7.439  0.5187  0.4027  0.5247
   12SAPS  H12R 1524   0.132   5.292   7.514 -0.7545  0.5256  0.9491
   12SAPS  C213 1525   0.152   5.514   7.490 -0.8952  0.1651  1.1403
   12SAPS  H13R 1526   0.126   5.597   7.421 -0.8926  1.2702  2.4456
   12SAPS  H13S 1527   0.262   5.525   7.501 -0.9978  1.7585  0.8477
   12SAPS  C214 1528   0.077   5.556   7.621 -0.2087  0.4405  0.1209
   12SAPS  H14R 1529   0.027   5.653   7.611  0.1980  0.7896  1.3425
   12SAPS  C215 1530   0.105   5.509   7.746 -0.4194  0.2119  0.1538
   12SAPS  H15R 1531   0.048   5.523   7.839  2.2217 -0.5675  2.0324
   12SAPS  C216 1532   0.212   5.396   7.764 -0.2350  0.7583 -0.6976
   12SAPS  H16R 1533   0.290   5.385   7.685 -0.9058  2.4872 -1.6784
   12SAPS  H16S 1534   0.161   5.297   7.764 -0.7636  1.0250 -1.1356
   12SAPS  C217 1535   0.286   5.424   7.890  1.1015 -0.4140  0.0410
   12SAPS  H17R 1536   0.315   5.530   7.896  3.0653 -0.9215  0.1016
   12SAPS  H17S 1537   0.383   5.371   7.881  2.0461  1.2930 -0.1399
   12SAPS  C218 1538   0.207   5.386   8.027 -0.1599  0.2985 -0.1257
   12SAPS  H18R 1539   0.195   5.276   8.025 -0.1426  0.2591  1.0535
   12SAPS  H18S 1540   0.106   5.432   8.029 -1.8455 -3.1210  0.1225
   12SAPS  C219 1541   0.271   5.449   8.151 -0.5135  0.4013 -0.3876
   12SAPS  H19R 1542   0.229   5.395   8.238  2.2979 -0.7659  0.3776
   12SAPS  H19S 1543   0.231   5.553   8.147 -1.4236  0.0414 -0.9024
   12SAPS  C220 1544   0.429   5.436   8.174 -0.3917 -0.9743  0.0551
   12SAPS  H20R 1545   0.463   5.495   8.262  1.1137 -1.1692 -0.3628
   12SAPS  H20S 1546   0.482   5.488   8.091  1.3103  0.7368  2.0789
   12SAPS  H20T 1547   0.466   5.332   8.191 -0.3871 -1.0921 -0.6231
   12SAPS   C33 1548   0.758   4.647   6.687  0.0738 -0.4087  0.3356
   12SAPS   H3X 1549   0.831   4.603   6.615  1.0831 -0.9755  1.6540
   12SAPS   H3Y 1550   0.671   4.588   6.652  0.3632 -1.0475  0.6804
   12SAPS   C34 1551   0.811   4.612   6.832 -0.1882  0.4375 -0.3352
   12SAPS   H4X 1552   0.894   4.686   6.841 -2.0268  2.5735 -0.1762
   12SAPS   H4Y 1553   0.857   4.511   6.825 -1.0598 -0.2674  2.6806
   12SAPS   C35 1554   0.719   4.627   6.954 -0.8589 -0.3453 -0.4596
   12SAPS   H5X 1555   0.626   4.568   6.939 -0.1490 -1.9387  1.0092
   12SAPS   H5Y 1556   0.689   4.734   6.948  2.4613  0.6640 -1.0630
   12SAPS   C36 1557   0.780   4.582   7.091 -0.4100  0.1811 -0.4020
   12SAPS   H6X 1558   0.778   4.473   7.109 -1.1259  0.5064  1.7478
   12SAPS   H6Y 1559   0.720   4.615   7.178 -0.8437 -2.5950  0.4587
   12SAPS   C37 1560   0.925   4.637   7.107  0.0753 -0.5463 -0.1665
   12SAPS   H7X 1561   0.913   4.747   7.112 -0.5511 -0.5779 -0.8911
   12SAPS   H7Y 1562   0.991   4.599   7.026 -1.5620 -0.8274 -1.4030
   12SAPS   C38 1563   0.990   4.593   7.237 -0.4181 -0.2901  0.2377
   12SAPS   H8X 1564   1.098   4.619   7.237  0.2403 -2.7663  0.2322
   12SAPS   H8Y 1565   1.004   4.483   7.243  3.1588 -0.1085 -2.2219
   12SAPS   C39 1566   0.930   4.662   7.368  0.0461 -0.6314  0.9964
   12SAPS   H9X 1567   0.827   4.624   7.385 -0.8502  2.7242  4.3386
   12SAPS   H9Y 1568   0.918   4.768   7.339  3.1650 -0.8261 -1.6014
   12SAPS  C310 1569   1.009   4.641   7.496 -0.6378  0.7798  0.4824
   12SAPS  H10X 1570   1.115   4.669   7.476 -0.6702  0.0488 -0.8380
   12SAPS  H10Y 1571   1.005   4.535   7.528 -1.3744  0.6231 -0.1054
   12SAPS  C311 1572   0.973   4.743   7.603  0.3097 -0.3316  0.3808
   12SAPS  H11X 1573   0.867   4.752   7.634  0.4367 -0.1482  0.7736
   12SAPS  H11Y 1574   1.009   4.843   7.570 -0.4236  0.0189  0.6278
   12SAPS  C312 1575   1.047   4.704   7.728 -0.4261 -0.6900 -0.1861
   12SAPS  H12X 1576   1.156   4.704   7.703 -0.0520  0.2554  1.3188
   12SAPS  H12Y 1577   1.021   4.597   7.745  0.2462 -0.8878 -0.3409
   12SAPS  C313 1578   1.027   4.791   7.853 -0.1466 -0.2782 -0.7344
   12SAPS  H13X 1579   0.919   4.774   7.874  0.2473 -2.7920 -0.4292
   12SAPS  H13Y 1580   1.055   4.897   7.841 -0.2127  0.0269  1.4466
   12SAPS  C314 1581   1.125   4.734   7.953  0.1973  0.0237 -0.1126
   12SAPS  H14X 1582   1.230   4.758   7.924 -0.3485  1.2454 -1.1513
   12SAPS  H14Y 1583   1.110   4.624   7.954  0.3770 -0.0012 -0.0016
   12SAPS  C315 1584   1.113   4.805   8.088  0.0592 -0.0664  0.4710
   12SAPS  H15X 1585   1.007   4.799   8.121  0.1237  1.6029  1.0864
   12SAPS  H15Y 1586   1.133   4.911   8.062  0.3636  0.3381  2.2451
   12SAPS  C316 1587   1.211   4.755   8.196  0.7602 -0.2311 -0.5341
   12SAPS  H16X 1588   1.202   4.834   8.274 -2.1741 -1.3827  0.4077
   12SAPS  H16Y 1589   1.316   4.754   8.160  0.9228 -0.8055 -0.0556
   12SAPS  C317 1590   1.182   4.618   8.252 -0.1712 -1.1248  0.4368
   12SAPS  H17X 1591   1.192   4.543   8.171  3.3050  1.5928 -1.9418
   12SAPS  H17Y 1592   1.075   4.612   8.282 -0.6049 -0.7383 -0.9481
   12SAPS  C318 1593   1.265   4.572   8.368  0.8391  0.9500 -0.5586
   12SAPS  H18X 1594   1.370   4.550   8.339  1.5510  0.1415  2.2702
   12SAPS  H18Y 1595   1.221   4.477   8.405  0.3610  1.2516 -0.3408
   12SAPS  H18Z 1596   1.258   4.650   8.447  1.7738 -0.1516  0.6695
   13SAPS     N 1597   0.775   0.796   5.967  0.0349  0.1109  0.3373
   13SAPS   HN1 1598   0.736   0.721   6.028 -0.8465 -0.3930 -0.8190
   13SAPS   HN2 1599   0.840   0.756   5.897  0.1899  0.7726  0.0932
   13SAPS   HN3 1600   0.813   0.858   6.041 -0.3097  1.3592 -0.4986
   13SAPS   C12 1601   0.678   0.882   5.890 -0.2291 -0.2862  0.1105
   13SAPS  H12A 1602   0.732   0.936   5.814 -0.2458  0.7962  0.8577
   13SAPS   C13 1603   0.577   0.802   5.807  0.7379 -0.2928 -0.0753
   13SAPS  O13A 1604   0.594   0.679   5.792 -0.4102  0.7863 -0.0217
   13SAPS  O13B 1605   0.509   0.871   5.729 -0.2017 -0.2638  0.1983
   13SAPS   C11 1606   0.600   0.979   5.985 -0.5490 -0.0429  0.1249
   13SAPS  H11A 1607   0.535   0.920   6.053 -0.6246 -0.1525 -0.0423
   13SAPS  H11B 1608   0.537   1.047   5.924 -0.1783  0.2339  0.0495
   13SAPS     P 1609   0.650   1.186   6.134  0.3727 -0.0180 -0.0103
   13SAPS   O13 1610   0.768   1.275   6.158 -0.2689  0.3043  0.1902
   13SAPS   O14 1611   0.521   1.245   6.083 -0.3595 -0.2192  0.0116
   13SAPS   O12 1612   0.691   1.060   6.052 -0.0764  0.1323  0.1857
   13SAPS   O11 1613   0.607   1.129   6.279  0.0898  0.4117  0.2720
   13SAPS    C1 1614   0.643   0.998   6.313 -0.1070  0.8010 -0.1075
   13SAPS    HA 1615   0.568   0.921   6.283  1.6097 -1.5813  1.3445
   13SAPS    HB 1616   0.738   0.967   6.263  1.3110  2.8468  1.1594
   13SAPS    C2 1617   0.656   0.963   6.466 -1.5158 -0.3787 -0.1097
   13SAPS    HS 1618   0.558   0.976   6.517 -0.3163 -2.1167  2.9188
   13SAPS   O21 1619   0.756   1.057   6.513  0.2339 -0.4904 -0.1128
   13SAPS   C21 1620   0.746   1.090   6.639 -0.6019 -0.1355  0.2092
   13SAPS   O22 1621   0.663   1.062   6.721  0.3498  0.1228  0.5080
   13SAPS   C22 1622   0.864   1.176   6.676 -0.3102 -0.1561  0.1499
   13SAPS   H2R 1623   0.945   1.160   6.603 -4.2702 -3.7747 -4.0640
   13SAPS   H2S 1624   0.831   1.282   6.664 -1.1893 -0.4085  0.2233
   13SAPS    C3 1625   0.708   0.813   6.484 -0.5608 -0.5195 -0.6960
   13SAPS    HX 1626   0.805   0.820   6.430 -0.4557  2.0188 -0.2728
   13SAPS    HY 1627   0.629   0.746   6.444 -0.5627 -0.5132 -0.7016
   13SAPS   O31 1628   0.740   0.782   6.625  0.0231  0.4080  0.1372
   13SAPS   C31 1629   0.641   0.755   6.699  1.0640  1.4698  0.1310
   13SAPS   O32 1630   0.526   0.745   6.663  0.0444 -0.4371  0.1482
   13SAPS   C32 1631   0.686   0.714   6.840  0.2227 -0.2433 -0.2889
   13SAPS   H2X 1632   0.797   0.708   6.844  0.3942 -1.8159 -3.9288
   13SAPS   H2Y 1633   0.640   0.616   6.866 -1.8668  1.2301  1.9976
   13SAPS   C23 1634   0.920   1.144   6.825  0.4114  0.6232  0.0042
   13SAPS   H3R 1635   0.947   1.036   6.818 -1.6679 -0.1997  2.8131
   13SAPS   H3S 1636   0.836   1.148   6.897  0.6097 -3.3771  0.6984
   13SAPS   C24 1637   1.042   1.217   6.879  0.7658 -1.0302  0.7789
   13SAPS   H4R 1638   1.128   1.203   6.810 -2.3061 -2.8076 -3.1177
   13SAPS   H4S 1639   1.070   1.160   6.970  0.1213 -1.9012  0.4541
   13SAPS   C25 1640   1.015   1.372   6.885 -0.0461  0.6482 -0.5639
   13SAPS   H5R 1641   1.026   1.422   6.788  0.3064 -1.7218 -1.8285
   13SAPS   C26 1642   0.997   1.448   6.998 -0.1589  0.3929  0.3336
   13SAPS   H6R 1643   0.973   1.555   6.987 -2.9965 -0.2322 -0.1115
   13SAPS   C27 1644   0.993   1.405   7.141  0.3945 -0.3941  0.3725
   13SAPS   H7R 1645   0.986   1.498   7.202 -0.3764 -1.3228  1.7782
   13SAPS   H7S 1646   1.085   1.346   7.160  0.2644 -0.8897 -0.5106
   13SAPS   C28 1647   0.879   1.326   7.189 -0.1049 -0.6990  1.0193
   13SAPS   H8R 1648   0.805   1.304   7.110 -0.0093 -1.1260  1.0442
   13SAPS   C29 1649   0.866   1.289   7.317  0.3796 -0.3524  0.2287
   13SAPS   H9R 1650   0.777   1.235   7.352 -1.1705  1.1753 -1.1333
   13SAPS  C210 1651   0.962   1.324   7.431 -0.0187 -0.5881 -0.0895
   13SAPS  H10R 1652   0.905   1.399   7.489  0.3535  2.0584 -2.9002
   13SAPS  H10S 1653   1.051   1.378   7.392 -0.8040  0.3719 -0.6202
   13SAPS  C211 1654   0.999   1.200   7.512  1.0455 -0.3114  0.0212
   13SAPS  H11R 1655   1.049   1.120   7.454 -1.8787 -3.1585  1.1241
   13SAPS  C212 1656   0.981   1.194   7.648 -0.1220  0.4064  0.3822
   13SAPS  H12R 1657   1.028   1.106   7.694  0.9375  1.1165  0.7057
   13SAPS  C213 1658   0.929   1.301   7.743  0.3590  0.2031 -0.0400
   13SAPS  H13R 1659   0.905   1.261   7.844  1.8708 -0.9038 -0.0745
   13SAPS  H13S 1660   0.833   1.345   7.709  0.0206  0.7948  1.5715
   13SAPS  C214 1661   1.022   1.427   7.750 -0.0171  0.3310  0.3844
   13SAPS  H14R 1662   1.077   1.451   7.658 -0.5416 -1.1275 -0.3497
   13SAPS  C215 1663   1.053   1.500   7.861 -0.3553  0.2216  0.2793
   13SAPS  H15R 1664   1.127   1.581   7.852 -1.0663  0.7074 -1.6123
   13SAPS  C216 1665   1.004   1.461   7.998  0.3892 -0.1099 -0.6900
   13SAPS  H16R 1666   1.077   1.380   8.019  1.1737  0.2731 -1.7941
   13SAPS  H16S 1667   0.898   1.432   8.009  0.7562 -0.4222  3.4752
   13SAPS  C217 1668   1.048   1.565   8.107 -0.3033 -0.5593  0.3878
   13SAPS  H17R 1669   1.149   1.607   8.084  0.0140 -1.2840  0.4331
   13SAPS  H17S 1670   1.051   1.527   8.211  1.2090  0.0291  0.5860
   13SAPS  C218 1671   0.946   1.686   8.119 -0.4209 -0.1410 -0.0735
   13SAPS  H18R 1672   0.845   1.654   8.151 -0.4036  1.2527  1.4932
   13SAPS  H18S 1673   0.937   1.717   8.013  0.4748 -0.7892 -0.3599
   13SAPS  C219 1674   0.997   1.798   8.210 -0.7452 -0.0498  0.6164
   13SAPS  H19R 1675   0.993   1.756   8.313 -3.2017 -0.2763  0.4843
   13SAPS  H19S 1676   0.912   1.869   8.208  0.6664  1.6727 -0.2664
   13SAPS  C220 1677   1.115   1.880   8.161 -0.4766 -0.5095  0.4780
   13SAPS  H20R 1678   1.119   1.895   8.050  0.9027 -0.7313  0.4809
   13SAPS  H20S 1679   1.208   1.825   8.185 -0.0120 -0.1015 -0.3113
   13SAPS  H20T 1680   1.120   1.977   8.216  0.2863  0.7058 -1.5851
   13SAPS   C33 1681   0.634   0.816   6.949 -0.5292  0.3106 -1.1073
   13SAPS   H3X 1682   0.526   0.800   6.965 -0.0048 -3.4788 -0.2134
   13SAPS   H3Y 1683   0.652   0.923   6.928 -0.3488  0.3130 -0.9478
   13SAPS   C34 1684   0.690   0.775   7.082 -0.1886 -0.1005  0.4526
   13SAPS   H4X 1685   0.799   0.796   7.080 -0.2424  0.1636  0.3703
   13SAPS   H4Y 1686   0.687   0.665   7.097  0.1202 -0.3370 -1.1110
   13SAPS   C35 1687   0.638   0.839   7.212 -0.2894 -0.6097  0.5971
   13SAPS   H5X 1688   0.706   0.809   7.294 -0.0779 -2.9446 -0.3372
   13SAPS   H5Y 1689   0.533   0.808   7.235  0.1798 -3.1591 -0.3548
   13SAPS   C36 1690   0.626   0.992   7.199 -0.6202 -0.4848  0.0111
   13SAPS   H6X 1691   0.572   1.013   7.105 -2.7469 -0.4598  1.1818
   13SAPS   H6Y 1692   0.728   1.031   7.180 -1.5622  0.5969 -3.4829
   13SAPS   C37 1693   0.540   1.062   7.312 -0.2850  0.0511  0.5010
   13SAPS   H7X 1694   0.436   1.024   7.310 -0.5013  0.6359 -1.1543
   13SAPS   H7Y 1695   0.531   1.172   7.300 -0.1274  0.1472  1.2348
   13SAPS   C38 1696   0.594   1.029   7.456 -0.3770  1.4120  0.1307
   13SAPS   H8X 1697   0.701   1.059   7.456 -0.0246  0.2118  0.3811
   13SAPS   H8Y 1698   0.605   0.921   7.479  0.0007  1.5856  0.8003
   13SAPS   C39 1699   0.522   1.108   7.567 -0.5140  0.0992 -0.5552
   13SAPS   H9X 1700   0.566   1.089   7.667 -1.8269  0.4920  0.1222
   13SAPS   H9Y 1701   0.417   1.071   7.569 -0.1813 -0.8901 -0.8487
   13SAPS  C310 1702   0.524   1.262   7.550 -0.4165  0.1085  0.4590
   13SAPS  H10X 1703   0.452   1.271   7.466  0.1135  0.3469  0.0175
   13SAPS  H10Y 1704   0.624   1.300   7.519 -0.5336  0.3282  0.3498
   13SAPS  C311 1705   0.464   1.328   7.677  0.2333 -0.4232 -0.6826
   13SAPS  H11X 1706   0.541   1.309   7.755 -0.0109  0.4871 -0.2092
   13SAPS  H11Y 1707   0.374   1.269   7.705  1.7919 -1.1955  3.3989
   13SAPS  C312 1708   0.434   1.476   7.668  0.9038 -0.5297 -0.2413
   13SAPS  H12X 1709   0.333   1.470   7.622  0.9281  0.8720 -0.5167
   13SAPS  H12Y 1710   0.508   1.536   7.611 -0.4395  2.0722  0.5890
   13SAPS  C313 1711   0.421   1.539   7.807  0.1947 -0.1947  0.0056
   13SAPS  H13X 1712   0.338   1.483   7.855  0.9595 -2.0814 -0.8042
   13SAPS  H13Y 1713   0.376   1.641   7.798 -1.2065 -0.7860  0.0270
   13SAPS  C314 1714   0.551   1.545   7.888 -0.0625 -0.6054  0.3337
   13SAPS  H14X 1715   0.639   1.549   7.820 -0.2996  2.2108  0.0747
   13SAPS  H14Y 1716   0.551   1.447   7.940 -0.8515 -0.2658  0.9991
   13SAPS  C315 1717   0.568   1.646   8.000 -0.2517  0.1302  0.6264
   13SAPS  H15X 1718   0.673   1.622   8.028 -0.1506 -0.4456 -0.2207
   13SAPS  H15Y 1719   0.513   1.620   8.093 -0.0745  0.9293  0.9616
   13SAPS  C316 1720   0.561   1.784   7.942  0.2260  0.8875  0.1312
   13SAPS  H16X 1721   0.455   1.814   7.930 -0.2489 -0.4445  0.9025
   13SAPS  H16Y 1722   0.628   1.798   7.854  0.2926 -0.3639 -0.0353
   13SAPS  C317 1723   0.598   1.897   8.044  0.6734  0.2667 -0.1306
   13SAPS  H17X 1724   0.600   2.001   8.004 -1.9076  0.9021  1.1762
   13SAPS  H17Y 1725   0.699   1.869   8.081 -1.2418 -3.4109  3.0996
   13SAPS  C318 1726   0.501   1.892   8.160 -0.2179 -0.5861  0.3323
   13SAPS  H18X 1727   0.534   1.968   8.234  0.4978  0.4053 -0.9627
   13SAPS  H18Y 1728   0.503   1.790   8.204 -0.2897 -0.4423  0.6693
   13SAPS  H18Z 1729   0.405   1.933   8.122 -0.7907  0.1406  2.4407
   14SAPS     N 1730   1.363   4.939   5.844 -0.4525 -0.9487 -0.0881
   14SAPS   HN1 1731   1.445   4.981   5.797 -0.5672  0.0414  0.5696
   14SAPS   HN2 1732   1.394   4.895   5.933 -0.6779 -0.7838  0.0756
   14SAPS   HN3 1733   1.332   4.870   5.772 -0.8894 -2.2542  1.2879
   14SAPS   C12 1734   1.250   5.045   5.850  0.3058  0.4693 -0.1053
   14SAPS  H12A 1735   1.225   5.078   5.750 -2.2829 -3.4229 -0.9808
   14SAPS   C13 1736   1.111   4.979   5.890 -0.4771 -0.4904  0.4714
   14SAPS  O13A 1737   1.111   4.856   5.906  0.2619 -0.1343  0.0930
   14SAPS  O13B 1738   1.008   5.044   5.902 -0.1202  0.5378 -0.6827
   14SAPS   C11 1739   1.271   5.156   5.952  0.0203  0.3118  0.5512
   14SAPS  H11A 1740   1.269   5.116   6.055  0.6466  1.5888  1.0895
   14SAPS  H11B 1741   1.188   5.229   5.940  0.3805  0.6148 -0.1822
   14SAPS     P 1742   1.513   5.220   6.022 -0.1617 -0.2243  0.4912
   14SAPS   O13 1743   1.574   5.089   6.018 -0.7421  0.1913  0.3940
   14SAPS   O14 1744   1.600   5.337   5.993  0.3268 -0.2505  0.7900
   14SAPS   O12 1745   1.392   5.224   5.912 -0.2204 -0.3029 -0.2898
   14SAPS   O11 1746   1.446   5.242   6.160  0.2042 -0.1023 -0.0820
   14SAPS    C1 1747   1.388   5.369   6.181  0.0187 -0.0965 -0.3927
   14SAPS    HA 1748   1.465   5.449   6.177  0.1062 -0.0664  1.1195
   14SAPS    HB 1749   1.313   5.401   6.105 -0.3259  1.4297  0.5444
   14SAPS    C2 1750   1.333   5.374   6.326  1.2159 -0.1824 -0.0046
   14SAPS    HS 1751   1.307   5.479   6.353 -0.8539 -0.9146  1.0663
   14SAPS   O21 1752   1.431   5.326   6.415  0.8323 -0.0297 -0.2847
   14SAPS   C21 1753   1.548   5.381   6.417  0.2715  0.3070 -0.3389
   14SAPS   O22 1754   1.576   5.496   6.380 -0.2830 -0.0474 -0.5059
   14SAPS   C22 1755   1.637   5.279   6.478  0.2715 -0.8827 -0.4638
   14SAPS   H2R 1756   1.579   5.255   6.569 -1.6678  0.0871 -1.3717
   14SAPS   H2S 1757   1.639   5.185   6.419  0.5618 -2.3311  1.7655
   14SAPS    C3 1758   1.196   5.296   6.335  0.3615  0.0872 -0.2055
   14SAPS    HX 1759   1.218   5.188   6.325  1.3227  0.3328 -0.8231
   14SAPS    HY 1760   1.128   5.337   6.257 -2.2675  1.5768  2.6013
   14SAPS   O31 1761   1.129   5.303   6.461 -0.2886  0.0377  0.2251
   14SAPS   C31 1762   1.008   5.248   6.458  0.0164 -0.0493  0.4185
   14SAPS   O32 1763   0.960   5.188   6.362  0.5237  0.0367 -0.3973
   14SAPS   C32 1764   0.945   5.270   6.592 -0.2573  0.6110 -0.1715
   14SAPS   H2X 1765   0.911   5.375   6.600 -1.5504  0.0851  2.1072
   14SAPS   H2Y 1766   1.024   5.255   6.668 -0.7229  2.1079  0.6525
   14SAPS   C23 1767   1.774   5.330   6.532 -0.3339 -0.2365  0.8941
   14SAPS   H3R 1768   1.772   5.433   6.576  1.6594  0.6841 -1.0041
   14SAPS   H3S 1769   1.843   5.344   6.447  0.1125  2.2476  1.5605
   14SAPS   C24 1770   1.844   5.234   6.630 -0.2862 -0.1078  0.0166
   14SAPS   H4R 1771   1.944   5.275   6.658 -0.6765  0.0040  1.3454
   14SAPS   H4S 1772   1.855   5.146   6.562  2.3686  0.0999  0.0595
   14SAPS   C25 1773   1.759   5.200   6.748  0.5384  0.0744 -0.1561
   14SAPS   H5R 1774   1.673   5.135   6.726 -2.0781  3.1973  0.1320
   14SAPS   C26 1775   1.769   5.227   6.879 -0.4647  0.3699 -0.2366
   14SAPS   H6R 1776   1.707   5.164   6.945  0.9636 -1.3077 -0.4264
   14SAPS   C27 1777   1.884   5.299   6.943 -0.3164 -0.3308  0.1802
   14SAPS   H7R 1778   1.837   5.349   7.030 -0.9534  0.5945 -0.6588
   14SAPS   H7S 1779   1.921   5.382   6.878  1.5573  0.1428  1.7670
   14SAPS   C28 1780   2.002   5.210   6.974 -0.0197  0.6751  0.2294
   14SAPS   H8R 1781   2.074   5.184   6.895  1.0524 -0.1427  1.4198
   14SAPS   C29 1782   2.020   5.160   7.097  0.1710  0.0365 -0.3264
   14SAPS   H9R 1783   2.100   5.085   7.108  0.3169 -0.0250 -1.6503
   14SAPS  C210 1784   1.929   5.178   7.216  0.3002 -0.8431 -0.2885
   14SAPS  H10R 1785   1.938   5.086   7.278  2.3069 -1.0227 -0.7783
   14SAPS  H10S 1786   1.824   5.186   7.179  1.2217 -1.3222 -3.2208
   14SAPS  C211 1787   1.953   5.310   7.285 -0.2503  0.1203  0.3238
   14SAPS  H11R 1788   1.948   5.395   7.216 -3.1960 -0.8156 -0.7805
   14SAPS  C212 1789   1.961   5.335   7.413  0.2299 -0.5730  0.1677
   14SAPS  H12R 1790   1.982   5.438   7.445  2.3019 -0.2933 -1.8783
   14SAPS  C213 1791   1.946   5.238   7.530  0.0433 -0.2530  0.8287
   14SAPS  H13R 1792   2.025   5.256   7.606 -1.5448  1.8557  2.0971
   14SAPS  H13S 1793   1.951   5.132   7.499  1.2388 -0.4007  1.4652
   14SAPS  C214 1794   1.807   5.256   7.588  0.3226  0.6058  0.0926
   14SAPS  H14R 1795   1.738   5.247   7.503 -0.5143 -0.9090  0.8937
   14SAPS  C215 1796   1.768   5.272   7.716 -0.1604  0.1214  0.4613
   14SAPS  H15R 1797   1.660   5.274   7.738 -0.3636 -1.5137 -0.2614
   14SAPS  C216 1798   1.866   5.270   7.828  0.1799  0.2570 -0.7348
   14SAPS  H16R 1799   1.952   5.338   7.807 -1.8113  2.7629 -1.3419
   14SAPS  H16S 1800   1.907   5.167   7.821  0.7302  0.3770  0.5037
   14SAPS  C217 1801   1.800   5.287   7.968 -0.2621 -0.0631  0.3634
   14SAPS  H17R 1802   1.729   5.373   7.971  0.2619  0.3610  0.8594
   14SAPS  H17S 1803   1.883   5.325   8.031  1.0352 -1.2982 -0.5522
   14SAPS  C218 1804   1.731   5.169   8.034  0.4335  0.2873 -0.5720
   14SAPS  H18R 1805   1.804   5.086   8.034  1.1873  0.9181  0.5568
   14SAPS  H18S 1806   1.643   5.122   7.985 -1.0693  0.3686  1.8591
   14SAPS  C219 1807   1.682   5.207   8.177 -0.4469  0.0220  0.0024
   14SAPS  H19R 1808   1.613   5.294   8.164 -2.8798 -1.2773  2.9160
   14SAPS  H19S 1809   1.770   5.241   8.236 -1.4692  0.5941  1.2518
   14SAPS  C220 1810   1.600   5.098   8.251 -0.0466 -0.4379  0.4111
   14SAPS  H20R 1811   1.563   5.114   8.355 -0.8556  0.2892  0.0268
   14SAPS  H20S 1812   1.669   5.014   8.273  0.5096 -0.7253 -2.1430
   14SAPS  H20T 1813   1.529   5.049   8.182  2.2642 -1.2212 -1.5332
   14SAPS   C33 1814   0.825   5.173   6.623 -0.4807  0.3349 -0.0337
   14SAPS   H3X 1815   0.857   5.069   6.599 -4.4657 -1.3299  0.9816
   14SAPS   H3Y 1816   0.738   5.190   6.555  0.1704  3.0605 -0.2875
   14SAPS   C34 1817   0.772   5.176   6.772 -0.6645  0.3539 -0.5823
   14SAPS   H4X 1818   0.687   5.104   6.771 -0.4802  0.1342 -1.1057
   14SAPS   H4Y 1819   0.742   5.279   6.798 -2.0224  0.4987 -2.5416
   14SAPS   C35 1820   0.870   5.128   6.884  0.6245 -0.0574 -0.2047
   14SAPS   H5X 1821   0.964   5.185   6.872 -0.0684  1.1632 -0.0080
   14SAPS   H5Y 1822   0.893   5.021   6.867 -1.8718 -0.4481 -1.6734
   14SAPS   C36 1823   0.813   5.149   7.024 -0.6953 -0.3152 -1.0390
   14SAPS   H6X 1824   0.714   5.103   7.045 -0.3183 -0.1713  1.2832
   14SAPS   H6Y 1825   0.811   5.260   7.033 -1.8565 -0.3576 -0.7040
   14SAPS   C37 1826   0.906   5.096   7.144 -0.7230 -0.2620  0.3996
   14SAPS   H7X 1827   1.001   5.140   7.108 -0.8355 -0.9274 -0.7625
   14SAPS   H7Y 1828   0.911   4.985   7.149 -1.5696 -0.2835  1.1002
   14SAPS   C38 1829   0.850   5.156   7.281 -0.9348  0.8401 -0.3533
   14SAPS   H8X 1830   0.753   5.107   7.300  0.0707 -0.3120  2.3466
   14SAPS   H8Y 1831   0.839   5.266   7.278  1.2124  1.1029 -0.7207
   14SAPS   C39 1832   0.944   5.113   7.396 -0.1225 -0.1662  0.0768
   14SAPS   H9X 1833   1.042   5.163   7.378 -0.2348  0.2194  0.5182
   14SAPS   H9Y 1834   0.974   5.007   7.404  0.8701  0.1177  0.2966
   14SAPS  C310 1835   0.898   5.154   7.535 -0.8068 -0.1188 -0.4849
   14SAPS  H10X 1836   0.912   5.264   7.538 -1.6712 -0.0079 -0.2985
   14SAPS  H10Y 1837   0.975   5.109   7.601 -2.0204  0.9497  1.8008
   14SAPS  C311 1838   0.753   5.124   7.570  0.0248  0.0091  0.4558
   14SAPS  H11X 1839   0.738   5.019   7.537 -0.9255 -0.1136  1.2269
   14SAPS  H11Y 1840   0.673   5.183   7.520 -0.1236 -1.5176 -1.1945
   14SAPS  C312 1841   0.726   5.152   7.721  0.1071  0.5350  0.5198
   14SAPS  H12X 1842   0.620   5.174   7.744  1.1758  2.8991  3.9176
   14SAPS  H12Y 1843   0.773   5.248   7.751  0.6791  0.0769  1.1036
   14SAPS  C313 1844   0.773   5.046   7.825 -0.3340  0.0046  0.5544
   14SAPS  H13X 1845   0.882   5.034   7.809 -0.8375 -1.7168 -2.4225
   14SAPS  H13Y 1846   0.722   4.947   7.819 -1.5014  0.5236  1.4109
   14SAPS  C314 1847   0.756   5.093   7.971  0.9341 -0.2570 -0.2509
   14SAPS  H14X 1848   0.762   5.005   8.039  0.4290 -1.3507 -1.5661
   14SAPS  H14Y 1849   0.649   5.120   7.985  0.8522 -0.3815 -0.6242
   14SAPS  C315 1850   0.854   5.200   8.018  0.3498 -0.1679 -0.5342
   14SAPS  H15X 1851   0.852   5.292   7.957 -1.8508 -0.4933 -1.0544
   14SAPS  H15Y 1852   0.959   5.171   7.998  1.1816  1.9741  0.4704
   14SAPS  C316 1853   0.827   5.239   8.164  1.0404 -0.1022  0.1050
   14SAPS  H16X 1854   0.873   5.160   8.227 -0.7157 -1.0403  0.2793
   14SAPS  H16Y 1855   0.718   5.244   8.187  1.1863 -0.0847  0.8406
   14SAPS  C317 1856   0.889   5.367   8.213 -0.5777 -0.2283 -0.8442
   14SAPS  H17X 1857   0.856   5.460   8.162  1.5021  2.1498  1.8849
   14SAPS  H17Y 1858   0.998   5.368   8.191  0.3159  0.1632  3.0175
   14SAPS  C318 1859   0.866   5.395   8.358 -0.2643 -0.1665 -0.3232
   14SAPS  H18X 1860   0.926   5.327   8.422  0.2390  0.0170 -0.5847
   14SAPS  H18Y 1861   0.759   5.379   8.381  0.2655  0.4081  3.1576
   14SAPS  H18Z 1862   0.898   5.497   8.389  0.9299 -1.5373  3.4939
   15SAPS     N 1863   0.045   4.022   6.075 -0.0809 -0.6501  0.0242
   15SAPS   HN1 1864  -0.036   4.000   6.137 -1.3335  0.8853 -0.9648
   15SAPS   HN2 1865   0.108   3.943   6.100 -1.2954 -0.7467  3.3072
   15SAPS   HN3 1866   0.085   4.110   6.113  1.4484 -1.1478 -0.3872
   15SAPS   C12 1867  -0.008   4.014   5.933 -0.0005 -0.0709 -0.9143
   15SAPS  H12A 1868   0.067   4.045   5.861 -1.9869  0.8848 -2.6737
   15SAPS   C13 1869  -0.037   3.868   5.888  0.5405 -0.4551  0.6546
   15SAPS  O13A 1870   0.007   3.773   5.963 -0.2917  0.6292 -0.2396
   15SAPS  O13B 1871  -0.056   3.851   5.768 -0.3967 -0.0755 -0.0530
   15SAPS   C11 1872  -0.133   4.093   5.917  0.7477 -0.1995  0.5322
   15SAPS  H11A 1873  -0.218   4.068   5.983  1.4301  0.7318  1.8067
   15SAPS  H11B 1874  -0.166   4.087   5.811  0.0173 -1.8203  0.8277
   15SAPS     P 1875  -0.190   4.353   5.927  0.1593 -0.0990  0.1339
   15SAPS   O13 1876  -0.115   4.481   5.916  0.1334 -0.1168  0.0148
   15SAPS   O14 1877  -0.295   4.318   5.829  0.0049  0.1200 -0.1180
   15SAPS   O12 1878  -0.091   4.229   5.937  0.0837  0.4809  0.4444
   15SAPS   O11 1879  -0.258   4.355   6.066  0.3751  0.4323 -0.0917
   15SAPS    C1 1880  -0.182   4.375   6.187  0.6813 -0.4690 -0.9931
   15SAPS    HA 1881  -0.109   4.292   6.199  0.1735 -0.6056  1.8254
   15SAPS    HB 1882  -0.134   4.474   6.197 -0.1808 -0.2508  2.2682
   15SAPS    C2 1883  -0.280   4.373   6.303 -0.2714 -0.1638 -0.0758
   15SAPS    HS 1884  -0.366   4.304   6.289 -2.5067  1.9189  2.2713
   15SAPS   O21 1885  -0.333   4.508   6.321 -0.1311  0.5189  0.1183
   15SAPS   C21 1886  -0.456   4.522   6.376 -0.7186 -0.0078 -0.5665
   15SAPS   O22 1887  -0.524   4.437   6.429 -0.1998  0.4778  0.2216
   15SAPS   C22 1888  -0.502   4.657   6.323  0.2080  0.6491 -0.0441
   15SAPS   H2R 1889  -0.447   4.693   6.233 -0.6623 -0.0632 -0.8802
   15SAPS   H2S 1890  -0.607   4.645   6.289 -0.2772  1.4917  1.0924
   15SAPS    C3 1891  -0.202   4.329   6.431  0.0120 -0.0305  0.1597
   15SAPS    HX 1892  -0.165   4.227   6.405 -1.8009 -0.6865  0.0103
   15SAPS    HY 1893  -0.280   4.316   6.508 -0.6209 -3.9933 -0.9144
   15SAPS   O31 1894  -0.101   4.416   6.486  0.0132 -0.3611 -0.2375
   15SAPS   C31 1895   0.022   4.395   6.489  0.3411 -0.4701 -0.3052
   15SAPS   O32 1896   0.081   4.296   6.453  0.5823  0.3416 -0.2523
   15SAPS   C32 1897   0.098   4.514   6.553 -0.3135  0.7895  1.0208
   15SAPS   H2X 1898   0.029   4.550   6.633 -2.5942  1.5227 -1.1621
   15SAPS   H2Y 1899   0.123   4.577   6.465 -0.3199  1.1578  1.2799
   15SAPS   C23 1900  -0.492   4.762   6.442  0.4484 -0.3092 -0.2918
   15SAPS   H3R 1901  -0.562   4.725   6.520 -1.0477  3.2357  0.2176
   15SAPS   H3S 1902  -0.527   4.854   6.390 -0.3122 -0.6015 -0.3090
   15SAPS   C24 1903  -0.351   4.785   6.502 -0.4448  0.2245 -0.1676
   15SAPS   H4R 1904  -0.308   4.872   6.448 -0.6151 -0.2575 -1.0992
   15SAPS   H4S 1905  -0.289   4.694   6.488  0.2910  0.8675 -1.1423
   15SAPS   C25 1906  -0.373   4.813   6.647 -0.7073 -0.2908  1.1417
   15SAPS   H5R 1907  -0.403   4.918   6.663  1.0319  0.3316  0.5161
   15SAPS   C26 1908  -0.359   4.732   6.751  0.4302  0.1033 -0.6381
   15SAPS   H6R 1909  -0.387   4.770   6.850  0.5044  0.1184 -0.6226
   15SAPS   C27 1910  -0.320   4.580   6.741  0.1911  0.4344  0.8443
   15SAPS   H7R 1911  -0.217   4.580   6.698  0.0897 -1.6116  0.4933
   15SAPS   H7S 1912  -0.375   4.523   6.664  4.2305 -2.0971 -0.5068
   15SAPS   C28 1913  -0.319   4.479   6.848  0.5506  0.4668 -0.0937
   15SAPS   H8R 1914  -0.378   4.388   6.828  1.4860  0.1809 -1.7339
   15SAPS   C29 1915  -0.247   4.492   6.962 -0.6288 -0.0348  0.3866
   15SAPS   H9R 1916  -0.273   4.422   7.043 -1.6836 -1.2499 -0.9492
   15SAPS  C210 1917  -0.159   4.610   6.998  0.2378 -0.4633  0.5906
   15SAPS  H10R 1918  -0.123   4.660   6.906 -0.8201  1.7158  1.3055
   15SAPS  H10S 1919  -0.062   4.573   7.040  0.4829 -0.5004  0.0085
   15SAPS  C211 1920  -0.212   4.709   7.096 -0.6481 -0.8856  0.1775
   15SAPS  H11R 1921  -0.272   4.786   7.046  1.2738  0.8044  0.3367
   15SAPS  C212 1922  -0.185   4.718   7.230  0.0681  0.5087 -0.8831
   15SAPS  H12R 1923  -0.223   4.804   7.286  0.9882  1.8856 -2.3086
   15SAPS  C213 1924  -0.093   4.628   7.314 -0.1731 -0.1857  0.0683
   15SAPS  H13R 1925  -0.006   4.683   7.357  2.4660 -2.3404 -2.1612
   15SAPS  H13S 1926  -0.044   4.554   7.247 -0.3389  0.0149 -0.2804
   15SAPS  C214 1927  -0.165   4.559   7.431 -0.1062  0.0108  0.6021
   15SAPS  H14R 1928  -0.168   4.618   7.524  0.4165  0.3447  0.4071
   15SAPS  C215 1929  -0.227   4.444   7.438 -0.7492  0.5175 -0.6104
   15SAPS  H15R 1930  -0.257   4.415   7.539  2.5307 -0.8108  0.1183
   15SAPS  C216 1931  -0.247   4.347   7.324 -0.5651  0.3029 -0.5414
   15SAPS  H16R 1932  -0.196   4.368   7.228 -1.4541  2.1466 -0.6469
   15SAPS  H16S 1933  -0.350   4.340   7.285  0.2604 -0.0237 -2.8129
   15SAPS  C217 1934  -0.196   4.207   7.371 -0.0320  0.1641  0.1436
   15SAPS  H17R 1935  -0.244   4.197   7.470 -0.0644 -2.7458 -0.0896
   15SAPS  H17S 1936  -0.085   4.213   7.380  0.0955 -0.9831 -0.5273
   15SAPS  C218 1937  -0.233   4.102   7.265  1.3167  0.1523  0.7124
   15SAPS  H18R 1938  -0.257   4.149   7.168 -0.6070  0.5861  1.3485
   15SAPS  H18S 1939  -0.329   4.054   7.295 -0.0296  2.2489 -0.0770
   15SAPS  C219 1940  -0.133   3.986   7.263  0.1044  0.0699 -0.4081
   15SAPS  H19R 1941  -0.112   3.937   7.360  1.7180  2.3758  0.4738
   15SAPS  H19S 1942  -0.035   4.030   7.237  0.7025 -0.9360  0.0919
   15SAPS  C220 1943  -0.160   3.888   7.151 -0.5111 -0.2763 -0.0674
   15SAPS  H20R 1944  -0.084   3.807   7.148 -1.5298 -1.2395 -0.5955
   15SAPS  H20S 1945  -0.159   3.932   7.049  1.4385  0.7978  0.3736
   15SAPS  H20T 1946  -0.257   3.836   7.169  0.3342 -1.4563  1.3502
   15SAPS   C33 1947   0.242   4.467   6.606  0.1857  0.6270 -0.9852
   15SAPS   H3X 1948   0.292   4.407   6.528  0.5546 -0.8203  0.3059
   15SAPS   H3Y 1949   0.211   4.405   6.693  3.3301 -2.1345 -1.6221
   15SAPS   C34 1950   0.331   4.583   6.648  0.4003 -0.3958 -0.4467
   15SAPS   H4X 1951   0.350   4.650   6.561 -0.6146  0.3748 -0.1106
   15SAPS   H4Y 1952   0.429   4.550   6.687 -0.2871  0.4950  2.2789
   15SAPS   C35 1953   0.268   4.667   6.758  0.2882 -0.3862  0.0969
   15SAPS   H5X 1954   0.230   4.605   6.842 -0.6626 -0.3373 -0.2800
   15SAPS   H5Y 1955   0.176   4.720   6.723 -1.5189 -1.3526  2.9874
   15SAPS   C36 1956   0.367   4.768   6.831  0.1081  0.1923  0.3444
   15SAPS   H6X 1957   0.391   4.847   6.756 -1.3772 -1.1548 -1.6610
   15SAPS   H6Y 1958   0.454   4.708   6.864 -0.4848 -0.2039  1.2408
   15SAPS   C37 1959   0.304   4.847   6.942 -0.2449 -0.5724 -0.0182
   15SAPS   H7X 1960   0.291   4.781   7.031 -0.0989 -0.9514 -0.2764
   15SAPS   H7Y 1961   0.203   4.883   6.910 -0.5416  0.1353  1.5714
   15SAPS   C38 1962   0.385   4.970   6.985 -0.2603 -0.1670  0.5873
   15SAPS   H8X 1963   0.367   5.051   6.911 -1.1016  1.7613  2.7677
   15SAPS   H8Y 1964   0.491   4.940   6.970 -1.0376 -1.3240 -3.8994
   15SAPS   C39 1965   0.355   5.023   7.128 -0.2604  0.1278  0.1209
   15SAPS   H9X 1966   0.244   5.038   7.127 -0.6530 -2.3220 -0.1969
   15SAPS   H9Y 1967   0.403   5.123   7.135 -1.0679  0.7391 -2.1237
   15SAPS  C310 1968   0.393   4.936   7.245 -0.9415  0.2147  0.2328
   15SAPS  H10X 1969   0.503   4.935   7.259 -0.7259  0.2442 -1.3637
   15SAPS  H10Y 1970   0.364   4.830   7.233 -2.6839  0.7014 -0.1104
   15SAPS  C311 1971   0.350   5.000   7.377 -0.0481  0.2937 -0.8632
   15SAPS  H11X 1972   0.242   4.979   7.388  0.1277 -0.0232  0.3679
   15SAPS  H11Y 1973   0.358   5.110   7.362  0.0154  0.5411  0.8167
   15SAPS  C312 1974   0.430   4.959   7.502  0.1501 -0.2640  0.2803
   15SAPS  H12X 1975   0.536   4.980   7.476 -0.7410  0.4055 -3.3015
   15SAPS  H12Y 1976   0.409   4.853   7.528 -0.4540  0.0404  1.0907
   15SAPS  C313 1977   0.384   5.037   7.625  0.4651 -0.1735  0.2820
   15SAPS  H13X 1978   0.362   5.138   7.585 -2.5478 -0.0930  1.8314
   15SAPS  H13Y 1979   0.471   5.038   7.694  1.8160  1.6870 -1.3393
   15SAPS  C314 1980   0.258   4.979   7.694  0.0572 -0.6251 -0.1021
   15SAPS  H14X 1981   0.250   4.868   7.703  0.1613 -0.5746  0.7039
   15SAPS  H14Y 1982   0.170   5.023   7.642 -2.7652 -3.5553  1.7394
   15SAPS  C315 1983   0.259   5.037   7.842  0.2650 -0.3099 -0.4597
   15SAPS  H15X 1984   0.161   5.016   7.890 -0.4780 -0.2678 -1.8959
   15SAPS  H15Y 1985   0.270   5.148   7.844 -5.3428  0.6138 -2.6488
   15SAPS  C316 1986   0.365   4.970   7.933 -0.4199 -0.8753 -0.3783
   15SAPS  H16X 1987   0.371   5.026   8.029 -1.6374 -1.6884  0.1890
   15SAPS  H16Y 1988   0.467   4.990   7.892  0.4051  2.4444  2.7797
   15SAPS  C317 1989   0.343   4.822   7.958  0.2708 -0.0505  0.8470
   15SAPS  H17X 1990   0.441   4.787   7.998  1.0539 -2.2112 -2.5367
   15SAPS  H17Y 1991   0.324   4.759   7.869  2.7141  1.5415 -0.9378
   15SAPS  C318 1992   0.227   4.792   8.057  0.0739  0.3647  0.2960
   15SAPS  H18X 1993   0.125   4.817   8.020 -0.3191  1.5879  2.0512
   15SAPS  H18Y 1994   0.239   4.857   8.147 -2.2923  0.7575  0.3819
   15SAPS  H18Z 1995   0.229   4.686   8.089 -0.4178  1.1356  3.2289
   16SAPS     N 1996   3.787   4.872   6.506  0.5926 -0.1231 -0.3968
   16SAPS   HN1 1997   3.724   4.852   6.586  0.7399 -2.0718 -0.7270
   16SAPS   HN2 1998   3.883   4.857   6.540 -0.4766 -3.2903  1.6141
   16SAPS   HN3 1999   3.766   4.966   6.466 -3.6575 -1.4751 -1.9913
   16SAPS   C12 2000   3.769   4.761   6.405 -0.6091  0.0337 -0.2397
   16SAPS  H12A 2001   3.664   4.761   6.381 -0.6282  0.7053 -0.1534
   16SAPS   C13 2002   3.845   4.790   6.273  0.1801 -0.2186 -0.5153
   16SAPS  O13A 2003   3.913   4.896   6.262 -0.2524 -0.7101  0.5194
   16SAPS  O13B 2004   3.842   4.705   6.187 -0.4238 -0.3882  0.3666
   16SAPS   C11 2005   3.812   4.623   6.464  0.0732  0.3966  0.3314
   16SAPS  H11A 2006   3.914   4.629   6.509 -0.5211 -0.2458  1.8330
   16SAPS  H11B 2007   3.802   4.544   6.387 -0.9911 -0.9129  1.7695
   16SAPS     P 2008   3.599   4.515   6.573  0.0577  0.4571  0.0980
   16SAPS   O13 2009   3.514   4.571   6.466  0.0876 -0.0411 -0.5112
   16SAPS   O14 2010   3.618   4.365   6.580 -0.0485  0.3601  0.1832
   16SAPS   O12 2011   3.732   4.589   6.580 -0.3972  0.8166 -0.0081
   16SAPS   O11 2012   3.543   4.565   6.710 -0.0826 -0.2764  0.5310
   16SAPS    C1 2013   3.491   4.498   6.821  0.4332  0.3098  0.2069
   16SAPS    HA 2014   3.397   4.545   6.859  0.6159 -1.8533  3.7297
   16SAPS    HB 2015   3.465   4.394   6.794 -0.7410  0.5020  0.5540
   16SAPS    C2 2016   3.584   4.497   6.944 -0.5809  0.1674  0.3957
   16SAPS    HS 2017   3.525   4.455   7.028 -0.6169 -2.7049 -0.9682
   16SAPS   O21 2018   3.633   4.634   6.969  0.4532  0.1503  0.2389
   16SAPS   C21 2019   3.543   4.722   7.016 -0.3409  0.5317  0.3694
   16SAPS   O22 2020   3.427   4.703   7.039 -0.6057  0.2920 -0.6521
   16SAPS   C22 2021   3.621   4.848   7.043  0.1149  0.0222  0.2138
   16SAPS   H2R 2022   3.730   4.846   7.018  0.3553  0.1977  1.1994
   16SAPS   H2S 2023   3.581   4.930   6.980  0.7921  1.2205  1.2986
   16SAPS    C3 2024   3.700   4.406   6.920  0.6145  0.3154  0.1591
   16SAPS    HX 2025   3.772   4.453   6.850 -0.9892  1.3997 -0.8367
   16SAPS    HY 2026   3.668   4.314   6.866 -0.8489  0.3077  0.9724
   16SAPS   O31 2027   3.774   4.383   7.043  0.0353 -0.1221 -0.2407
   16SAPS   C31 2028   3.722   4.285   7.115  0.1033  0.0262  0.5371
   16SAPS   O32 2029   3.623   4.220   7.103 -0.4968  0.8789  0.0504
   16SAPS   C32 2030   3.815   4.264   7.239 -0.1779 -0.7614  0.5022
   16SAPS   H2X 2031   3.860   4.360   7.271  1.3530 -1.9025  1.9949
   16SAPS   H2Y 2032   3.910   4.211   7.214  0.1590 -0.3560  0.9149
   16SAPS   C23 2033   3.613   4.891   7.194  0.2827 -0.6277  0.6852
   16SAPS   H3R 2034   3.508   4.897   7.228 -0.6307  0.4067 -2.0974
   16SAPS   H3S 2035   3.644   4.997   7.195  0.9021 -0.7372 -1.7437
   16SAPS   C24 2036   3.699   4.810   7.300 -0.2943 -0.5981  0.6256
   16SAPS   H4R 2037   3.725   4.878   7.384  1.7930  1.6887 -1.6852
   16SAPS   H4S 2038   3.798   4.777   7.261 -0.9115 -2.2969  0.4399
   16SAPS   C25 2039   3.625   4.688   7.349 -0.2702 -0.3604 -0.4011
   16SAPS   H5R 2040   3.560   4.638   7.277  0.8506 -3.3726  0.5471
   16SAPS   C26 2041   3.645   4.621   7.470  0.5955 -1.4361 -0.9214
   16SAPS   H6R 2042   3.581   4.534   7.487 -0.8524 -0.0425  1.2844
   16SAPS   C27 2043   3.742   4.659   7.584  0.6902  0.6801 -0.1180
   16SAPS   H7R 2044   3.708   4.759   7.619 -0.9473 -0.9332  3.4121
   16SAPS   H7S 2045   3.847   4.669   7.550  1.7597  0.3281  2.7679
   16SAPS   C28 2046   3.737   4.543   7.683 -0.9487  0.0662 -0.6835
   16SAPS   H8R 2047   3.739   4.439   7.645  1.6780  0.2871 -1.3048
   16SAPS   C29 2048   3.727   4.569   7.817 -0.2734 -0.2092  0.0658
   16SAPS   H9R 2049   3.715   4.481   7.882 -0.6651  0.3442  0.7590
   16SAPS  C210 2050   3.747   4.694   7.898 -0.3370  0.3660 -0.3284
   16SAPS  H10R 2051   3.671   4.717   7.976 -0.2770 -0.6639  0.0563
   16SAPS  H10S 2052   3.735   4.777   7.825  1.8674  0.5091 -0.5987
   16SAPS  C211 2053   3.893   4.693   7.953 -0.3106 -0.1071 -0.4682
   16SAPS  H11R 2054   3.978   4.690   7.883 -0.6239 -1.0593 -0.8156
   16SAPS  C212 2055   3.928   4.736   8.073 -0.4415  0.2338  0.6795
   16SAPS  H12R 2056   4.035   4.728   8.099 -0.4456 -2.9753  0.0946
   16SAPS  C213 2057   3.844   4.792   8.181 -0.7080 -0.0180  0.3953
   16SAPS  H13R 2058   3.747   4.817   8.133  0.3981 -2.2034 -3.4330
   16SAPS  H13S 2059   3.881   4.892   8.209 -2.0434  0.8148 -0.6757
   16SAPS  C214 2060   3.840   4.697   8.299  0.2057 -0.1702  0.3250
   16SAPS  H14R 2061   3.784   4.607   8.271 -0.7687  1.2620 -2.7920
   16SAPS  C215 2062   3.891   4.716   8.425  0.1902  0.2671 -0.4301
   16SAPS  H15R 2063   3.867   4.632   8.493 -0.7264 -0.8290 -2.0313
   16SAPS  C216 2064   3.971   4.830   8.477 -0.1429  1.1419 -0.4468
   16SAPS  H16R 2065   3.964   4.926   8.422  0.0043  1.3820 -0.0552
   16SAPS  H16S 2066   4.080   4.806   8.477 -0.1523  1.0345  0.5727
   16SAPS  C217 2067   3.914   4.860   8.615 -0.4064  0.1028 -0.6660
   16SAPS  H17R 2068   3.806   4.879   8.596 -0.0899  1.0259 -1.6615
   16SAPS  H17S 2069   3.964   4.952   8.651  0.5942 -0.5077 -0.4585
   16SAPS  C218 2070   3.937   4.753   8.731 -0.2524  0.3261 -0.2028
   16SAPS  H18R 2071   3.886   4.657   8.706 -0.2976  0.5391 -0.9621
   16SAPS  H18S 2072   3.894   4.792   8.826  1.1622 -1.5398  1.2876
   16SAPS  C219 2073   4.088   4.720   8.772 -0.1970 -0.2561 -0.2343
   16SAPS  H19R 2074   4.135   4.643   8.708  3.6231  1.3991  0.3251
   16SAPS  H19S 2075   4.082   4.675   8.873 -1.6273  1.6553  0.5948
   16SAPS  C220 2076   4.184   4.834   8.773 -0.3210 -0.1405 -0.0917
   16SAPS  H20R 2077   4.204   4.869   8.669  0.7267 -1.0666 -0.2313
   16SAPS  H20S 2078   4.282   4.804   8.816  0.3691 -0.1040 -1.5572
   16SAPS  H20T 2079   4.152   4.931   8.816  0.3786 -0.1508  0.4734
   16SAPS   C33 2080   3.738   4.206   7.361 -0.6201  0.5143  0.0965
   16SAPS   H3X 2081   3.703   4.106   7.328 -0.1194  0.2032  0.4968
   16SAPS   H3Y 2082   3.653   4.275   7.383 -0.3530  0.6981  0.5819
   16SAPS   C34 2083   3.843   4.204   7.474  0.4366  0.5395  0.8480
   16SAPS   H4X 2084   3.894   4.303   7.475  4.1519 -1.1709  2.0493
   16SAPS   H4Y 2085   3.926   4.131   7.459 -0.7812 -1.1259  1.9525
   16SAPS   C35 2086   3.777   4.166   7.604 -0.0572  0.2437 -0.0951
   16SAPS   H5X 2087   3.715   4.077   7.580 -2.6407  1.4148  1.8152
   16SAPS   H5Y 2088   3.704   4.245   7.631 -0.8344 -0.8064  0.9773
   16SAPS   C36 2089   3.866   4.140   7.728 -0.1704  0.2987  0.1267
   16SAPS   H6X 2090   3.927   4.048   7.714  0.6363  0.4274  2.4591
   16SAPS   H6Y 2091   3.798   4.111   7.811 -1.3841 -2.2881 -1.6134
   16SAPS   C37 2092   3.971   4.243   7.748  0.3830 -1.0167 -0.0382
   16SAPS   H7X 2093   3.934   4.348   7.746  0.0100 -1.0756  1.9583
   16SAPS   H7Y 2094   4.054   4.241   7.674 -0.3952 -1.4310 -0.9107
   16SAPS   C38 2095   4.035   4.232   7.892 -0.3844  0.7936 -0.2483
   16SAPS   H8X 2096   4.144   4.255   7.889  0.0425 -1.0778 -0.6349
   16SAPS   H8Y 2097   4.031   4.127   7.929 -0.2529  1.1453  0.8089
   16SAPS   C39 2098   3.965   4.311   8.001  0.4015 -0.5422  0.5043
   16SAPS   H9X 2099   3.858   4.285   8.020 -0.9472  3.5687 -0.3244
   16SAPS   H9Y 2100   3.968   4.420   7.979 -0.6198 -0.3849  1.0566
   16SAPS  C310 2101   4.029   4.294   8.136 -0.5928 -0.3732  0.1364
   16SAPS  H10X 2102   4.136   4.320   8.145 -0.2386 -1.5796 -0.4619
   16SAPS  H10Y 2103   4.020   4.190   8.173  0.9062  0.0129  1.7564
   16SAPS  C311 2104   3.956   4.379   8.246  0.0911 -0.8746 -0.1421
   16SAPS  H11X 2105   3.850   4.405   8.225  0.3321  0.1088 -0.1641
   16SAPS  H11Y 2106   4.018   4.470   8.262  1.1261 -1.0890 -2.4982
   16SAPS  C312 2107   3.941   4.305   8.386  0.7418 -0.4336  0.2475
   16SAPS  H12X 2108   3.871   4.221   8.368  0.2777 -0.3187  1.3616
   16SAPS  H12Y 2109   3.884   4.375   8.451 -0.3633 -0.7259 -0.3950
   16SAPS  C313 2110   4.077   4.252   8.438 -0.2111  0.7289 -0.1714
   16SAPS  H13X 2111   4.152   4.334   8.429  1.5731 -1.0016 -2.2213
   16SAPS  H13Y 2112   4.101   4.179   8.358 -1.7219  1.5025 -1.3846
   16SAPS  C314 2113   4.072   4.179   8.574  0.0660 -0.6582  0.4497
   16SAPS  H14X 2114   4.176   4.151   8.599 -0.4463 -2.6328  0.5024
   16SAPS  H14Y 2115   4.010   4.087   8.576 -0.2120 -0.4715  0.6629
   16SAPS  C315 2116   4.014   4.260   8.688  0.1762 -0.0926  0.4640
   16SAPS  H15X 2117   3.907   4.283   8.669 -0.1484  0.6638  2.8782
   16SAPS  H15Y 2118   4.048   4.365   8.700 -0.4201 -0.0396  1.7850
   16SAPS  C316 2119   4.016   4.197   8.824  0.0692 -0.2982  0.2248
   16SAPS  H16X 2120   4.120   4.197   8.864  0.0520  2.0143  0.4208
   16SAPS  H16Y 2121   3.997   4.088   8.816 -0.8704 -0.1621  0.5191
   16SAPS  C317 2122   3.924   4.274   8.923  0.0234  0.6686  0.3257
   16SAPS  H17X 2123   3.834   4.291   8.860  0.9155  0.6188 -0.9996
   16SAPS  H17Y 2124   3.973   4.373   8.938  0.0467  0.9021 -1.1514
   16SAPS  C318 2125   3.875   4.211   9.053 -0.1934  0.3332  0.5821
   16SAPS  H18X 2126   3.954   4.191   9.128 -0.3100 -1.8321  0.1786
   16SAPS  H18Y 2127   3.826   4.117   9.021 -1.9600  1.1318  0.8543
   16SAPS  H18Z 2128   3.798   4.275   9.101  0.0901  1.2713 -0.1727
   17SAPC     N 2129   1.310   1.736  10.396 -0.5602 -0.4331  0.0504
   17SAPC   C12 2130   1.330   1.668  10.257  0.2537  0.8146  0.1233
   17SAPC  H12A 2131   1.275   1.727  10.185 -2.4466 -0.2441  1.1901
   17SAPC  H12B 2132   1.288   1.569  10.253 -1.1908  1.4397 -1.6708
   17SAPC   C13 2133   1.371   1.873  10.397 -0.3457 -0.4389  0.3511
   17SAPC  H13A 2134   1.359   1.907  10.499 -0.0827 -2.0710  0.9499
   17SAPC  H13B 2135   1.478   1.871  10.379 -0.3022  2.0249 -0.0327
   17SAPC  H13C 2136   1.329   1.936  10.320 -0.6136  0.8225  1.4974
   17SAPC   C14 2137   1.170   1.756  10.406 -0.0229  0.0486  0.0729
   17SAPC  H14A 2138   1.109   1.668  10.397  0.6271 -0.5148  1.0279
   17SAPC  H14B 2139   1.138   1.788  10.504 -2.8108  0.5227 -0.9180
   17SAPC  H14C 2140   1.129   1.831  10.341 -2.6876 -3.2967 -2.4481
   17SAPC   C15 2141   1.366   1.654  10.506  0.2034  0.0147  0.4455
   17SAPC  H15A 2142   1.467   1.623  10.482 -0.1202 -2.1523  1.6230
   17SAPC  H15B 2143   1.369   1.705  10.602 -2.4889  0.8939  0.1338
   17SAPC  H15C 2144   1.317   1.559  10.519  3.6581 -1.9030  0.8595
   17SAPC   C11 2145   1.478   1.642  10.215 -0.0763 -0.2124  1.0075
   17SAPC  H11A 2146   1.523   1.744  10.217 -0.4317 -0.0562  2.8889
   17SAPC  H11B 2147   1.481   1.602  10.112 -0.9023  1.5406  0.2557
   17SAPC     P 2148   1.518   1.397  10.288 -0.1652 -0.3188  0.1261
   17SAPC   O13 2149   1.543   1.318  10.408 -0.3979 -0.0900 -0.7875
   17SAPC   O14 2150   1.381   1.379  10.227  0.0651  0.6837  0.3814
   17SAPC   O12 2151   1.549   1.552  10.305 -0.1668 -0.0178  0.0435
   17SAPC   O11 2152   1.641   1.368  10.186 -0.0178 -0.4991 -0.0538
   17SAPC    C1 2153   1.749   1.465  10.167  0.5275 -0.2127 -0.3737
   17SAPC    HA 2154   1.715   1.553  10.107  0.9327  0.9725  1.0750
   17SAPC    HB 2155   1.796   1.493  10.263  0.5970 -0.7286 -0.2568
   17SAPC    C2 2156   1.865   1.396  10.101 -0.2674  0.2849  0.0939
   17SAPC    HS 2157   1.941   1.467  10.062 -0.1792 -0.7398 -1.7727
   17SAPC   O21 2158   1.812   1.318   9.991 -0.2858  0.1420  0.3771
   17SAPC   C21 2159   1.807   1.376   9.873 -0.4283 -0.5854 -1.0590
   17SAPC   O22 2160   1.837   1.496   9.861 -0.0808 -0.2192  0.2346
   17SAPC   C22 2161   1.753   1.288   9.760  0.0701  0.2169 -0.3928
   17SAPC   H2R 2162   1.802   1.189   9.751  1.1478  0.4963  1.6082
   17SAPC   H2S 2163   1.644   1.275   9.776 -0.0348  1.3163 -0.1147
   17SAPC    C3 2164   1.942   1.305  10.199  0.6344 -0.2430  0.2252
   17SAPC    HX 2165   1.878   1.221  10.232 -0.0459  0.0524 -0.3312
   17SAPC    HY 2166   1.955   1.369  10.290 -1.9172 -1.4941  1.5758
   17SAPC   O31 2167   2.070   1.254  10.152  0.1098  0.5118  0.1876
   17SAPC   C31 2168   2.073   1.142  10.079  0.1057 -0.5098  0.0116
   17SAPC   O32 2169   1.969   1.081  10.052 -0.0643 -0.3358 -0.0211
   17SAPC   C32 2170   2.211   1.101  10.043  0.5186 -0.0570  0.0675
   17SAPC   H2X 2171   2.220   1.002  10.092 -1.1187  0.6788  2.0278
   17SAPC   H2Y 2172   2.288   1.171  10.081  1.6437 -0.8100 -0.7817
   17SAPC   C23 2173   1.763   1.364   9.626  0.4814 -0.3787  1.0697
   17SAPC   H3R 2174   1.850   1.432   9.624 -0.2484  0.5611  0.4473
   17SAPC   H3S 2175   1.679   1.434   9.608  0.3764 -0.5567  0.8547
   17SAPC   C24 2176   1.787   1.267   9.504 -0.1780  0.0561 -0.4184
   17SAPC   H4R 2177   1.720   1.180   9.521 -1.2662  0.5647 -1.8156
   17SAPC   H4S 2178   1.897   1.253   9.499  0.0255  1.6341 -0.9874
   17SAPC   C25 2179   1.741   1.336   9.375  0.0769 -0.2656 -0.1164
   17SAPC   H5R 2180   1.635   1.366   9.378  0.4228  1.3401 -2.2227
   17SAPC   C26 2181   1.817   1.353   9.268 -1.0012 -0.1012  0.5788
   17SAPC   H6R 2182   1.762   1.395   9.183 -0.5573  0.1613  0.4207
   17SAPC   C27 2183   1.962   1.316   9.240 -0.6439 -0.3131  0.0848
   17SAPC   H7R 2184   1.965   1.209   9.210  0.0030 -0.1390 -0.5014
   17SAPC   H7S 2185   2.023   1.317   9.333  1.4710  1.0027 -1.2361
   17SAPC   C28 2186   2.020   1.417   9.143  0.1258  0.2567  0.1660
   17SAPC   H8R 2187   2.069   1.506   9.187  2.2564 -1.6341  1.8628
   17SAPC   C29 2188   2.020   1.396   9.011  0.1696 -0.5242  0.2284
   17SAPC   H9R 2189   2.053   1.473   8.940  2.1526 -2.2947 -0.8801
   17SAPC  C210 2190   1.951   1.282   8.944  0.2128 -0.2908  0.0007
   17SAPC  H10R 2191   1.931   1.316   8.840  1.9235  1.1315  0.0829
   17SAPC  H10S 2192   1.847   1.268   8.981 -0.5877  1.1133 -1.6161
   17SAPC  C211 2193   2.035   1.162   8.927  0.3412  0.3043  0.9150
   17SAPC  H11R 2194   2.144   1.177   8.927  0.4644  0.6652 -3.3310
   17SAPC  C212 2195   1.989   1.036   8.910  0.2738  0.4140 -0.2337
   17SAPC  H12R 2196   2.058   0.951   8.900 -1.2556 -0.9872  0.4817
   17SAPC  C213 2197   1.843   0.975   8.902  0.1488 -0.1558  0.1915
   17SAPC  H13R 2198   1.847   0.866   8.881 -0.6953 -0.4350  1.3786
   17SAPC  H13S 2199   1.798   1.010   8.807 -2.6604  1.2800  1.9027
   17SAPC  C214 2200   1.756   1.010   9.019 -0.0967 -0.2025 -0.2973
   17SAPC  H14R 2201   1.682   1.088   9.000 -0.8353 -0.3451  1.6810
   17SAPC  C215 2202   1.764   0.950   9.143  0.7558 -0.1522 -0.1418
   17SAPC  H15R 2203   1.692   0.983   9.219  0.9065 -0.4427  0.1299
   17SAPC  C216 2204   1.840   0.829   9.177 -0.3898 -0.3200 -0.1892
   17SAPC  H16R 2205   1.943   0.868   9.191 -1.2902  2.7531 -1.2756
   17SAPC  H16S 2206   1.853   0.753   9.097 -0.4433 -0.7420  0.1927
   17SAPC  C217 2207   1.786   0.763   9.315  0.0719  0.2156 -0.1897
   17SAPC  H17R 2208   1.841   0.667   9.321  3.2822  1.7333 -1.9879
   17SAPC  H17S 2209   1.679   0.740   9.301  0.1353  0.0614 -0.4244
   17SAPC  C218 2210   1.806   0.849   9.443  0.2960 -0.3334  0.2830
   17SAPC  H18R 2211   1.714   0.909   9.458 -0.7422 -1.2617 -1.9280
   17SAPC  H18S 2212   1.892   0.917   9.421 -0.7548  0.4595 -1.7047
   17SAPC  C219 2213   1.811   0.760   9.567 -0.4780 -0.0802 -0.1773
   17SAPC  H19R 2214   1.887   0.679   9.558 -0.7194 -0.2655 -0.5548
   17SAPC  H19S 2215   1.710   0.715   9.574 -0.5036 -0.8027 -3.5860
   17SAPC  C220 2216   1.875   0.841   9.688  0.0072  0.7582  0.1932
   17SAPC  H20R 2217   1.965   0.899   9.656  0.2997  0.2531  0.0825
   17SAPC  H20S 2218   1.907   0.767   9.764 -0.7343  0.9049  0.6504
   17SAPC  H20T 2219   1.799   0.907   9.734 -0.3207  0.7870 -0.3842
   17SAPC   C33 2220   2.235   1.081   9.889  0.7403 -0.0710 -0.3771
   17SAPC   H3X 2221   2.166   1.007   9.843  1.1894  0.8337 -2.6819
   17SAPC   H3Y 2222   2.341   1.052   9.874  1.0923  1.3024 -0.6589
   17SAPC   C34 2223   2.221   1.215   9.802  0.3542  0.3411 -0.2547
   17SAPC   H4X 2224   2.313   1.277   9.808  1.0595 -0.5772 -1.2590
   17SAPC   H4Y 2225   2.138   1.282   9.835 -2.2055 -3.4517  1.7030
   17SAPC   C35 2226   2.193   1.200   9.650  0.2896 -0.1322 -0.2987
   17SAPC   H5X 2227   2.189   1.302   9.607  1.9513 -1.0174 -2.7807
   17SAPC   H5Y 2228   2.097   1.147   9.633 -1.4359  2.6883  0.0120
   17SAPC   C36 2229   2.292   1.123   9.575 -0.2446 -0.5887 -0.0017
   17SAPC   H6X 2230   2.286   1.019   9.614 -0.2134  0.2180  2.2565
   17SAPC   H6Y 2231   2.385   1.173   9.608 -0.5786 -1.1869  1.9468
   17SAPC   C37 2232   2.283   1.134   9.417  1.0935 -0.4511 -0.9165
   17SAPC   H7X 2233   2.273   1.240   9.388  0.5022  0.2004  1.4624
   17SAPC   H7Y 2234   2.196   1.079   9.377  0.1532  0.4319 -0.1290
   17SAPC   C38 2235   2.404   1.094   9.338 -0.3503  0.5715  0.4824
   17SAPC   H8X 2236   2.424   0.988   9.365 -0.2823  1.0169  2.2818
   17SAPC   H8Y 2237   2.490   1.153   9.376  0.2870  1.9819 -2.7863
   17SAPC   C39 2238   2.386   1.112   9.188 -0.6885 -0.0249  0.2196
   17SAPC   H9X 2239   2.375   1.221   9.167 -1.2869 -0.2624 -0.7906
   17SAPC   H9Y 2240   2.291   1.056   9.171  0.2345 -2.0109  1.2980
   17SAPC  C310 2241   2.502   1.046   9.119  0.7854 -0.5969 -0.3646
   17SAPC  H10X 2242   2.528   0.944   9.153  1.7641 -1.0021 -2.1757
   17SAPC  H10Y 2243   2.588   1.110   9.146  0.4775 -0.5717  0.5672
   17SAPC  C311 2244   2.480   1.037   8.967  0.1234 -0.6346  0.1319
   17SAPC  H11X 2245   2.573   1.005   8.916  0.4156 -0.1312  0.3430
   17SAPC  H11Y 2246   2.461   1.141   8.931 -1.1878  0.2470  3.0083
   17SAPC  C312 2247   2.380   0.929   8.918 -0.0699 -0.5315  0.4562
   17SAPC  H12X 2248   2.283   0.961   8.961 -0.8282 -2.2923  0.1192
   17SAPC  H12Y 2249   2.408   0.836   8.973  0.4989 -0.4082  0.3828
   17SAPC  C313 2250   2.384   0.892   8.769 -0.2040  0.0971 -0.3053
   17SAPC  H13X 2251   2.483   0.844   8.758  0.0793  0.6638 -0.2809
   17SAPC  H13Y 2252   2.375   0.991   8.719 -0.6999 -0.2187 -0.8533
   17SAPC  C314 2253   2.274   0.793   8.714 -1.2135  0.0075 -0.1559
   17SAPC  H14X 2254   2.177   0.834   8.750 -2.3038 -0.8075 -2.0229
   17SAPC  H14Y 2255   2.296   0.696   8.762  0.8376  0.7871  0.5880
   17SAPC  C315 2256   2.285   0.764   8.569  0.2274 -0.4021  0.2726
   17SAPC  H15X 2257   2.378   0.705   8.556 -0.1148 -1.4004  2.0614
   17SAPC  H15Y 2258   2.296   0.860   8.514 -2.3640  0.6397  1.3713
   17SAPC  C316 2259   2.168   0.677   8.510  0.2475 -0.3997 -0.1750
   17SAPC  H16X 2260   2.146   0.600   8.586 -3.0587 -0.6722 -1.2600
   17SAPC  H16Y 2261   2.201   0.613   8.425  0.6617 -0.2884 -0.0991
   17SAPC  C317 2262   2.038   0.759   8.461 -0.3814 -0.2658 -0.1269
   17SAPC  H17X 2263   1.977   0.682   8.409  2.1605 -1.5202 -1.4627
   17SAPC  H17Y 2264   2.072   0.824   8.378 -0.4732 -1.0363 -0.7796
   17SAPC  C318 2265   1.963   0.836   8.572 -0.0752  0.1770 -0.0049
   17SAPC  H18X 2266   1.919   0.768   8.648 -0.0648  0.5171  0.3080
   17SAPC  H18Y 2267   2.034   0.906   8.621  0.9343  0.0017 -1.1753
   17SAPC  H18Z 2268   1.880   0.898   8.532  1.5736  3.1325  0.9150
   18SAPC     N 2269   1.917   0.757  10.912  0.1229  0.2710  0.0411
   18SAPC   C12 2270   1.943   0.871  10.807 -0.9118 -0.1774 -0.2663
   18SAPC  H12A 2271   2.009   0.944  10.851  0.2788 -0.4876 -1.4464
   18SAPC  H12B 2272   1.847   0.921  10.799 -1.3717 -0.7443  1.2893
   18SAPC   C13 2273   1.850   0.819  11.033  0.2270 -0.2498 -0.8795
   18SAPC  H13A 2274   1.760   0.869  11.001 -1.0397 -1.7882  0.1126
   18SAPC  H13B 2275   1.813   0.734  11.088 -0.2560 -0.0534 -0.8991
   18SAPC  H13C 2276   1.914   0.889  11.086 -0.1708  0.3816 -1.2303
   18SAPC   C14 2277   1.826   0.655  10.853 -0.3057  0.2622  0.2013
   18SAPC  H14A 2278   1.731   0.686  10.811 -0.0907 -0.4213 -0.8250
   18SAPC  H14B 2279   1.876   0.614  10.766 -2.5542 -1.5426 -0.3208
   18SAPC  H14C 2280   1.812   0.574  10.922 -0.3175 -0.0021 -0.1120
   18SAPC   C15 2281   2.049   0.699  10.956 -0.2500  0.4627 -0.5021
   18SAPC  H15A 2282   2.024   0.613  11.017  1.0519  0.3199 -0.1411
   18SAPC  H15B 2283   2.106   0.656  10.875 -0.6540 -3.0657  0.8822
   18SAPC  H15C 2284   2.119   0.754  11.018  1.2499 -0.6587 -1.1190
   18SAPC   C11 2285   2.011   0.828  10.677 -0.0483 -0.1189 -0.4434
   18SAPC  H11A 2286   2.103   0.769  10.696  0.8015  1.1655 -0.4756
   18SAPC  H11B 2287   2.038   0.921  10.623 -2.4413 -0.2243 -1.9844
   18SAPC     P 2288   1.805   0.806  10.513  0.1827  0.2857  0.1604
   18SAPC   O13 2289   1.682   0.716  10.501 -0.2184 -0.3931  0.1144
   18SAPC   O14 2290   1.785   0.948  10.558 -0.5363 -0.2421 -0.0271
   18SAPC   O12 2291   1.924   0.742  10.599  0.4168  0.1471 -0.3706
   18SAPC   O11 2292   1.881   0.803  10.369  0.8370 -0.2619  0.7331
   18SAPC    C1 2293   1.957   0.686  10.319 -0.8630 -0.4375 -0.2508
   18SAPC    HA 2294   2.042   0.723  10.259 -1.6217 -0.2095 -1.2113
   18SAPC    HB 2295   1.989   0.619  10.402 -0.8656  2.1739  2.0397
   18SAPC    C2 2296   1.880   0.592  10.222 -0.2583 -0.1643  0.5891
   18SAPC    HS 2297   1.824   0.522  10.288 -1.1453 -0.4425 -0.4344
   18SAPC   O21 2298   1.981   0.516  10.145  0.0981  0.6566 -1.1613
   18SAPC   C21 2299   1.959   0.383  10.119 -0.5467 -1.0504  0.7739
   18SAPC   O22 2300   1.856   0.322  10.130  0.3113 -0.5052  0.0202
   18SAPC   C22 2301   2.082   0.323  10.054 -0.0206 -0.3696  0.9058
   18SAPC   H2R 2302   2.182   0.358  10.088  1.8133 -3.7597 -0.5043
   18SAPC   H2S 2303   2.078   0.215  10.083  2.7492 -0.3455  1.6327
   18SAPC    C3 2304   1.783   0.665  10.133  0.2144  0.2443  0.3255
   18SAPC    HX 2305   1.842   0.748  10.089  0.6022 -0.5382 -0.6809
   18SAPC    HY 2306   1.708   0.710  10.202  0.9645  0.6450  0.8885
   18SAPC   O31 2307   1.714   0.590  10.027 -0.0613 -0.4053 -0.2312
   18SAPC   C31 2308   1.615   0.519  10.069 -0.4785  0.8896  0.3678
   18SAPC   O32 2309   1.566   0.507  10.182  1.2187 -0.4698 -0.3299
   18SAPC   C32 2310   1.569   0.425   9.951 -0.4306 -0.3974  0.5678
   18SAPC   H2X 2311   1.634   0.336   9.960  1.2144  0.8005  0.9944
   18SAPC   H2Y 2312   1.589   0.471   9.852 -1.5218 -1.3137 -0.1064
   18SAPC   C23 2313   2.063   0.351   9.905 -0.3123 -0.8359  0.4166
   18SAPC   H3R 2314   2.162   0.347   9.853  0.5963  1.6733  1.7997
   18SAPC   H3S 2315   2.043   0.459   9.891 -1.1198 -1.2711 -2.5530
   18SAPC   C24 2316   1.964   0.265   9.827  0.7795  0.3708  0.4559
   18SAPC   H4R 2317   1.861   0.296   9.856  0.1634 -1.8347  0.8326
   18SAPC   H4S 2318   1.970   0.169   9.882  0.1612  0.2096  0.2475
   18SAPC   C25 2319   1.988   0.249   9.681  0.0459 -0.3576  0.7853
   18SAPC   H5R 2320   2.085   0.200   9.664 -0.7460 -1.1577 -1.9340
   18SAPC   C26 2321   1.904   0.296   9.585 -0.2274  0.4322  0.6336
   18SAPC   H6R 2322   1.942   0.307   9.483 -2.7900 -0.4167 -0.4921
   18SAPC   C27 2323   1.777   0.371   9.600  0.2781  0.0727 -0.5150
   18SAPC   H7R 2324   1.791   0.459   9.535  1.9316  0.6210  0.5323
   18SAPC   H7S 2325   1.765   0.404   9.706  1.3500 -0.7662 -0.1120
   18SAPC   C28 2326   1.668   0.286   9.541 -0.2187  0.3958 -0.1613
   18SAPC   H8R 2327   1.668   0.183   9.580  0.5371 -0.0406 -1.2629
   18SAPC   C29 2328   1.567   0.316   9.459  0.3985 -0.0205  0.5672
   18SAPC   H9R 2329   1.486   0.244   9.437 -0.3894  1.0233 -0.0379
   18SAPC  C210 2330   1.552   0.446   9.387 -0.2591  0.2816  1.5848
   18SAPC  H10R 2331   1.599   0.445   9.286 -1.0166  0.1402  1.2194
   18SAPC  H10S 2332   1.607   0.533   9.429 -1.2178  1.8915 -0.2903
   18SAPC  C211 2333   1.401   0.483   9.370  0.0091 -0.3738 -1.1806
   18SAPC  H11R 2334   1.347   0.492   9.465  0.3579 -2.2193 -0.7692
   18SAPC  C212 2335   1.336   0.505   9.258  0.9863 -0.2125 -0.5302
   18SAPC  H12R 2336   1.226   0.513   9.265  0.8321 -2.2023 -0.2813
   18SAPC  C213 2337   1.382   0.494   9.114 -0.2809  0.6215  0.5594
   18SAPC  H13R 2338   1.287   0.504   9.057 -2.1968 -0.2904  3.3562
   18SAPC  H13S 2339   1.418   0.392   9.090 -2.6371 -0.3325  0.7659
   18SAPC  C214 2340   1.475   0.608   9.076 -0.4900 -0.2855  0.3000
   18SAPC  H14R 2341   1.453   0.705   9.123 -2.2552 -1.0691  1.1985
   18SAPC  C215 2342   1.579   0.603   8.993 -0.2441  0.3424  0.1792
   18SAPC  H15R 2343   1.644   0.691   8.980  1.7913 -1.0128  0.6789
   18SAPC  C216 2344   1.627   0.482   8.917 -0.5410 -0.9227 -0.1194
   18SAPC  H16R 2345   1.547   0.406   8.923 -2.1563  0.7983  1.8696
   18SAPC  H16S 2346   1.718   0.435   8.958 -1.5864 -1.7715  1.3040
   18SAPC  C217 2347   1.655   0.516   8.768 -0.0908  0.2584 -0.0558
   18SAPC  H17R 2348   1.737   0.591   8.771  0.1443  0.0078 -0.1930
   18SAPC  H17S 2349   1.559   0.562   8.735 -0.9061 -0.1791  1.5618
   18SAPC  C218 2350   1.681   0.396   8.677 -0.0363 -0.4518  0.0801
   18SAPC  H18R 2351   1.589   0.334   8.664  0.9588 -2.1014  0.6291
   18SAPC  H18S 2352   1.761   0.331   8.718 -2.1418 -1.3358  3.1668
   18SAPC  C219 2353   1.720   0.444   8.541  0.3795  0.0206 -0.0564
   18SAPC  H19R 2354   1.680   0.546   8.522  0.9695  0.1572 -0.6187
   18SAPC  H19S 2355   1.684   0.368   8.468 -1.1988  0.8785 -0.2200
   18SAPC  C220 2356   1.866   0.442   8.516 -0.8596  0.0202  0.5407
   18SAPC  H20R 2357   1.917   0.527   8.568  4.0110 -2.0977 -0.1845
   18SAPC  H20S 2358   1.893   0.446   8.408 -3.1471  3.6492 -0.0567
   18SAPC  H20T 2359   1.896   0.340   8.547 -3.1652 -0.8507  0.1095
   18SAPC   C33 2360   1.419   0.388   9.946  0.2784  0.4267 -0.1646
   18SAPC   H3X 2361   1.360   0.481   9.962  0.7151  0.6933 -0.0893
   18SAPC   H3Y 2362   1.403   0.314  10.027  0.5998 -1.0856 -1.4379
   18SAPC   C34 2363   1.370   0.321   9.811  0.0816 -0.2203 -0.4069
   18SAPC   H4X 2364   1.436   0.234   9.793  0.2942 -0.6014  1.8797
   18SAPC   H4Y 2365   1.380   0.386   9.721 -0.3557  0.1812 -0.1716
   18SAPC   C35 2366   1.229   0.261   9.816 -0.1892  0.2207  0.4682
   18SAPC   H5X 2367   1.159   0.342   9.847 -0.8138 -0.3021  0.4540
   18SAPC   H5Y 2368   1.227   0.190   9.901  0.7382 -0.2683  0.0973
   18SAPC   C36 2369   1.184   0.197   9.684  0.0937 -0.4191 -0.0361
   18SAPC   H6X 2370   1.175   0.284   9.615  1.0655  0.2421  0.6409
   18SAPC   H6Y 2371   1.086   0.148   9.701 -0.2821  0.1867 -0.3840
   18SAPC   C37 2372   1.275   0.098   9.611  0.1690  0.3063  0.4030
   18SAPC   H7X 2373   1.316   0.019   9.678 -0.6278 -1.1485 -0.7815
   18SAPC   H7Y 2374   1.356   0.162   9.570  0.3037  1.6735  2.5750
   18SAPC   C38 2375   1.191   0.029   9.495  0.5214  0.0124 -0.2174
   18SAPC   H8X 2376   1.096  -0.013   9.534  1.3454 -1.0610  0.7008
   18SAPC   H8Y 2377   1.243  -0.061   9.453  1.3915  0.7667 -0.8055
   18SAPC   C39 2378   1.174   0.121   9.366  0.4865  0.0515  0.2872
   18SAPC   H9X 2379   1.275   0.155   9.335  0.4333  0.1892  0.2628
   18SAPC   H9Y 2380   1.107   0.209   9.377  0.2933 -0.0249 -0.2748
   18SAPC  C310 2381   1.107   0.034   9.252 -0.8930 -0.0429  0.1953
   18SAPC  H10X 2382   1.012   0.005   9.301 -0.5253  0.7425  1.4303
   18SAPC  H10Y 2383   1.166  -0.059   9.243  0.2595  0.4168  2.4102
   18SAPC  C311 2384   1.100   0.102   9.117  1.2167 -0.5468  0.0387
   18SAPC  H11X 2385   1.205   0.131   9.099  0.6666  0.7757 -1.1804
   18SAPC  H11Y 2386   1.046   0.199   9.118 -0.1993 -1.2115 -2.8294
   18SAPC  C312 2387   1.021   0.017   9.016  0.6855  0.3206 -0.5513
   18SAPC  H12X 2388   0.917   0.008   9.053  0.9548 -0.5544  0.0078
   18SAPC  H12Y 2389   1.073  -0.081   9.014  0.6257  0.1472  2.4447
   18SAPC  C313 2390   1.001   0.069   8.871  0.1657 -0.1494  0.1648
   18SAPC  H13X 2391   1.103   0.077   8.828  1.6147 -1.2633  3.1384
   18SAPC  H13Y 2392   0.952   0.169   8.868  0.9957  0.2577 -0.1152
   18SAPC  C314 2393   0.919  -0.028   8.788  0.3562  0.2409  0.0283
   18SAPC  H14X 2394   0.836  -0.065   8.852  2.3140 -2.1663  1.3283
   18SAPC  H14Y 2395   0.996  -0.107   8.775 -0.3613 -0.5279  0.3868
   18SAPC  C315 2396   0.868   0.018   8.655  0.1684 -0.0664  0.1550
   18SAPC  H15X 2397   0.944   0.067   8.590 -1.7135  3.1419  0.1817
   18SAPC  H15Y 2398   0.786   0.090   8.678 -0.4052 -0.3726 -0.8600
   18SAPC  C316 2399   0.809  -0.104   8.580  0.1232 -0.6142 -0.4896
   18SAPC  H16X 2400   0.733  -0.139   8.652 -0.2221 -1.7697 -1.3831
   18SAPC  H16Y 2401   0.874  -0.194   8.569 -0.2790 -1.0737  0.6925
   18SAPC  C317 2402   0.761  -0.056   8.447 -0.2592 -0.3556 -0.2908
   18SAPC  H17X 2403   0.851  -0.018   8.395  1.2600 -0.1717  2.2692
   18SAPC  H17Y 2404   0.693   0.032   8.451  0.6183  0.3054  0.8688
   18SAPC  C318 2405   0.706  -0.158   8.359  0.1296  0.3535  1.1705
   18SAPC  H18X 2406   0.607  -0.191   8.397 -1.3249  1.3603 -1.4883
   18SAPC  H18Y 2407   0.779  -0.241   8.345  0.1828  0.5291  0.4120
   18SAPC  H18Z 2408   0.675  -0.103   8.268 -1.5611 -2.1527  0.1176
   19SAPC     N 2409   1.507   0.979  10.323  0.3673 -0.3256  1.0717
   19SAPC   C12 2410   1.507   1.024  10.471 -0.1803  0.9671 -0.2201
   19SAPC  H12A 2411   1.537   1.128  10.478  0.8692  0.5738  2.2990
   19SAPC  H12B 2412   1.584   0.962  10.515 -0.5764 -0.2552 -1.2024
   19SAPC   C13 2413   1.460   0.835  10.313  0.3612  0.2596  0.2414
   19SAPC  H13A 2414   1.371   0.824  10.374  0.9261  0.2341  1.0763
   19SAPC  H13B 2415   1.440   0.801  10.212  1.2666 -0.5437  0.3199
   19SAPC  H13C 2416   1.532   0.768  10.357  0.9046 -0.6863 -1.9581
   19SAPC   C14 2417   1.404   1.050  10.238  0.5467  0.2415 -0.1538
   19SAPC  H14A 2418   1.431   1.151  10.208  1.1118 -0.4696 -2.2193
   19SAPC  H14B 2419   1.386   0.996  10.146 -4.8729  1.1546  0.0604
   19SAPC  H14C 2420   1.315   1.050  10.299  1.6167 -0.5460  1.4591
   19SAPC   C15 2421   1.643   1.006  10.265  0.0252 -0.4977 -0.0299
   19SAPC  H15A 2422   1.723   0.976  10.331 -1.0707 -0.0357  1.5641
   19SAPC  H15B 2423   1.652   0.972  10.163 -0.5656 -0.6862 -0.0263
   19SAPC  H15C 2424   1.658   1.113  10.262 -0.2035 -0.4751 -0.3452
   19SAPC   C11 2425   1.370   1.008  10.543 -0.0985  0.0914  0.3812
   19SAPC  H11A 2426   1.394   1.039  10.647 -0.4833 -1.2693  0.8895
   19SAPC  H11B 2427   1.331   0.905  10.542 -0.3552  0.1868 -0.8018
   19SAPC     P 2428   1.120   1.097  10.496  0.2480 -0.0023  0.1219
   19SAPC   O13 2429   1.081   1.044  10.627  0.3177  0.2340  0.0837
   19SAPC   O14 2430   1.058   1.221  10.450 -0.5610  0.0587  0.1737
   19SAPC   O12 2431   1.276   1.102  10.489  0.4696 -0.3196 -0.1330
   19SAPC   O11 2432   1.087   0.987  10.391  0.0852  0.3139 -0.4190
   19SAPC    C1 2433   0.961   0.966  10.331  0.1204 -0.1860 -0.0897
   19SAPC    HA 2434   0.947   0.856  10.327  0.1933 -0.2304  0.7631
   19SAPC    HB 2435   0.881   1.005  10.396  1.0046  0.2689  0.7520
   19SAPC    C2 2436   0.947   1.045  10.195 -0.1635  0.7249  0.7087
   19SAPC    HS 2437   0.945   1.156  10.208 -0.2696  0.8377 -0.1970
   19SAPC   O21 2438   0.830   1.000  10.127 -0.1072 -0.1274 -0.4641
   19SAPC   C21 2439   0.730   1.083  10.128  0.7829 -0.0441 -0.0023
   19SAPC   O22 2440   0.715   1.187  10.192 -0.2005  0.9144 -0.9190
   19SAPC   C22 2441   0.631   1.038  10.020  0.4211 -0.2974  0.0607
   19SAPC   H2R 2442   0.586   0.946  10.062 -0.7882  0.2651  0.0451
   19SAPC   H2S 2443   0.542   1.104  10.019 -1.8739 -3.0411  3.0539
   19SAPC    C3 2444   1.066   1.029  10.100 -0.3026  0.6908 -0.0134
   19SAPC    HX 2445   1.073   0.921  10.075 -0.0216  0.1902  2.0821
   19SAPC    HY 2446   1.151   1.059  10.164 -0.2651  0.5646 -0.0038
   19SAPC   O31 2447   1.054   1.107   9.981 -0.1906 -0.2920 -0.4798
   19SAPC   C31 2448   1.151   1.196   9.952  0.6120 -0.1929 -0.2808
   19SAPC   O32 2449   1.260   1.197  10.005  0.0783  0.0145 -0.0341
   19SAPC   C32 2450   1.106   1.295   9.844  0.4113  0.3328 -0.0752
   19SAPC   H2X 2451   1.074   1.387   9.897 -1.7742 -0.5440  0.2349
   19SAPC   H2Y 2452   1.026   1.244   9.786  3.1866 -1.8727 -2.3094
   19SAPC   C23 2453   0.697   1.002   9.884 -0.2176 -0.2295  0.5119
   19SAPC   H3R 2454   0.763   0.914   9.904 -1.4947 -1.3104  0.1610
   19SAPC   H3S 2455   0.753   1.096   9.865 -3.3396  1.7756  0.6060
   19SAPC   C24 2456   0.597   0.974   9.773  0.2644  0.3418  0.7119
   19SAPC   H4R 2457   0.528   0.891   9.803 -0.4807  0.3960 -0.7413
   19SAPC   H4S 2458   0.648   0.908   9.700 -2.3136  0.9160 -1.8170
   19SAPC   C25 2459   0.529   1.088   9.699  0.0030 -0.2782 -0.5857
   19SAPC   H5R 2460   0.467   1.154   9.762  0.7492 -2.2804  2.4519
   19SAPC   C26 2461   0.541   1.109   9.566  0.9349 -0.0370 -0.1804
   19SAPC   H6R 2462   0.487   1.199   9.530 -1.3837  0.0212  3.0250
   19SAPC   C27 2463   0.622   1.021   9.475  0.3546 -0.4283  0.7117
   19SAPC   H7R 2464   0.581   0.928   9.431 -0.5418  0.8240 -1.2403
   19SAPC   H7S 2465   0.715   0.987   9.525  1.3350  1.3237  0.1799
   19SAPC   C28 2466   0.663   1.099   9.345 -0.6172 -0.0202  0.7872
   19SAPC   H8R 2467   0.601   1.085   9.255  1.1404  2.0886 -0.8309
   19SAPC   C29 2468   0.773   1.175   9.326 -0.7810  0.0527  0.0912
   19SAPC   H9R 2469   0.792   1.219   9.227  0.2434 -0.0932  0.2067
   19SAPC  C210 2470   0.881   1.208   9.429 -0.2300  0.5678 -0.4114
   19SAPC  H10R 2471   0.978   1.164   9.398 -0.6641 -2.3874  1.9370
   19SAPC  H10S 2472   0.864   1.150   9.522 -1.5183  1.2095 -0.2296
   19SAPC  C211 2473   0.876   1.353   9.468  0.0171 -0.0395  0.5842
   19SAPC  H11R 2474   0.850   1.373   9.573 -1.1335  0.5834  0.2011
   19SAPC  C212 2475   0.895   1.460   9.387 -1.4100 -0.0639  0.5455
   19SAPC  H12R 2476   0.910   1.562   9.425  2.1805  0.4361 -1.7061
   19SAPC  C213 2477   0.937   1.433   9.241  0.8386 -0.8243 -0.2029
   19SAPC  H13R 2478   0.984   1.332   9.234  1.7918 -0.4886  0.9556
   19SAPC  H13S 2479   1.023   1.499   9.219  2.2873 -2.6417 -0.1966
   19SAPC  C214 2480   0.820   1.461   9.143 -0.3747  0.1592 -0.6525
   19SAPC  H14R 2481   0.722   1.487   9.186 -0.5406  0.3709 -1.1609
   19SAPC  C215 2482   0.842   1.450   9.009  0.0318 -0.2778 -0.2849
   19SAPC  H15R 2483   0.754   1.458   8.943 -1.2937 -2.0474  1.1765
   19SAPC  C216 2484   0.968   1.406   8.940  0.3483 -0.4173  0.0850
   19SAPC  H16R 2485   1.041   1.357   9.008  0.1395 -1.6627 -0.5636
   19SAPC  H16S 2486   1.020   1.497   8.906 -0.2806 -0.5284 -1.2220
   19SAPC  C217 2487   0.936   1.316   8.818  0.3099  0.1917 -0.6848
   19SAPC  H17R 2488   0.847   1.356   8.765 -1.3236 -0.8593  1.1037
   19SAPC  H17S 2489   0.904   1.215   8.850  0.8237 -0.1645 -1.2720
   19SAPC  C218 2490   1.045   1.297   8.717 -0.1691 -1.5943  0.5015
   19SAPC  H18R 2491   0.999   1.241   8.633 -1.1053 -2.0415  1.2901
   19SAPC  H18S 2492   1.122   1.227   8.757 -0.1152 -1.2062  1.0896
   19SAPC  C219 2493   1.123   1.429   8.668 -0.8659 -0.3165 -0.2455
   19SAPC  H19R 2494   1.190   1.394   8.587 -0.7238 -0.2478 -0.1586
   19SAPC  H19S 2495   1.177   1.479   8.751 -0.3926  0.6518 -1.1073
   19SAPC  C220 2496   1.036   1.534   8.599 -0.7430 -0.5207 -0.2138
   19SAPC  H20R 2497   1.100   1.618   8.566 -0.7265 -0.4889 -0.0996
   19SAPC  H20S 2498   0.964   1.582   8.669  0.8833  1.4838  0.1711
   19SAPC  H20T 2499   0.982   1.497   8.510  2.9313  0.0735 -2.9081
   19SAPC   C33 2500   1.218   1.321   9.743  0.7100  0.0357 -0.1240
   19SAPC   H3X 2501   1.229   1.237   9.671 -0.7512 -0.1338 -0.1743
   19SAPC   H3Y 2502   1.311   1.350   9.796 -0.4971 -1.8870  3.3258
   19SAPC   C34 2503   1.196   1.432   9.642  0.2070 -1.1546 -0.0820
   19SAPC   H4X 2504   1.195   1.535   9.683  2.4688 -0.8996 -0.5300
   19SAPC   H4Y 2505   1.109   1.426   9.573  2.7113 -0.3772 -3.5838
   19SAPC   C35 2506   1.314   1.444   9.541 -0.2656 -0.0905 -0.1881
   19SAPC   H5X 2507   1.328   1.345   9.494  2.2486 -0.4678  1.1721
   19SAPC   H5Y 2508   1.410   1.470   9.592 -0.0603  2.2568 -1.6132
   19SAPC   C36 2509   1.287   1.555   9.438 -0.3460  0.1693 -0.0165
   19SAPC   H6X 2510   1.271   1.650   9.493  0.8976  3.0788 -4.1697
   19SAPC   H6Y 2511   1.188   1.545   9.389 -1.6406 -2.0642  2.7809
   19SAPC   C37 2512   1.403   1.572   9.340 -0.2530 -1.2254  0.3858
   19SAPC   H7X 2513   1.494   1.566   9.403 -0.8502  0.2893  1.4374
   19SAPC   H7Y 2514   1.392   1.677   9.307 -1.4952 -0.9565  1.5603
   19SAPC   C38 2515   1.391   1.502   9.208  0.8424  0.1086 -0.3297
   19SAPC   H8X 2516   1.288   1.510   9.166  0.1725  0.0083  1.2296
   19SAPC   H8Y 2517   1.389   1.395   9.237  0.5270  0.2248  0.0854
   19SAPC   C39 2518   1.484   1.547   9.097 -0.2606 -0.2013 -0.3096
   19SAPC   H9X 2519   1.581   1.557   9.151 -0.7099 -1.5567  0.8096
   19SAPC   H9Y 2520   1.455   1.649   9.066  1.2128 -0.3401 -2.3625
   19SAPC  C310 2521   1.505   1.456   8.967 -0.1898 -0.2574 -0.4173
   19SAPC  H10X 2522   1.402   1.434   8.931 -1.2392  0.2978  2.0304
   19SAPC  H10Y 2523   1.544   1.361   9.008  0.8141  0.1869 -0.3092
   19SAPC  C311 2524   1.601   1.534   8.877 -0.1745 -0.0115 -0.4951
   19SAPC  H11X 2525   1.683   1.571   8.943 -1.2478 -1.1147  1.5221
   19SAPC  H11Y 2526   1.539   1.613   8.828 -0.5455  0.1269  0.1904
   19SAPC  C312 2527   1.661   1.452   8.765 -0.4945  0.5969 -0.0400
   19SAPC  H12X 2528   1.699   1.368   8.827  1.3922  1.4387 -0.0016
   19SAPC  H12Y 2529   1.739   1.507   8.708  0.1621 -0.4691 -0.1986
   19SAPC  C313 2530   1.552   1.413   8.661 -1.2951  0.2227 -0.0684
   19SAPC  H13X 2531   1.524   1.498   8.595 -2.8964  0.4188  0.8054
   19SAPC  H13Y 2532   1.463   1.368   8.710 -1.6095 -1.3903 -2.0157
   19SAPC  C314 2533   1.627   1.314   8.566  0.6071  0.7953 -0.3394
   19SAPC  H14X 2534   1.678   1.230   8.618  1.0973 -1.0672 -3.6023
   19SAPC  H14Y 2535   1.714   1.361   8.516  1.9257 -2.0747 -0.9109
   19SAPC  C315 2536   1.532   1.250   8.462 -0.0825  0.2769  0.0546
   19SAPC  H15X 2537   1.439   1.213   8.509 -0.2181  0.3854 -0.1238
   19SAPC  H15Y 2538   1.580   1.160   8.419 -1.8716  0.0963 -1.7129
   19SAPC  C316 2539   1.500   1.341   8.351  0.6640  0.0701  0.3205
   19SAPC  H16X 2540   1.590   1.375   8.296  0.8244 -2.9513 -1.5493
   19SAPC  H16Y 2541   1.436   1.423   8.389  3.2982  2.3677  0.0495
   19SAPC  C317 2542   1.416   1.288   8.240  0.0797  1.1400 -0.1098
   19SAPC  H17X 2543   1.323   1.258   8.293  1.8228 -2.7261  1.1596
   19SAPC  H17Y 2544   1.468   1.207   8.184 -0.9761  1.7332 -2.0075
   19SAPC  C318 2545   1.369   1.397   8.144 -0.1805 -0.4275  0.1167
   19SAPC  H18X 2546   1.305   1.359   8.061 -1.8241  0.6487  0.8241
   19SAPC  H18Y 2547   1.453   1.449   8.093 -1.0034 -0.1039 -0.9655
   19SAPC  H18Z 2548   1.312   1.477   8.196  2.0791 -0.0016  2.0911
   20SAPC     N 2549   6.809   6.830  11.170  0.2336  0.7012 -0.5028
   20SAPC   C12 2550   6.829   6.785  11.022  0.4284 -0.3098 -0.2229
   20SAPC  H12A 2551   6.753   6.834  10.963 -0.3428 -1.0994  0.0883
   20SAPC  H12B 2552   6.836   6.678  11.007 -0.9497 -0.6864  1.5536
   20SAPC   C13 2553   6.801   6.977  11.178 -0.2056 -0.7968 -0.3010
   20SAPC  H13A 2554   6.844   7.006  11.273 -1.9131  0.9136  0.0104
   20SAPC  H13B 2555   6.860   7.021  11.100 -0.0754 -0.5739 -0.0778
   20SAPC  H13C 2556   6.704   7.015  11.149  0.3657 -0.1469 -1.3727
   20SAPC   C14 2557   6.676   6.789  11.224 -0.3219 -0.1350 -0.0976
   20SAPC  H14A 2558   6.659   6.682  11.227 -3.0083 -0.0224 -4.0898
   20SAPC  H14B 2559   6.662   6.836  11.320 -0.8225  2.1727 -1.2545
   20SAPC  H14C 2560   6.595   6.825  11.163  0.6274  0.5018 -1.0075
   20SAPC   C15 2561   6.921   6.785  11.251  0.3944  0.0416  0.5319
   20SAPC  H15A 2562   6.895   6.792  11.356  2.2213 -0.9367  1.1054
   20SAPC  H15B 2563   6.950   6.682  11.233  1.4104  0.1475  1.4568
   20SAPC  H15C 2564   7.015   6.836  11.233  0.1283 -0.1706 -1.6849
   20SAPC   C11 2565   6.962   6.824  10.952 -0.2777 -0.0970  1.0119
   20SAPC  H11A 2566   6.959   6.769  10.855  1.8645 -1.8422  1.8328
   20SAPC  H11B 2567   7.052   6.809  11.017  0.1298  3.6794  1.5283
   20SAPC     P 2568   6.852   7.029  10.821 -0.1921 -0.0900 -0.0241
   20SAPC   O13 2569   6.712   6.993  10.855  0.3234 -0.5772 -0.8104
   20SAPC   O14 2570   6.897   7.171  10.821  0.3252 -0.3071 -0.1633
   20SAPC   O12 2571   6.962   6.964  10.907  0.3986  0.0348 -0.2564
   20SAPC   O11 2572   6.882   6.963  10.682 -0.5226  0.9088 -0.3896
   20SAPC    C1 2573   6.883   7.047  10.564  0.0325  0.1837 -0.0285
   20SAPC    HA 2574   6.938   7.143  10.574 -1.5070  0.9967  1.0892
   20SAPC    HB 2575   6.937   6.988  10.487  1.0977  0.0173  0.8127
   20SAPC    C2 2576   6.745   7.086  10.529 -0.7928 -1.1898  0.8504
   20SAPC    HS 2577   6.708   7.152  10.611 -2.1029 -0.6338 -0.1424
   20SAPC   O21 2578   6.656   6.971  10.508  0.3800  0.1041 -0.4428
   20SAPC   C21 2579   6.527   6.999  10.507  0.0284  0.1123 -0.3607
   20SAPC   O22 2580   6.477   7.106  10.516  0.4227 -0.1846  0.0846
   20SAPC   C22 2581   6.458   6.860  10.507  0.3005  0.0549  0.0189
   20SAPC   H2R 2582   6.538   6.785  10.525  0.6805 -0.1126 -2.1122
   20SAPC   H2S 2583   6.386   6.856  10.591  1.9151 -0.0299  1.4541
   20SAPC    C3 2584   6.747   7.182  10.412 -0.2048  0.1988  0.7128
   20SAPC    HX 2585   6.792   7.280  10.440 -0.3456  0.8648 -1.2145
   20SAPC    HY 2586   6.642   7.212  10.392 -0.3926  0.0711  1.5078
   20SAPC   O31 2587   6.791   7.131  10.283 -0.0597 -0.2102 -0.4524
   20SAPC   C31 2588   6.918   7.162  10.254  0.7633  0.5108  0.1380
   20SAPC   O32 2589   6.993   7.236  10.320  0.1198 -0.3559  0.2236
   20SAPC   C32 2590   6.963   7.080  10.135 -0.4855 -0.4820 -0.0303
   20SAPC   H2X 2591   6.906   7.113  10.046  1.3082  1.8307 -0.4142
   20SAPC   H2Y 2592   6.923   6.978  10.153 -2.0242  0.1586  0.3014
   20SAPC   C23 2593   6.382   6.826  10.374 -0.4825  0.1338  0.6216
   20SAPC   H3R 2594   6.305   6.900  10.340  2.4445  2.4653 -1.5314
   20SAPC   H3S 2595   6.323   6.737  10.405 -0.6845 -0.3763 -1.1197
   20SAPC   C24 2596   6.471   6.798  10.253  0.0582 -0.2391  0.4413
   20SAPC   H4R 2597   6.429   6.736  10.171 -0.7704  1.7263 -0.6966
   20SAPC   H4S 2598   6.544   6.721  10.286  0.5098 -1.5076 -3.1194
   20SAPC   C25 2599   6.531   6.929  10.185 -0.4935  0.5097  0.0442
   20SAPC   H5R 2600   6.614   6.976  10.241 -1.3575  0.5563  1.3508
   20SAPC   C26 2601   6.493   6.969  10.057 -0.1170  0.4970 -0.6464
   20SAPC   H6R 2602   6.540   7.058  10.011  0.8246  0.9129  1.0432
   20SAPC   C27 2603   6.392   6.900   9.974  0.4179  1.6476 -0.5719
   20SAPC   H7R 2604   6.318   6.859  10.046  0.8625 -0.1913 -1.1129
   20SAPC   H7S 2605   6.432   6.805   9.934 -0.9840  0.9906 -0.4982
   20SAPC   C28 2606   6.325   6.972   9.858  0.0811  0.0217  0.2444
   20SAPC   H8R 2607   6.223   6.997   9.890  0.0448  0.2083 -0.0104
   20SAPC   C29 2608   6.366   7.003   9.734 -0.3958 -0.1977 -0.5586
   20SAPC   H9R 2609   6.294   7.057   9.671  0.2690 -0.1992 -1.3454
   20SAPC  C210 2610   6.503   6.986   9.678  0.4009  0.5419 -0.3929
   20SAPC  H10R 2611   6.502   6.912   9.595 -1.9674  1.0005 -0.8299
   20SAPC  H10S 2612   6.571   6.955   9.760 -0.4847 -0.3108  0.0373
   20SAPC  C211 2613   6.547   7.119   9.623 -0.6578  0.7151  0.6012
   20SAPC  H11R 2614   6.559   7.190   9.707  0.3865 -1.2085  2.1751
   20SAPC  C212 2615   6.567   7.157   9.495  0.1397 -1.1667 -0.8500
   20SAPC  H12R 2616   6.587   7.265   9.484  0.9623 -1.1526  0.5327
   20SAPC  C213 2617   6.560   7.063   9.375  0.4486  0.5924  0.4117
   20SAPC  H13R 2618   6.459   7.056   9.329  0.2763  2.4329  0.4084
   20SAPC  H13S 2619   6.584   6.960   9.407  0.3923  0.6158  0.5280
   20SAPC  C214 2620   6.653   7.113   9.262  0.1591  0.3082 -0.0809
   20SAPC  H14R 2621   6.758   7.080   9.267 -0.8962 -3.2940  1.1067
   20SAPC  C215 2622   6.615   7.183   9.154  0.3497 -0.5487 -0.6349
   20SAPC  H15R 2623   6.688   7.202   9.074  0.1539 -1.3944 -1.0281
   20SAPC  C216 2624   6.473   7.225   9.122 -0.4846 -0.7492 -0.1333
   20SAPC  H16R 2625   6.468   7.336   9.113 -1.7467 -0.7608  0.2998
   20SAPC  H16S 2626   6.411   7.201   9.211 -0.4859  1.4890  0.5217
   20SAPC  C217 2627   6.424   7.161   8.994  0.5470 -0.3097  0.0812
   20SAPC  H17R 2628   6.324   7.198   8.965  1.3331  0.4870 -1.8014
   20SAPC  H17S 2629   6.423   7.050   8.996 -0.6898 -0.3263 -0.5117
   20SAPC  C218 2630   6.521   7.210   8.880  0.2789 -0.0700 -0.1236
   20SAPC  H18R 2631   6.622   7.166   8.892 -0.3048 -0.9332  2.1840
   20SAPC  H18S 2632   6.529   7.319   8.898  2.1561  0.0497 -1.3644
   20SAPC  C219 2633   6.476   7.189   8.738 -0.0956 -0.1008  1.2102
   20SAPC  H19R 2634   6.555   7.225   8.669 -1.0137 -1.1664 -0.4689
   20SAPC  H19S 2635   6.388   7.249   8.707  0.4036  0.2776  0.4947
   20SAPC  C220 2636   6.448   7.044   8.717 -0.3279 -0.4423 -0.2109
   20SAPC  H20R 2637   6.533   6.975   8.735 -0.3382 -0.5496 -0.5646
   20SAPC  H20S 2638   6.418   7.032   8.611  0.2166 -2.0172 -0.2028
   20SAPC  H20T 2639   6.355   7.014   8.771  0.1689 -2.0071 -0.1847
   20SAPC   C33 2640   7.114   7.081  10.109  0.5657 -1.1896 -0.0830
   20SAPC   H3X 2641   7.180   7.071  10.198  0.9344  1.8933  0.1009
   20SAPC   H3Y 2642   7.149   7.171  10.055  0.2278 -0.1524  1.3537
   20SAPC   C34 2643   7.157   6.956  10.038 -0.4124  0.2067 -0.6848
   20SAPC   H4X 2644   7.137   6.879  10.115  1.2910  1.1394  0.7666
   20SAPC   H4Y 2645   7.266   6.967  10.019 -0.3743  0.6678 -0.2048
   20SAPC   C35 2646   7.079   6.927   9.913  0.2083  0.2005  0.0380
   20SAPC   H5X 2647   6.974   6.896   9.931  0.3192 -0.9819 -1.1639
   20SAPC   H5Y 2648   7.132   6.838   9.873 -0.6738  0.1569 -1.0686
   20SAPC   C36 2649   7.072   7.041   9.806  0.4782  0.2100 -0.3180
   20SAPC   H6X 2650   7.177   7.075   9.796 -0.0340  1.8287 -0.6146
   20SAPC   H6Y 2651   7.010   7.130   9.834 -0.5934 -0.4087 -0.6511
   20SAPC   C37 2652   7.020   6.998   9.666 -0.0370 -1.1192  0.2974
   20SAPC   H7X 2653   6.909   6.997   9.667 -0.0288 -1.4824  1.4054
   20SAPC   H7Y 2654   7.057   6.896   9.642  0.0114 -1.1812  0.6380
   20SAPC   C38 2655   7.068   7.098   9.554 -0.1290 -0.4677 -0.8272
   20SAPC   H8X 2656   7.174   7.067   9.553 -0.1020 -0.4889  0.5512
   20SAPC   H8Y 2657   7.071   7.206   9.580  2.0410 -0.3564 -1.3473
   20SAPC   C39 2658   7.005   7.081   9.413  0.1086 -0.0135  0.0470
   20SAPC   H9X 2659   6.901   7.120   9.418 -0.0117  0.8608 -4.7439
   20SAPC   H9Y 2660   7.008   6.971   9.395 -1.9831 -0.5201  2.3340
   20SAPC  C310 2661   7.085   7.169   9.320  0.0049 -0.0713  0.2066
   20SAPC  H10X 2662   7.194   7.151   9.331  0.0022  0.4985  1.3429
   20SAPC  H10Y 2663   7.066   7.277   9.339  0.9157  0.1083  0.1667
   20SAPC  C311 2664   7.049   7.135   9.171  0.2341  0.0087 -0.1715
   20SAPC  H11X 2665   6.939   7.147   9.156  0.1337 -0.6699 -0.0025
   20SAPC  H11Y 2666   7.086   7.039   9.129 -1.1337  0.6288 -3.0803
   20SAPC  C312 2667   7.102   7.245   9.081 -0.4437 -0.3555 -0.3952
   20SAPC  H12X 2668   7.213   7.246   9.081 -0.4103  0.8812 -1.9578
   20SAPC  H12Y 2669   7.055   7.343   9.101 -1.1795 -0.9595  0.9790
   20SAPC  C313 2670   7.074   7.217   8.925  0.2596  0.0674  0.0957
   20SAPC  H13X 2671   7.103   7.110   8.911 -1.8772 -0.6769  0.9370
   20SAPC  H13Y 2672   7.123   7.295   8.863 -0.7840  0.8103  0.1912
   20SAPC  C314 2673   6.925   7.223   8.908  0.0627 -0.5039 -0.1341
   20SAPC  H14X 2674   6.880   7.318   8.942 -2.4368 -1.5860 -0.2571
   20SAPC  H14Y 2675   6.870   7.139   8.955 -2.1045  0.1848 -1.2932
   20SAPC  C315 2676   6.891   7.216   8.764  0.6207  1.8403  0.2810
   20SAPC  H15X 2677   6.951   7.293   8.710  0.6964  1.9360  0.4990
   20SAPC  H15Y 2678   6.788   7.255   8.756  0.9361  2.2573 -2.5572
   20SAPC  C316 2679   6.902   7.074   8.702  0.6007 -0.1341  0.8659
   20SAPC  H16X 2680   6.844   7.008   8.770 -0.2384  0.0692  0.3640
   20SAPC  H16Y 2681   7.007   7.041   8.707  0.1256 -1.8074  0.2453
   20SAPC  C317 2682   6.846   7.079   8.562  0.2731  0.1944 -0.0340
   20SAPC  H17X 2683   6.917   7.138   8.500  0.0106 -0.3644 -0.8795
   20SAPC  H17Y 2684   6.746   7.125   8.547 -1.0355 -2.7116 -0.9590
   20SAPC  C318 2685   6.832   6.943   8.507  0.4869 -0.7820  0.5111
   20SAPC  H18X 2686   6.737   6.889   8.532 -0.8696  1.1800 -0.1354
   20SAPC  H18Y 2687   6.913   6.876   8.542  0.2063 -1.1492  0.4722
   20SAPC  H18Z 2688   6.837   6.947   8.396  0.9958 -0.9540  0.5309
   21SAPC     N 2689   6.341   5.201  11.100  0.2056  0.0126  0.0902
   21SAPC   C12 2690   6.474   5.173  11.038  0.2183  0.3466  1.4466
   21SAPC  H12A 2691   6.514   5.080  11.075  0.0913 -0.8105 -1.1094
   21SAPC  H12B 2692   6.538   5.251  11.077 -1.4267  1.3712  2.2320
   21SAPC   C13 2693   6.344   5.185  11.255 -0.5637 -0.6179  0.2637
   21SAPC  H13A 2694   6.252   5.157  11.303 -0.3978  1.8116  2.1870
   21SAPC  H13B 2695   6.418   5.113  11.286 -0.1051 -0.0252  0.5889
   21SAPC  H13C 2696   6.379   5.274  11.305 -0.9056 -0.1593 -0.2948
   21SAPC   C14 2697   6.292   5.339  11.083  0.0735  0.0826  0.3026
   21SAPC  H14A 2698   6.352   5.402  11.146  0.3118  0.2181 -0.0527
   21SAPC  H14B 2699   6.291   5.362  10.977 -1.7353 -1.7099 -0.1550
   21SAPC  H14C 2700   6.188   5.343  11.112  0.3466 -1.8267  1.7366
   21SAPC   C15 2701   6.243   5.101  11.043  0.2214  0.1218  0.3343
   21SAPC  H15A 2702   6.261   5.096  10.937 -0.5913  0.3058  0.1795
   21SAPC  H15B 2703   6.274   5.007  11.086  0.2058 -0.3797 -0.7088
   21SAPC  H15C 2704   6.138   5.101  11.071  0.0934 -0.7470 -0.1082
   21SAPC   C11 2705   6.501   5.181  10.885 -0.0500  0.1608 -0.1666
   21SAPC  H11A 2706   6.446   5.106  10.825 -1.7881  0.9796  0.3344
   21SAPC  H11B 2707   6.611   5.173  10.874 -0.1773 -1.1535 -0.5716
   21SAPC     P 2708   6.561   5.436  10.834 -0.0339 -0.2882 -0.3008
   21SAPC   O13 2709   6.478   5.562  10.838 -0.7091  0.2411  0.2101
   21SAPC   O14 2710   6.670   5.417  10.933  0.5341 -0.1160 -0.6641
   21SAPC   O12 2711   6.465   5.310  10.845  0.4777 -0.8672 -0.0562
   21SAPC   O11 2712   6.622   5.407  10.689 -0.2067 -0.3063 -0.3377
   21SAPC    C1 2713   6.559   5.325  10.590 -0.0496  0.3825 -0.2441
   21SAPC    HA 2714   6.615   5.235  10.555  0.0519  0.5533 -0.5260
   21SAPC    HB 2715   6.463   5.279  10.622 -0.0447  0.2971 -0.3523
   21SAPC    C2 2716   6.517   5.402  10.465  0.7767  0.2613 -0.4123
   21SAPC    HS 2717   6.453   5.480  10.513 -0.9482 -1.6163  0.4994
   21SAPC   O21 2718   6.440   5.315  10.385 -0.2637 -0.5694  0.7170
   21SAPC   C21 2719   6.351   5.386  10.311  0.4755  0.5514  0.4696
   21SAPC   O22 2720   6.338   5.507  10.315 -0.1755  0.3156  0.0043
   21SAPC   C22 2721   6.277   5.297  10.215 -0.7133 -0.1700  0.7820
   21SAPC   H2R 2722   6.204   5.231  10.267 -0.7665  0.6185  1.7223
   21SAPC   H2S 2723   6.201   5.356  10.160 -1.0693  2.3317  3.6860
   21SAPC    C3 2724   6.640   5.467  10.393  0.4530 -0.4782  0.0221
   21SAPC    HX 2725   6.671   5.544  10.467 -4.0923  0.5436  1.2120
   21SAPC    HY 2726   6.607   5.518  10.300 -3.5820 -2.0410  0.4105
   21SAPC   O31 2727   6.731   5.363  10.362  0.4595  0.0656  0.3524
   21SAPC   C31 2728   6.729   5.310  10.241 -0.2196 -0.1495 -0.4339
   21SAPC   O32 2729   6.668   5.354  10.143  0.4819  0.1330 -0.2147
   21SAPC   C32 2730   6.820   5.187  10.234 -0.6286 -0.0908  0.9274
   21SAPC   H2X 2731   6.798   5.116  10.317 -2.2862 -0.2061  0.4238
   21SAPC   H2Y 2732   6.921   5.228  10.256 -1.0603  0.1030  2.6987
   21SAPC   C23 2733   6.368   5.201  10.139 -0.4057  0.1020  0.8411
   21SAPC   H3R 2734   6.370   5.113  10.208 -2.1007 -0.6722 -0.0458
   21SAPC   H3S 2735   6.470   5.240  10.121 -0.5588 -0.1138 -0.5761
   21SAPC   C24 2736   6.317   5.161  10.006  0.7630 -0.2124 -0.7133
   21SAPC   H4R 2737   6.309   5.248   9.937  0.6290 -1.6381 -2.5667
   21SAPC   H4S 2738   6.219   5.110  10.018 -0.2473  1.5047 -1.2712
   21SAPC   C25 2739   6.408   5.064   9.937  0.6070 -0.1654  0.4888
   21SAPC   H5R 2740   6.420   4.970   9.993 -0.0874 -0.7770 -0.3762
   21SAPC   C26 2741   6.464   5.066   9.825 -0.7593 -0.7013  0.5449
   21SAPC   H6R 2742   6.528   4.979   9.801  2.1236  1.7807 -1.4549
   21SAPC   C27 2743   6.452   5.171   9.712  0.0488  0.5488  0.4496
   21SAPC   H7R 2744   6.537   5.171   9.641 -1.2257  1.4667 -1.1615
   21SAPC   H7S 2745   6.452   5.263   9.774  2.5477  0.0210  1.3394
   21SAPC   C28 2746   6.317   5.156   9.637 -0.3186  0.5184  0.2690
   21SAPC   H8R 2747   6.247   5.081   9.677 -0.0553 -0.5398 -1.1765
   21SAPC   C29 2748   6.297   5.217   9.519 -0.4135  0.1514 -0.1772
   21SAPC   H9R 2749   6.193   5.227   9.484 -0.4056  1.7476  0.2069
   21SAPC  C210 2750   6.393   5.307   9.450  0.6997 -0.2747  0.2812
   21SAPC  H10R 2751   6.448   5.369   9.524  2.7659 -4.4416  2.5702
   21SAPC  H10S 2752   6.337   5.383   9.392  0.5696  0.5224  1.4238
   21SAPC  C211 2753   6.495   5.233   9.368 -0.3576  0.1613  0.4409
   21SAPC  H11R 2754   6.555   5.166   9.430 -1.2716 -0.5188  0.6013
   21SAPC  C212 2755   6.530   5.251   9.234  0.1711  0.3349  0.4536
   21SAPC  H12R 2756   6.606   5.187   9.187 -0.3157  0.8105 -1.0356
   21SAPC  C213 2757   6.457   5.346   9.136 -0.6371 -0.4421  0.0820
   21SAPC  H13R 2758   6.517   5.354   9.043 -2.7782 -0.8965 -1.4138
   21SAPC  H13S 2759   6.455   5.445   9.186 -0.7725 -0.2145 -0.3636
   21SAPC  C214 2760   6.315   5.310   9.103  0.1179 -0.2684 -0.1158
   21SAPC  H14R 2761   6.249   5.299   9.191  1.3805  2.1740  1.2524
   21SAPC  C215 2762   6.253   5.273   8.993 -0.3983 -0.1370  0.0034
   21SAPC  H15R 2763   6.154   5.230   9.014 -0.2444 -0.2069  0.6049
   21SAPC  C216 2764   6.318   5.251   8.859  0.5896  0.0598 -0.0680
   21SAPC  H16R 2765   6.427   5.233   8.876  0.5852  0.6741  0.6675
   21SAPC  H16S 2766   6.295   5.336   8.791  0.9999  0.0643 -0.2073
   21SAPC  C217 2767   6.253   5.131   8.794 -0.8154 -0.0583 -0.2896
   21SAPC  H17R 2768   6.142   5.135   8.799 -0.8044 -0.8956  1.5778
   21SAPC  H17S 2769   6.273   5.044   8.861 -0.7213  1.0907  1.2144
   21SAPC  C218 2770   6.303   5.111   8.650 -0.2744 -0.2179 -0.4140
   21SAPC  H18R 2771   6.410   5.079   8.646 -0.3575 -1.1198  2.4948
   21SAPC  H18S 2772   6.299   5.210   8.599 -0.3512  2.0305  3.5937
   21SAPC  C219 2773   6.231   4.996   8.575 -0.4353  0.7859  0.7778
   21SAPC  H19R 2774   6.239   4.909   8.644 -1.2472  0.1510  0.1024
   21SAPC  H19S 2775   6.297   4.972   8.489 -0.4815 -0.7624  1.1404
   21SAPC  C220 2776   6.085   5.032   8.527 -0.2971 -0.1179 -0.1269
   21SAPC  H20R 2777   6.089   5.140   8.502 -1.7428  0.0943  0.4393
   21SAPC  H20S 2778   6.013   5.032   8.611  1.1086  0.7279  1.1150
   21SAPC  H20T 2779   6.039   4.973   8.444 -1.7208  1.1961 -0.3098
   21SAPC   C33 2780   6.813   5.108  10.106  0.2470 -0.5324 -0.0191
   21SAPC   H3X 2781   6.705   5.107  10.080  0.1685 -0.3363  0.2855
   21SAPC   H3Y 2782   6.837   5.002  10.131  0.7834 -0.4934 -0.3690
   21SAPC   C34 2783   6.904   5.173  10.005 -0.1065  0.1605  0.6515
   21SAPC   H4X 2784   7.008   5.146  10.034 -0.2723 -0.6601  0.5153
   21SAPC   H4Y 2785   6.890   5.283  10.002 -0.8166  0.0659  0.2343
   21SAPC   C35 2786   6.863   5.128   9.860 -0.2381 -0.1432 -0.8335
   21SAPC   H5X 2787   6.755   5.148   9.847  0.0049  0.6490 -1.7590
   21SAPC   H5Y 2788   6.880   5.019   9.859 -0.2230 -0.1456 -0.4384
   21SAPC   C36 2789   6.950   5.200   9.758  0.2323 -0.3839 -0.3481
   21SAPC   H6X 2790   7.059   5.197   9.776  0.4314  2.3266 -0.7198
   21SAPC   H6Y 2791   6.921   5.307   9.770 -0.9790 -0.7359  0.0067
   21SAPC   C37 2792   6.917   5.154   9.614 -0.0688  0.7011 -0.4088
   21SAPC   H7X 2793   6.811   5.180   9.596 -0.0029 -0.3621 -2.7476
   21SAPC   H7Y 2794   6.926   5.044   9.599  2.0183  0.5977  1.1642
   21SAPC   C38 2795   6.996   5.224   9.507 -0.1698 -0.8271 -0.4431
   21SAPC   H8X 2796   7.103   5.194   9.507  0.5478  1.5406 -1.2448
   21SAPC   H8Y 2797   6.996   5.332   9.530 -0.3802 -1.3384  2.3427
   21SAPC   C39 2798   6.942   5.200   9.369  0.2575  0.0391  0.8452
   21SAPC   H9X 2799   6.832   5.208   9.382  0.2755  0.1379  0.9343
   21SAPC   H9Y 2800   6.961   5.092   9.356  0.1902 -0.0259  1.2720
   21SAPC  C310 2801   6.998   5.277   9.243  0.2171  0.3695 -0.6246
   21SAPC  H10X 2802   7.108   5.265   9.232  0.3498  0.4976  0.4501
   21SAPC  H10Y 2803   6.980   5.384   9.270 -2.6406  0.3861 -2.2915
   21SAPC  C311 2804   6.917   5.236   9.119 -0.4970  0.3283 -0.2005
   21SAPC  H11X 2805   6.809   5.262   9.133 -0.1339  1.3040  0.9970
   21SAPC  H11Y 2806   6.927   5.127   9.102 -0.8848  0.0701  1.1255
   21SAPC  C312 2807   6.967   5.312   8.993  0.1092 -0.1117  0.5350
   21SAPC  H12X 2808   7.077   5.295   8.989  0.3023  1.0006  0.5893
   21SAPC  H12Y 2809   6.953   5.417   9.027  1.3875 -0.7256  3.1583
   21SAPC  C313 2810   6.900   5.280   8.867  0.3908  0.4323 -0.0172
   21SAPC  H13X 2811   6.792   5.290   8.889  0.8366  1.9017  1.8692
   21SAPC  H13Y 2812   6.921   5.180   8.824  2.5999  1.3668 -1.3021
   21SAPC  C314 2813   6.953   5.368   8.751  0.4979  0.5647 -0.1763
   21SAPC  H14X 2814   7.058   5.334   8.736  0.4247  0.0164  0.5468
   21SAPC  H14Y 2815   6.954   5.475   8.781  2.2171  0.7161 -0.6346
   21SAPC  C315 2816   6.882   5.345   8.613 -0.7005 -0.6032  0.4099
   21SAPC  H15X 2817   6.905   5.241   8.582  0.6224 -0.0559 -0.5506
   21SAPC  H15Y 2818   6.941   5.398   8.535 -0.7291 -1.0333  0.0953
   21SAPC  C316 2819   6.733   5.381   8.611 -0.6326 -0.3207 -1.7121
   21SAPC  H16X 2820   6.720   5.484   8.651 -0.2055 -1.2111  0.8787
   21SAPC  H16Y 2821   6.677   5.316   8.681  0.3638  1.9269  1.3611
   21SAPC  C317 2822   6.661   5.366   8.484  0.2289  0.4561 -0.3551
   21SAPC  H17X 2823   6.645   5.257   8.480 -1.5431  0.6229  0.8218
   21SAPC  H17Y 2824   6.715   5.411   8.398 -0.0162  1.4170 -0.0256
   21SAPC  C318 2825   6.518   5.421   8.488  0.8765  0.6056  0.1841
   21SAPC  H18X 2826   6.455   5.357   8.422  0.8102  0.9435 -0.0889
   21SAPC  H18Y 2827   6.505   5.528   8.460 -2.4052  1.0906  2.9652
   21SAPC  H18Z 2828   6.483   5.408   8.592  1.1488  1.8370  0.4493
   22SAPC     N 2829   1.456   2.919  10.666 -0.4387 -0.1095  0.0961
   22SAPC   C12 2830   1.517   2.876  10.535 -0.8361 -0.2611  0.9243
   22SAPC  H12A 2831   1.616   2.838  10.555 -0.3666 -0.6176 -1.7296
   22SAPC  H12B 2832   1.550   2.959  10.475  0.2561 -1.0265  0.4312
   22SAPC   C13 2833   1.473   2.815  10.773 -0.9879 -0.0570  0.8286
   22SAPC  H13A 2834   1.455   2.848  10.875 -3.6663  2.7190 -0.3830
   22SAPC  H13B 2835   1.416   2.730  10.741 -1.1883  0.6087 -0.6684
   22SAPC  H13C 2836   1.573   2.773  10.776 -0.5483  0.9040 -0.0197
   22SAPC   C14 2837   1.525   3.047  10.718  0.1370  0.6074 -0.5052
   22SAPC  H14A 2838   1.465   3.085  10.799 -0.8632 -1.5995 -0.1607
   22SAPC  H14B 2839   1.616   3.026  10.772 -1.3103  1.5941  2.5297
   22SAPC  H14C 2840   1.532   3.119  10.637  2.2042 -3.0009 -3.8893
   22SAPC   C15 2841   1.310   2.946  10.650  0.0112  0.2887  0.1276
   22SAPC  H15A 2842   1.272   2.970  10.749  1.5732 -0.6003  0.9753
   22SAPC  H15B 2843   1.296   3.012  10.566  1.2070  0.7115  0.2474
   22SAPC  H15C 2844   1.246   2.860  10.636 -0.6812  0.8142  0.0099
   22SAPC   C11 2845   1.443   2.781  10.440  0.7578 -0.2191  0.2117
   22SAPC  H11A 2846   1.511   2.759  10.354 -0.1213  0.9860 -0.8426
   22SAPC  H11B 2847   1.357   2.834  10.394  0.6352  1.2597  2.0660
   22SAPC     P 2848   1.257   2.613  10.518 -0.1849  0.1875  0.3428
   22SAPC   O13 2849   1.252   2.460  10.528  0.0100 -0.2552 -0.0726
   22SAPC   O14 2850   1.180   2.687  10.623 -0.2373  1.0950  0.3042
   22SAPC   O12 2851   1.403   2.661  10.504 -0.2956  0.5470 -0.3694
   22SAPC   O11 2852   1.195   2.659  10.380  0.0650 -0.5812 -0.2157
   22SAPC    C1 2853   1.254   2.621  10.253 -0.1552  0.3742  0.0393
   22SAPC    HA 2854   1.223   2.694  10.175 -1.7958  0.3158  0.5991
   22SAPC    HB 2855   1.364   2.614  10.260 -0.1940  0.9547  1.5456
   22SAPC    C2 2856   1.196   2.487  10.188  0.1028  0.3897 -0.0091
   22SAPC    HS 2857   1.233   2.402  10.250 -1.1018 -0.7739 -0.8242
   22SAPC   O21 2858   1.247   2.474  10.051 -0.1230  0.1932 -0.1576
   22SAPC   C21 2859   1.207   2.360   9.991 -0.1545 -0.7910  0.2127
   22SAPC   O22 2860   1.166   2.260  10.048  0.1999 -0.2368  0.0132
   22SAPC   C22 2861   1.206   2.382   9.845  0.3997  0.2404  0.1296
   22SAPC   H2R 2862   1.101   2.409   9.821 -0.1176 -0.6960  1.2736
   22SAPC   H2S 2863   1.282   2.458   9.814 -0.8757  0.8520 -1.6608
   22SAPC    C3 2864   1.040   2.498  10.198 -0.5149 -0.0172  0.4487
   22SAPC    HX 2865   1.007   2.530  10.300  0.8392  2.7954  0.0994
   22SAPC    HY 2866   0.988   2.400  10.191 -0.3256 -0.1692  1.0437
   22SAPC   O31 2867   0.995   2.593  10.094 -0.1560  0.3322 -0.5567
   22SAPC   C31 2868   0.899   2.682  10.123 -0.1374  0.3782 -1.0450
   22SAPC   O32 2869   0.835   2.687  10.227  0.2523  0.1092  0.7396
   22SAPC   C32 2870   0.872   2.767  10.001  0.2897 -0.4581 -0.3858
   22SAPC   H2X 2871   0.782   2.722   9.954 -2.1826  2.9357  0.7286
   22SAPC   H2Y 2872   0.956   2.754   9.928 -1.3546  0.3795 -2.5516
   22SAPC   C23 2873   1.244   2.255   9.774  0.6069 -0.4166 -0.5904
   22SAPC   H3R 2874   1.170   2.174   9.793 -0.5802  0.9177  0.7035
   22SAPC   H3S 2875   1.344   2.217   9.805  1.0282 -0.7735 -2.3145
   22SAPC   C24 2876   1.251   2.265   9.621 -0.0584 -0.8211  0.2087
   22SAPC   H4R 2877   1.146   2.257   9.587  0.5203 -1.5106 -1.5402
   22SAPC   H4S 2878   1.287   2.173   9.571 -1.2734 -1.1404 -0.1062
   22SAPC   C25 2879   1.333   2.385   9.572 -0.5578  0.6253 -0.1991
   22SAPC   H5R 2880   1.436   2.384   9.610 -0.7235  0.7317  0.2590
   22SAPC   C26 2881   1.282   2.483   9.502  0.8070  0.4151  0.4611
   22SAPC   H6R 2882   1.349   2.564   9.469  0.1991  0.1919 -1.4145
   22SAPC   C27 2883   1.133   2.501   9.458  0.4136  0.3081  0.3489
   22SAPC   H7R 2884   1.111   2.609   9.474  1.2358  0.3746  1.0690
   22SAPC   H7S 2885   1.066   2.458   9.535  1.2435 -0.7909  0.4751
   22SAPC   C28 2886   1.089   2.457   9.318  0.0082  0.2163 -1.0742
   22SAPC   H8R 2887   0.988   2.413   9.325  0.4409 -0.7126 -0.5092
   22SAPC   C29 2888   1.153   2.445   9.195 -0.4945  0.0858 -0.3284
   22SAPC   H9R 2889   1.099   2.410   9.106  2.5115 -1.3186 -1.7438
   22SAPC  C210 2890   1.300   2.497   9.173  0.3897  0.4299  0.4205
   22SAPC  H10R 2891   1.321   2.570   9.254  1.2235 -0.2854  0.8790
   22SAPC  H10S 2892   1.300   2.549   9.075  2.7966 -1.6017 -0.7530
   22SAPC  C211 2893   1.407   2.385   9.178  0.1134  0.5261  0.1612
   22SAPC  H11R 2894   1.417   2.343   9.279  1.0751 -1.0843 -0.5748
   22SAPC  C212 2895   1.464   2.334   9.064 -0.3262 -0.4688  0.7779
   22SAPC  H12R 2896   1.534   2.250   9.073 -0.1305 -0.2971  0.8764
   22SAPC  C213 2897   1.448   2.376   8.918 -0.7020 -0.0127  0.0022
   22SAPC  H13R 2898   1.543   2.360   8.862 -0.9458  0.2353 -0.4844
   22SAPC  H13S 2899   1.430   2.485   8.903  0.3950  0.2848  0.7294
   22SAPC  C214 2900   1.348   2.297   8.840  0.3766  0.3192 -0.1780
   22SAPC  H14R 2901   1.244   2.333   8.840  0.3116  0.1714  1.0747
   22SAPC  C215 2902   1.379   2.182   8.767  0.6159 -0.3630 -0.2481
   22SAPC  H15R 2903   1.298   2.122   8.721 -2.0208  2.8755 -0.2050
   22SAPC  C216 2904   1.509   2.108   8.748 -0.3795 -0.5552 -0.4380
   22SAPC  H16R 2905   1.566   2.129   8.841 -1.7848  0.0654  0.3005
   22SAPC  H16S 2906   1.560   2.151   8.659 -3.2634  4.3004 -0.0448
   22SAPC  C217 2907   1.498   1.959   8.716  0.8902 -0.4048 -0.0207
   22SAPC  H17R 2908   1.430   1.913   8.791 -1.0951  1.0092 -0.8845
   22SAPC  H17S 2909   1.597   1.910   8.733  1.0714  0.1061  0.4196
   22SAPC  C218 2910   1.439   1.918   8.587 -0.0737 -0.2046  0.2427
   22SAPC  H18R 2911   1.501   1.958   8.503 -1.7516 -0.3873 -1.1299
   22SAPC  H18S 2912   1.341   1.969   8.585  0.2730  0.7943  3.6210
   22SAPC  C219 2913   1.426   1.766   8.561 -0.6225 -0.7178 -0.4046
   22SAPC  H19R 2914   1.362   1.714   8.636 -1.3898 -0.2393 -0.7174
   22SAPC  H19S 2915   1.527   1.721   8.565 -0.3963 -0.1399  0.6576
   22SAPC  C220 2916   1.366   1.734   8.423 -0.1455  0.4776  0.0450
   22SAPC  H20R 2917   1.405   1.815   8.358  0.7396 -0.0294 -0.0707
   22SAPC  H20S 2918   1.257   1.730   8.440 -0.2480 -0.7885 -0.8083
   22SAPC  H20T 2919   1.388   1.629   8.392  1.9489  0.2350  2.0079
   22SAPC   C33 2920   0.854   2.920  10.027 -0.1337  0.5078  0.0770
   22SAPC   H3X 2921   0.907   2.957  10.118 -1.2368 -1.3002  1.5386
   22SAPC   H3Y 2922   0.748   2.932  10.058 -0.0929  0.3252  0.2953
   22SAPC   C34 2923   0.887   3.019   9.914 -1.0617 -0.4466 -1.4265
   22SAPC   H4X 2924   0.996   3.038   9.900 -0.7081 -1.1502  0.2479
   22SAPC   H4Y 2925   0.855   3.119   9.951  1.8671  0.5406 -1.2933
   22SAPC   C35 2926   0.830   2.990   9.771 -0.7715 -0.2287 -1.2434
   22SAPC   H5X 2927   0.801   3.087   9.726 -1.1760  1.2229  1.8715
   22SAPC   H5Y 2928   0.737   2.932   9.787 -0.7971  0.0356 -0.3909
   22SAPC   C36 2929   0.928   2.907   9.683  0.3632  0.2323 -0.1355
   22SAPC   H6X 2930   0.919   2.800   9.714 -1.3984  0.4334  0.1776
   22SAPC   H6Y 2931   1.034   2.938   9.685 -0.0558  1.6802  0.2263
   22SAPC   C37 2932   0.887   2.898   9.536  0.7089  0.6534  0.4680
   22SAPC   H7X 2933   0.788   2.848   9.538  1.2463 -0.4613  2.8567
   22SAPC   H7Y 2934   0.959   2.828   9.489  0.5923  1.4861 -1.0098
   22SAPC   C38 2935   0.887   3.024   9.453 -0.1117 -0.3936  0.4431
   22SAPC   H8X 2936   0.983   3.079   9.467  0.0418 -0.8016  1.0206
   22SAPC   H8Y 2937   0.805   3.085   9.498  1.5861 -0.3267  3.7484
   22SAPC   C39 2938   0.853   3.001   9.307 -0.7465 -0.1061  0.1293
   22SAPC   H9X 2939   0.755   2.953   9.288  0.0887 -1.6286 -0.4716
   22SAPC   H9Y 2940   0.934   2.941   9.261 -0.8638  0.0654 -0.3136
   22SAPC  C310 2941   0.852   3.129   9.223  0.5382 -0.0769  0.3329
   22SAPC  H10X 2942   0.954   3.171   9.207  0.3083  0.9756  1.4496
   22SAPC  H10Y 2943   0.792   3.197   9.287  1.1742  0.0375  0.8195
   22SAPC  C311 2944   0.784   3.111   9.088  0.8983  0.2596 -0.2077
   22SAPC  H11X 2945   0.695   3.046   9.106  1.5509 -0.7389 -0.4703
   22SAPC  H11Y 2946   0.855   3.064   9.015  0.0844  0.8650 -1.4219
   22SAPC  C312 2947   0.729   3.242   9.029 -0.8294 -0.0292 -0.4312
   22SAPC  H12X 2948   0.815   3.305   8.997 -0.3424  0.4569  1.6519
   22SAPC  H12Y 2949   0.675   3.307   9.101 -1.9686 -1.0695 -0.3209
   22SAPC  C313 2950   0.636   3.209   8.909 -0.1313  0.1286 -1.1087
   22SAPC  H13X 2951   0.539   3.176   8.953  1.0803 -0.5207  1.2451
   22SAPC  H13Y 2952   0.680   3.123   8.856 -0.7105  0.5331 -2.2862
   22SAPC  C314 2953   0.608   3.315   8.804  0.3112 -0.1889  0.4747
   22SAPC  H14X 2954   0.699   3.350   8.751  0.5433  2.2144  2.3039
   22SAPC  H14Y 2955   0.574   3.414   8.844  0.1532  2.1894 -4.6914
   22SAPC  C315 2956   0.493   3.285   8.707  0.4733 -0.5934  0.3147
   22SAPC  H15X 2957   0.395   3.294   8.757 -0.8115 -0.2010 -2.1054
   22SAPC  H15Y 2958   0.510   3.184   8.664 -0.6375  0.3723 -2.6556
   22SAPC  C316 2959   0.502   3.374   8.580 -0.2146  0.3713 -0.6201
   22SAPC  H16X 2960   0.584   3.328   8.520 -0.6672  0.3539 -1.2311
   22SAPC  H16Y 2961   0.535   3.477   8.605  0.8365 -0.0333 -0.3012
   22SAPC  C317 2962   0.379   3.367   8.487  0.3362 -0.9230  0.1006
   22SAPC  H17X 2963   0.392   3.430   8.397 -0.8002 -1.2388 -0.2979
   22SAPC  H17Y 2964   0.295   3.421   8.535 -0.6637 -0.7636 -1.7821
   22SAPC  C318 2965   0.328   3.224   8.448 -0.5065  0.4378  0.0603
   22SAPC  H18X 2966   0.232   3.234   8.393  0.2386  0.6626 -1.2489
   22SAPC  H18Y 2967   0.312   3.182   8.550 -1.3216 -1.6516 -0.8812
   22SAPC  H18Z 2968   0.404   3.169   8.389  0.2503  2.4793 -0.9695
   23SAPC     N 2969   0.762   4.863  10.876  0.4898  0.4935 -0.2625
   23SAPC   C12 2970   0.886   4.796  10.823 -0.4174 -0.2296  0.0461
   23SAPC  H12A 2971   0.975   4.847  10.857  0.7155 -1.3063 -1.1986
   23SAPC  H12B 2972   0.897   4.803  10.716 -2.9637  2.6709 -0.1501
   23SAPC   C13 2973   0.746   5.001  10.824  0.4630 -0.2202  0.1249
   23SAPC  H13A 2974   0.733   4.990  10.718  1.0576 -0.1997  0.0464
   23SAPC  H13B 2975   0.662   5.055  10.865 -0.1048 -0.3762 -0.8044
   23SAPC  H13C 2976   0.834   5.059  10.849 -0.5074  1.5331 -0.3739
   23SAPC   C14 2977   0.648   4.780  10.830 -0.0085  0.0003  0.8330
   23SAPC  H14A 2978   0.639   4.685  10.882 -1.9979 -1.4343 -1.8449
   23SAPC  H14B 2979   0.557   4.837  10.842 -0.6360 -0.4908 -1.1748
   23SAPC  H14C 2980   0.641   4.753  10.725  0.1043  0.9562  0.5775
   23SAPC   C15 2981   0.759   4.863  11.029  0.1609 -0.0791 -0.2561
   23SAPC  H15A 2982   0.748   4.761  11.065 -0.4267 -0.1488 -0.6131
   23SAPC  H15B 2983   0.854   4.892  11.070  0.1422 -0.0099 -0.2615
   23SAPC  H15C 2984   0.682   4.915  11.084 -0.6323 -2.1060  0.6581
   23SAPC   C11 2985   0.913   4.651  10.850 -0.0925 -0.4719  0.1691
   23SAPC  H11A 2986   0.817   4.595  10.839 -1.9232  2.7385 -1.9525
   23SAPC  H11B 2987   0.946   4.639  10.956 -1.5425  2.5033  1.0685
   23SAPC     P 2988   1.019   4.456  10.726 -0.0902 -0.0129  0.0464
   23SAPC   O13 2989   1.092   4.387  10.836 -0.4191  0.0299  0.1225
   23SAPC   O14 2990   0.892   4.399  10.680 -0.0358  0.2221  1.0194
   23SAPC   O12 2991   1.009   4.605  10.760 -0.1221  0.2506  0.3412
   23SAPC   O11 2992   1.119   4.458  10.607 -0.3517 -0.6474 -0.4405
   23SAPC    C1 2993   1.078   4.553  10.503  0.0766  0.8261 -0.5502
   23SAPC    HA 2994   0.981   4.605  10.518 -1.9880 -2.7462 -0.4949
   23SAPC    HB 2995   1.156   4.632  10.503 -0.1973  1.2360  2.5447
   23SAPC    C2 2996   1.074   4.478  10.368  0.2470  0.0467 -0.8718
   23SAPC    HS 2997   1.010   4.389  10.384 -4.0080  3.3340  3.1294
   23SAPC   O21 2998   1.213   4.443  10.323  0.3431  1.0858 -0.0360
   23SAPC   C21 2999   1.204   4.346  10.234  0.0376 -0.2653  0.3023
   23SAPC   O22 3000   1.107   4.280  10.205  0.1983  0.2844 -0.4780
   23SAPC   C22 3001   1.337   4.318  10.170  0.5567  0.2314  0.2021
   23SAPC   H2R 3002   1.384   4.230  10.219  1.7491  0.2445 -0.8736
   23SAPC   H2S 3003   1.305   4.289  10.068  1.2266 -2.6122  0.7112
   23SAPC    C3 3004   1.006   4.567  10.262  0.6088  0.1139 -0.6879
   23SAPC    HX 3005   0.918   4.619  10.306  0.3392 -0.1762 -0.8868
   23SAPC    HY 3006   0.965   4.498  10.186  1.4165  0.4183 -1.4169
   23SAPC   O31 3007   1.089   4.660  10.202 -0.3283  0.6611  0.0400
   23SAPC   C31 3008   1.119   4.777  10.249  0.1234 -0.7869 -0.7487
   23SAPC   O32 3009   1.054   4.830  10.343 -0.0681 -0.3744 -0.0433
   23SAPC   C32 3010   1.236   4.839  10.182 -0.2253 -0.2212  1.1362
   23SAPC   H2X 3011   1.321   4.773  10.209 -0.9877 -2.0142 -0.5606
   23SAPC   H2Y 3012   1.255   4.938  10.229  0.0934  0.6672 -0.7375
   23SAPC   C23 3013   1.428   4.442  10.165  0.1136 -0.2737 -0.0163
   23SAPC   H3R 3014   1.480   4.460  10.261  0.6527  1.2052 -0.5615
   23SAPC   H3S 3015   1.361   4.529  10.146  0.8082  0.3955  0.5190
   23SAPC   C24 3016   1.525   4.441  10.050 -0.7665  0.1550  0.4512
   23SAPC   H4R 3017   1.581   4.536  10.034 -3.2773  1.3878 -1.8717
   23SAPC   H4S 3018   1.463   4.423   9.959 -0.2668 -0.1050  0.1536
   23SAPC   C25 3019   1.627   4.327  10.054  0.0239 -0.4428  0.0692
   23SAPC   H5R 3020   1.675   4.292  10.146 -1.0704 -1.2260  0.3714
   23SAPC   C26 3021   1.669   4.258   9.945 -0.4593  0.1025  0.2372
   23SAPC   H6R 3022   1.734   4.170   9.952  0.7086  0.7768 -1.3561
   23SAPC   C27 3023   1.633   4.296   9.802 -0.0729  0.4456  0.6526
   23SAPC   H7R 3024   1.672   4.400   9.790 -0.7978  0.6431 -0.1382
   23SAPC   H7S 3025   1.525   4.286   9.779  0.3179 -1.2460 -0.6027
   23SAPC   C28 3026   1.709   4.230   9.688  0.3195  0.6944  0.5854
   23SAPC   H8R 3027   1.764   4.138   9.714 -0.9563 -0.4184 -0.4499
   23SAPC   C29 3028   1.707   4.254   9.557  0.2905  0.3578 -0.6804
   23SAPC   H9R 3029   1.762   4.189   9.487  0.2917  2.4193 -2.7163
   23SAPC  C210 3030   1.628   4.366   9.495  0.0224  0.3548 -0.0292
   23SAPC  H10R 3031   1.660   4.467   9.531 -0.4111  0.3854  0.2708
   23SAPC  H10S 3032   1.523   4.338   9.519  0.1801 -1.2850 -1.1451
   23SAPC  C211 3033   1.658   4.380   9.349  0.4901 -0.1007  0.1960
   23SAPC  H11R 3034   1.715   4.471   9.323 -1.7036  1.9593  2.1859
   23SAPC  C212 3035   1.634   4.295   9.249  0.1317  0.6940  0.0438
   23SAPC  H12R 3036   1.661   4.333   9.149 -0.7342  1.2704  0.0175
   23SAPC  C213 3037   1.566   4.156   9.251 -0.1544  0.0322  0.3079
   23SAPC  H13R 3038   1.472   4.158   9.191 -0.6182  0.2561  1.0312
   23SAPC  H13S 3039   1.531   4.137   9.354  0.2643 -0.4907  0.3547
   23SAPC  C214 3040   1.659   4.045   9.207 -0.8639  0.4298  0.4475
   23SAPC  H14R 3041   1.766   4.066   9.188 -0.4916 -0.6596  1.2417
   23SAPC  C215 3042   1.621   3.913   9.193 -0.2282 -0.3089  0.2023
   23SAPC  H15R 3043   1.686   3.838   9.145 -1.3514 -1.1535 -0.0325
   23SAPC  C216 3044   1.483   3.862   9.214  0.3713  0.2437  0.3249
   23SAPC  H16R 3045   1.419   3.855   9.123 -1.6028 -0.0159  1.6689
   23SAPC  H16S 3046   1.426   3.936   9.275 -2.1329 -1.1167 -0.1889
   23SAPC  C217 3047   1.477   3.731   9.291 -0.4309 -0.7039 -0.4254
   23SAPC  H17R 3048   1.535   3.731   9.385  0.3646 -0.3953 -0.9094
   23SAPC  H17S 3049   1.514   3.647   9.228  3.1157  0.3635  0.0095
   23SAPC  C218 3050   1.326   3.708   9.335  0.2209 -0.0810  0.1800
   23SAPC  H18R 3051   1.255   3.688   9.251 -0.9302  0.4783  0.9984
   23SAPC  H18S 3052   1.281   3.791   9.393 -1.5957 -2.9577  3.2757
   23SAPC  C219 3053   1.310   3.580   9.412 -0.3217  0.0643  0.8820
   23SAPC  H19R 3054   1.332   3.482   9.365 -1.0490 -0.3055  1.2921
   23SAPC  H19S 3055   1.203   3.570   9.439 -0.3499 -0.0469  0.7273
   23SAPC  C220 3056   1.392   3.567   9.549 -0.3049 -0.1855 -0.3682
   23SAPC  H20R 3057   1.363   3.659   9.604 -1.4359 -0.4012 -0.5876
   23SAPC  H20S 3058   1.501   3.580   9.531 -0.1898 -1.1380 -0.3687
   23SAPC  H20T 3059   1.372   3.472   9.601  2.2142 -1.1686 -1.0437
   23SAPC   C33 3060   1.240   4.858  10.029  0.1573  0.1438  0.5493
   23SAPC   H3X 3061   1.303   4.946  10.003 -0.0161 -0.2168 -1.2142
   23SAPC   H3Y 3062   1.142   4.883   9.983 -0.2878  0.0690  1.4438
   23SAPC   C34 3063   1.283   4.733   9.955 -0.3280  0.1589  0.5681
   23SAPC   H4X 3064   1.209   4.652   9.970 -1.3661  1.0748  0.5263
   23SAPC   H4Y 3065   1.389   4.700   9.962 -0.4585 -0.5682 -0.5664
   23SAPC   C35 3066   1.279   4.739   9.799  0.1890 -0.2356 -0.2091
   23SAPC   H5X 3067   1.346   4.823   9.770 -0.1963  0.2895  0.3966
   23SAPC   H5Y 3068   1.176   4.776   9.781  1.5700  3.4220 -1.4978
   23SAPC   C36 3069   1.323   4.614   9.727 -0.1962  0.8087  0.4825
   23SAPC   H6X 3070   1.259   4.529   9.758  1.2114 -0.4019  0.1791
   23SAPC   H6Y 3071   1.421   4.589   9.773 -1.2272 -1.6002  1.5208
   23SAPC   C37 3072   1.338   4.628   9.572  0.3955  0.0494  1.0785
   23SAPC   H7X 3073   1.236   4.620   9.528  0.5978  1.9408  0.1444
   23SAPC   H7Y 3074   1.408   4.552   9.532  0.5739  1.2828 -1.0810
   23SAPC   C38 3075   1.383   4.768   9.521 -1.1307  0.0853  0.3732
   23SAPC   H8X 3076   1.486   4.789   9.558 -0.5340  0.0203 -1.1726
   23SAPC   H8Y 3077   1.320   4.857   9.542  0.7715  1.7979 -0.8434
   23SAPC   C39 3078   1.386   4.766   9.372  0.5565  0.5433  0.0879
   23SAPC   H9X 3079   1.421   4.867   9.341 -1.1916  0.7637 -1.3675
   23SAPC   H9Y 3080   1.283   4.756   9.331  1.0654 -1.1254 -0.8736
   23SAPC  C310 3081   1.484   4.671   9.306 -1.0666  0.0461 -0.0206
   23SAPC  H10X 3082   1.433   4.573   9.316  0.1504 -0.4936  1.1700
   23SAPC  H10Y 3083   1.585   4.661   9.350 -0.4050  0.6293 -1.3512
   23SAPC  C311 3084   1.494   4.700   9.155 -0.1366 -0.1812 -0.3113
   23SAPC  H11X 3085   1.555   4.792   9.143  0.3514 -0.5053 -0.3347
   23SAPC  H11Y 3086   1.390   4.716   9.121  0.1234 -0.9407 -1.5290
   23SAPC  C312 3087   1.554   4.592   9.062 -0.2298 -0.4956 -0.9632
   23SAPC  H12X 3088   1.485   4.506   9.046 -1.2124 -0.1056  0.9256
   23SAPC  H12Y 3089   1.648   4.550   9.104 -0.1590  0.1526 -0.4586
   23SAPC  C313 3090   1.599   4.651   8.917 -0.6230  0.4290 -0.3694
   23SAPC  H13X 3091   1.634   4.756   8.928 -0.2658  0.3633 -0.8176
   23SAPC  H13Y 3092   1.503   4.659   8.861 -0.4358 -0.9342 -0.9134
   23SAPC  C314 3093   1.696   4.553   8.841 -0.5629  0.3365 -0.2166
   23SAPC  H14X 3094   1.794   4.553   8.895  0.6587 -0.8536 -2.3017
   23SAPC  H14Y 3095   1.721   4.585   8.738  2.1691 -1.5190 -0.2411
   23SAPC  C315 3096   1.644   4.407   8.817 -0.2303  0.1955 -0.0285
   23SAPC  H15X 3097   1.590   4.373   8.908  1.0529  3.0700  1.9817
   23SAPC  H15Y 3098   1.738   4.349   8.812  0.9901  2.1517 -1.2148
   23SAPC  C316 3099   1.559   4.395   8.681 -0.2264 -0.7022 -0.1823
   23SAPC  H16X 3100   1.614   4.450   8.601 -0.0233 -1.6071 -0.6807
   23SAPC  H16Y 3101   1.462   4.447   8.694 -0.0520  0.6368 -3.2464
   23SAPC  C317 3102   1.532   4.251   8.646 -0.3415  0.2915 -0.3282
   23SAPC  H17X 3103   1.462   4.212   8.723 -0.7167 -1.5285 -1.5320
   23SAPC  H17Y 3104   1.626   4.194   8.663 -1.0816 -0.9394 -0.2741
   23SAPC  C318 3105   1.474   4.238   8.496  0.1135 -0.3259 -0.2675
   23SAPC  H18X 3106   1.412   4.146   8.486 -3.1084  1.7764 -1.2920
   23SAPC  H18Y 3107   1.545   4.231   8.411  0.0172 -2.1425 -0.2398
   23SAPC  H18Z 3108   1.412   4.329   8.482  1.0785  0.3548 -0.2655
   24SAPC     N 3109   3.368   5.189  11.195  0.0420 -0.4993 -0.2985
   24SAPC   C12 3110   3.417   5.175  11.050  0.4228  0.3823  0.7436
   24SAPC  H12A 3111   3.487   5.093  11.047 -0.0379  0.0031 -0.2668
   24SAPC  H12B 3112   3.473   5.262  11.017  2.0838 -1.3821 -1.4595
   24SAPC   C13 3113   3.486   5.219  11.289 -0.3550  0.2522  0.1995
   24SAPC  H13A 3114   3.451   5.219  11.392 -0.7797 -0.5270  0.0658
   24SAPC  H13B 3115   3.552   5.136  11.267  0.3581  1.2278 -1.5307
   24SAPC  H13C 3116   3.541   5.310  11.268  0.5503 -0.2918  0.1366
   24SAPC   C14 3117   3.263   5.293  11.225  0.3380 -0.1475  0.9967
   24SAPC  H14A 3118   3.313   5.389  11.227 -0.6345  0.4117 -0.0489
   24SAPC  H14B 3119   3.194   5.289  11.142  0.7707 -0.2982  0.6453
   24SAPC  H14C 3120   3.207   5.281  11.317  1.0214  1.2661  1.6401
   24SAPC   C15 3121   3.312   5.063  11.244 -0.6708  0.1669  0.3292
   24SAPC  H15A 3122   3.220   5.042  11.191  0.4438 -1.1404 -1.1623
   24SAPC  H15B 3123   3.383   4.987  11.214 -1.0771  0.1062 -0.5184
   24SAPC  H15C 3124   3.295   5.055  11.350  0.0467  0.2923  0.4590
   24SAPC   C11 3125   3.301   5.153  10.947  0.2646 -0.5756 -0.1970
   24SAPC  H11A 3126   3.240   5.068  10.982  0.6526 -0.3258  1.1567
   24SAPC  H11B 3127   3.347   5.125  10.850  1.2190  1.3724 -0.3524
   24SAPC     P 3128   3.084   5.245  10.849 -0.1421 -0.2761  0.1067
   24SAPC   O13 3129   2.987   5.173  10.931 -0.1145  0.2313  0.3294
   24SAPC   O14 3130   3.042   5.378  10.801 -0.3557  0.0412 -0.5882
   24SAPC   O12 3131   3.218   5.265  10.932  0.1969  0.2725  0.1531
   24SAPC   O11 3132   3.118   5.151  10.728  0.7465 -0.2105  0.2782
   24SAPC    C1 3133   3.190   5.181  10.616 -0.1852 -0.3478 -0.1551
   24SAPC    HA 3134   3.241   5.280  10.617  1.6282 -1.2535  0.6955
   24SAPC    HB 3135   3.280   5.117  10.604  1.7954  2.1430  0.4607
   24SAPC    C2 3136   3.101   5.172  10.493  0.3453  0.4092 -0.6491
   24SAPC    HS 3137   3.025   5.250  10.513  0.2503 -0.2551  1.9293
   24SAPC   O21 3138   3.034   5.038  10.487 -0.0494 -0.0111 -0.6587
   24SAPC   C21 3139   2.912   5.047  10.434  0.0466 -0.4246  0.0997
   24SAPC   O22 3140   2.859   5.148  10.390  0.7009 -0.7067  0.4601
   24SAPC   C22 3141   2.844   4.908  10.440  0.2130  0.6388 -0.4077
   24SAPC   H2R 3142   2.923   4.830  10.435  1.7784  2.2365 -2.2093
   24SAPC   H2S 3143   2.783   4.898  10.533  0.3407  1.0351 -0.2810
   24SAPC    C3 3144   3.187   5.194  10.365  0.3779 -0.1828  0.1664
   24SAPC    HX 3145   3.277   5.129  10.359  2.1952  2.2635 -1.1693
   24SAPC    HY 3146   3.224   5.298  10.382 -2.2923  0.9593 -0.4878
   24SAPC   O31 3147   3.109   5.182  10.250 -0.1678  0.3100 -0.0491
   24SAPC   C31 3148   3.050   5.293  10.206 -0.1022  0.4256 -0.3341
   24SAPC   O32 3149   3.058   5.402  10.263  0.2376  0.6428  0.4577
   24SAPC   C32 3150   2.966   5.257  10.074  0.4155 -0.3287  0.0107
   24SAPC   H2X 3151   2.915   5.159  10.076 -0.7079  0.2494  0.3998
   24SAPC   H2Y 3152   3.045   5.243   9.997  0.8693 -0.2848  0.4598
   24SAPC   C23 3153   2.758   4.886  10.314 -0.2769  0.8027  0.3243
   24SAPC   H3R 3154   2.677   4.961  10.301 -1.5175 -0.4006  0.8548
   24SAPC   H3S 3155   2.686   4.803  10.330 -1.4965  1.3121 -1.9650
   24SAPC   C24 3156   2.844   4.878  10.188  0.7063  0.2532  0.2663
   24SAPC   H4R 3157   2.928   4.811  10.217 -0.8743 -1.7193  0.4598
   24SAPC   H4S 3158   2.878   4.982  10.168 -0.5615  0.3091 -1.9376
   24SAPC   C25 3159   2.766   4.828  10.072 -0.2309 -0.2583  0.2269
   24SAPC   H5R 3160   2.658   4.818  10.092 -0.4650  1.9634  0.2802
   24SAPC   C26 3161   2.818   4.776   9.957  0.0651  0.3584 -0.3635
   24SAPC   H6R 3162   2.746   4.730   9.888 -0.8537  1.6696 -0.3182
   24SAPC   C27 3163   2.966   4.757   9.929 -0.7426  0.4675  0.0768
   24SAPC   H7R 3164   2.974   4.647   9.939  1.4117  0.6806  1.2562
   24SAPC   H7S 3165   3.035   4.803  10.002 -2.4310  3.5877 -0.1200
   24SAPC   C28 3166   3.002   4.817   9.797 -0.0736  0.0765  0.3576
   24SAPC   H8R 3167   2.987   4.924   9.776 -1.0337 -0.1336 -0.0600
   24SAPC   C29 3168   3.053   4.745   9.695  0.4690  0.4562 -0.4364
   24SAPC   H9R 3169   3.088   4.801   9.607  2.9775 -2.0270 -1.1971
   24SAPC  C210 3170   3.090   4.599   9.706  0.5154  0.2953  0.0074
   24SAPC  H10R 3171   3.014   4.538   9.654  2.0785 -1.2756 -0.5040
   24SAPC  H10S 3172   3.090   4.553   9.807  0.2761  2.0166  0.8381
   24SAPC  C211 3173   3.223   4.581   9.638 -0.1724  0.1278  0.0775
   24SAPC  H11R 3174   3.305   4.633   9.690 -0.0256 -0.4988  0.4935
   24SAPC  C212 3175   3.255   4.503   9.532  0.0034 -0.2843 -0.4365
   24SAPC  H12R 3176   3.363   4.505   9.512  0.0459 -2.4698 -0.6384
   24SAPC  C213 3177   3.172   4.416   9.437  0.0749 -0.1255  0.1429
   24SAPC  H13R 3178   3.089   4.362   9.487 -1.6604  0.6182 -1.7862
   24SAPC  H13S 3179   3.232   4.332   9.394 -1.2396 -0.7025 -0.6032
   24SAPC  C214 3180   3.100   4.495   9.331 -0.0988 -0.1862  0.0690
   24SAPC  H14R 3181   3.107   4.603   9.344 -0.9722 -0.4374  3.3534
   24SAPC  C215 3182   3.033   4.449   9.220  0.2616  0.2831 -0.2662
   24SAPC  H15R 3183   2.978   4.522   9.158  0.3924 -0.1525 -0.9067
   24SAPC  C216 3184   3.023   4.304   9.183 -0.7556  0.1747  0.4688
   24SAPC  H16R 3185   2.916   4.286   9.158 -0.6358 -0.0706  0.1252
   24SAPC  H16S 3186   3.058   4.240   9.266 -1.0491 -0.8449 -0.1728
   24SAPC  C217 3187   3.103   4.277   9.056  0.3952 -0.0200 -0.5804
   24SAPC  H17R 3188   3.058   4.337   8.975 -3.0502  0.5214  1.5073
   24SAPC  H17S 3189   3.082   4.171   9.030 -2.0497  0.7334 -2.0112
   24SAPC  C218 3190   3.259   4.295   9.070  0.2913 -1.2085  0.2455
   24SAPC  H18R 3191   3.282   4.253   9.170  1.8515 -0.3620  0.2742
   24SAPC  H18S 3192   3.292   4.401   9.057 -1.0572 -1.0084 -2.1826
   24SAPC  C219 3193   3.338   4.225   8.955  0.1437  0.3281 -0.0670
   24SAPC  H19R 3194   3.294   4.124   8.935 -2.2207  1.5733 -1.6066
   24SAPC  H19S 3195   3.443   4.206   8.986 -0.2158  1.4456  2.0507
   24SAPC  C220 3196   3.334   4.309   8.833  0.4524  0.3894 -0.1032
   24SAPC  H20R 3197   3.380   4.407   8.859  0.2660  0.3160  0.5267
   24SAPC  H20S 3198   3.229   4.324   8.802 -0.2983  1.1659  2.5614
   24SAPC  H20T 3199   3.397   4.266   8.752  1.7346  0.7703  0.6572
   24SAPC   C33 3200   2.863   5.367  10.018 -0.3723  0.5962 -0.0776
   24SAPC   H3X 3201   2.924   5.457   9.996  0.9375 -0.6000 -1.6190
   24SAPC   H3Y 3202   2.790   5.398  10.096  0.1194  1.6618 -0.0244
   24SAPC   C34 3203   2.789   5.323   9.893 -0.0270  0.2221  0.3282
   24SAPC   H4X 3204   2.746   5.412   9.843  0.1606 -0.1972 -0.5827
   24SAPC   H4Y 3205   2.705   5.254   9.915  1.6062 -1.7617  0.6244
   24SAPC   C35 3206   2.881   5.249   9.792  0.3605  0.1379  0.2937
   24SAPC   H5X 3207   2.810   5.218   9.712  0.7800 -0.0386 -0.0110
   24SAPC   H5Y 3208   2.932   5.156   9.824 -1.2381 -1.0069 -0.3377
   24SAPC   C36 3209   2.974   5.353   9.722  0.1588 -0.0450 -0.2345
   24SAPC   H6X 3210   3.073   5.346   9.772 -0.1096 -1.6509  0.1248
   24SAPC   H6Y 3211   2.927   5.451   9.743 -0.2508 -0.2402 -0.2311
   24SAPC   C37 3212   3.010   5.318   9.578  0.1400 -0.1695  0.6526
   24SAPC   H7X 3213   3.097   5.383   9.552 -0.0466 -1.1130 -2.7579
   24SAPC   H7Y 3214   2.936   5.339   9.499 -0.0509 -0.6444  0.7058
   24SAPC   C38 3215   3.053   5.171   9.562 -0.5197 -0.1569 -0.3997
   24SAPC   H8X 3216   2.956   5.118   9.551 -2.1284  2.8335 -1.8266
   24SAPC   H8Y 3217   3.109   5.142   9.653 -0.7018  1.4383  0.2462
   24SAPC   C39 3218   3.138   5.152   9.432  0.0876 -0.1057 -0.2677
   24SAPC   H9X 3219   3.176   5.048   9.420 -0.2788 -0.0605 -2.3202
   24SAPC   H9Y 3220   3.219   5.226   9.440  0.3104 -0.3941  0.1291
   24SAPC  C310 3221   3.067   5.184   9.299 -0.1424 -0.8743 -0.0093
   24SAPC  H10X 3222   3.057   5.294   9.312 -0.1960 -1.0349  1.4424
   24SAPC  H10Y 3223   2.968   5.134   9.293 -0.3294 -0.3648 -1.8876
   24SAPC  C311 3224   3.148   5.163   9.168  0.3518  0.3468 -0.0072
   24SAPC  H11X 3225   3.176   5.055   9.168  1.7236  0.6837  0.6526
   24SAPC  H11Y 3226   3.246   5.215   9.171  2.1289 -2.5970 -1.8148
   24SAPC  C312 3227   3.074   5.207   9.040  0.1301  0.0332  0.2126
   24SAPC  H12X 3228   2.967   5.229   9.059  0.0458 -0.3735  0.2304
   24SAPC  H12Y 3229   3.059   5.126   8.965  0.8972  1.2450 -1.3070
   24SAPC  C313 3230   3.137   5.320   8.960 -0.2064  1.1676  0.1159
   24SAPC  H13X 3231   3.083   5.340   8.865  1.2904  2.7179 -0.4578
   24SAPC  H13Y 3232   3.240   5.287   8.936  0.1767  2.4928 -0.1417
   24SAPC  C314 3233   3.147   5.452   9.035 -0.5431 -0.4301  0.5305
   24SAPC  H14X 3234   3.234   5.502   8.987  1.4032 -2.7074  1.4594
   24SAPC  H14Y 3235   3.174   5.425   9.140  1.3952  0.1015  0.2042
   24SAPC  C315 3236   3.008   5.529   9.015 -0.4157  0.1301  0.1514
   24SAPC  H15X 3237   2.937   5.460   9.065 -1.8450  1.4368 -0.0088
   24SAPC  H15Y 3238   2.974   5.521   8.910  0.7695  2.5916 -0.5015
   24SAPC  C316 3239   3.022   5.675   9.075 -0.8729  0.2594  0.1439
   24SAPC  H16X 3240   2.922   5.720   9.062 -0.5072  0.3892 -2.6930
   24SAPC  H16Y 3241   3.095   5.732   9.013 -1.5070  0.0173 -0.8336
   24SAPC  C317 3242   3.074   5.682   9.220  1.4151 -0.1205 -0.2363
   24SAPC  H17X 3243   3.095   5.788   9.244 -1.0469  0.2253  0.6837
   24SAPC  H17Y 3244   3.173   5.633   9.228  1.4063 -0.7126 -2.8011
   24SAPC  C318 3245   2.977   5.632   9.323 -0.0577  0.6502 -0.6637
   24SAPC  H18X 3246   3.029   5.560   9.389 -3.1611 -0.1164  1.1275
   24SAPC  H18Y 3247   2.895   5.577   9.273 -0.3773  0.1290  0.4010
   24SAPC  H18Z 3248   2.943   5.707   9.399  1.6309  0.4424  0.3541
   25SAPC     N 3249   6.298   2.955   5.696 -0.2548  0.1537  0.1418
   25SAPC   C12 3250   6.387   2.973   5.814  0.1706 -0.1960 -0.1990
   25SAPC  H12A 3251   6.467   3.042   5.790  0.0270 -0.0642 -0.2981
   25SAPC  H12B 3252   6.444   2.882   5.830 -0.0472 -0.3817 -0.4693
   25SAPC   C13 3253   6.371   2.911   5.574  0.2241  0.0707  0.2681
   25SAPC  H13A 3254   6.298   2.880   5.501  1.6237 -2.7434 -0.0820
   25SAPC  H13B 3255   6.430   2.987   5.524 -1.3730 -0.6892 -3.0551
   25SAPC  H13C 3256   6.423   2.820   5.597 -0.7514 -0.5850 -0.0796
   25SAPC   C14 3257   6.192   2.853   5.718  0.3633  0.0166 -0.3771
   25SAPC  H14A 3258   6.114   2.898   5.778 -1.5806 -0.6757 -2.2369
   25SAPC  H14B 3259   6.141   2.830   5.626 -1.0569 -1.8712  0.8259
   25SAPC  H14C 3260   6.222   2.762   5.768 -2.0651 -0.2096  0.7891
   25SAPC   C15 3261   6.224   3.077   5.656 -0.1922  0.5741 -0.1196
   25SAPC  H15A 3262   6.204   3.070   5.550 -1.9297  1.5402  0.1098
   25SAPC  H15B 3263   6.136   3.101   5.713 -0.7975  1.0836 -1.2495
   25SAPC  H15C 3264   6.280   3.169   5.667 -0.1261  0.9378 -2.9137
   25SAPC   C11 3265   6.319   3.023   5.945 -0.2585 -0.1227  0.6413
   25SAPC  H11A 3266   6.261   3.112   5.914  1.8612  1.3740  0.7825
   25SAPC  H11B 3267   6.394   3.059   6.019  1.9605 -1.4198 -0.8822
   25SAPC     P 3268   6.102   2.944   6.063  0.4111  0.0362 -0.3559
   25SAPC   O13 3269   6.049   3.081   6.040 -0.1933 -0.2955  0.3423
   25SAPC   O14 3270   6.009   2.835   6.034 -0.7183 -0.3710  0.3084
   25SAPC   O12 3271   6.241   2.915   5.994 -0.0961  0.1798 -0.1395
   25SAPC   O11 3272   6.153   2.933   6.216  0.4973  0.2771 -0.0476
   25SAPC    C1 3273   6.258   2.849   6.263 -0.9076  0.5942  0.3681
   25SAPC    HA 3274   6.253   2.746   6.222  0.6439  0.7968 -0.4190
   25SAPC    HB 3275   6.355   2.887   6.223 -0.7609  0.0456  0.1979
   25SAPC    C2 3276   6.270   2.849   6.414 -0.4124 -0.0490 -0.2425
   25SAPC    HS 3277   6.361   2.789   6.436  0.2896  1.4890  1.3325
   25SAPC   O21 3278   6.160   2.792   6.482  0.2868  0.4078 -0.0503
   25SAPC   C21 3279   6.106   2.675   6.451  0.1608 -0.7454 -0.2370
   25SAPC   O22 3280   6.151   2.593   6.373 -0.0238  0.0597 -0.6223
   25SAPC   C22 3281   5.977   2.657   6.533 -0.1867  0.6781 -0.4095
   25SAPC   H2R 3282   5.934   2.744   6.588 -1.9330  0.2168 -0.9977
   25SAPC   H2S 3283   5.896   2.631   6.462 -0.7075 -2.0625  1.0497
   25SAPC    C3 3284   6.298   2.987   6.474 -0.3743 -0.0419 -0.6025
   25SAPC    HX 3285   6.255   3.061   6.404  1.6428  1.8560  0.0514
   25SAPC    HY 3286   6.407   3.010   6.478 -0.1641 -0.7972 -1.5057
   25SAPC   O31 3287   6.260   3.007   6.615 -0.4175 -0.0902  0.4164
   25SAPC   C31 3288   6.125   3.023   6.630  0.3612  0.9379  0.4645
   25SAPC   O32 3289   6.048   3.056   6.543 -0.2445  0.2803  0.0706
   25SAPC   C32 3290   6.094   3.038   6.777  0.2205  1.0566 -0.0071
   25SAPC   H2X 3291   6.008   2.974   6.804  1.2357 -0.6541 -0.7099
   25SAPC   H2Y 3292   6.062   3.144   6.789 -1.2204  0.6091  0.2706
   25SAPC   C23 3293   5.999   2.537   6.634  0.4200 -0.2897  0.9342
   25SAPC   H3R 3294   6.066   2.454   6.601  1.3004  0.9256 -0.4570
   25SAPC   H3S 3295   5.901   2.487   6.652  0.6618 -1.1427 -0.0395
   25SAPC   C24 3296   6.053   2.587   6.769  0.7025  0.0989 -0.0999
   25SAPC   H4R 3297   5.984   2.667   6.803 -1.2851 -1.7275  0.3582
   25SAPC   H4S 3298   6.146   2.636   6.734  0.8307 -0.7860 -1.0616
   25SAPC   C25 3299   6.077   2.482   6.879 -0.3391  0.5950  0.2506
   25SAPC   H5R 3300   6.129   2.388   6.853  0.2571  1.1341 -0.5631
   25SAPC   C26 3301   6.058   2.506   7.009  0.7255  0.2786  0.2362
   25SAPC   H6R 3302   6.091   2.429   7.079  0.4284 -0.3732 -0.3283
   25SAPC   C27 3303   5.997   2.631   7.073 -0.3814  0.5279 -0.7784
   25SAPC   H7R 3304   5.933   2.592   7.154  0.7453  1.6023  0.6805
   25SAPC   H7S 3305   5.924   2.680   7.005 -1.5125 -1.4484 -1.0518
   25SAPC   C28 3306   6.093   2.743   7.131  0.2192 -0.7317  0.1323
   25SAPC   H8R 3307   6.147   2.803   7.056  0.4238  0.5407  1.2674
   25SAPC   C29 3308   6.096   2.775   7.259 -0.0306 -0.3115 -0.1585
   25SAPC   H9R 3309   6.145   2.868   7.291  1.4717 -1.1968  0.2343
   25SAPC  C210 3310   6.015   2.712   7.368  0.0582 -0.1621  0.3480
   25SAPC  H10R 3311   6.075   2.724   7.460 -1.5951 -2.3230  1.8084
   25SAPC  H10S 3312   6.021   2.602   7.358  0.9900 -0.2645  1.7171
   25SAPC  C211 3313   5.871   2.764   7.394 -0.2633  0.0536  0.1976
   25SAPC  H11R 3314   5.834   2.840   7.324 -0.1884 -0.5216 -0.4799
   25SAPC  C212 3315   5.790   2.715   7.486 -0.5333  0.3244  0.1499
   25SAPC  H12R 3316   5.687   2.755   7.492 -1.4693 -2.0177  0.8319
   25SAPC  C213 3317   5.824   2.599   7.585  0.1090  0.1428  0.4654
   25SAPC  H13R 3318   5.931   2.570   7.575  0.0526  0.2927 -0.7686
   25SAPC  H13S 3319   5.762   2.510   7.564  0.8495 -0.8020  2.0849
   25SAPC  C214 3320   5.794   2.639   7.727  0.1841  0.5107 -0.9601
   25SAPC  H14R 3321   5.692   2.623   7.766  0.3169 -0.2203 -0.9047
   25SAPC  C215 3322   5.877   2.701   7.816  0.8036 -0.5054 -0.6935
   25SAPC  H15R 3323   5.837   2.726   7.916  1.3936 -1.3014 -0.2456
   25SAPC  C216 3324   6.011   2.748   7.779  0.1119  0.6994 -0.6100
   25SAPC  H16R 3325   5.993   2.829   7.705 -0.0691 -1.6086 -3.2399
   25SAPC  H16S 3326   6.068   2.667   7.731 -0.3580 -0.3596  0.5481
   25SAPC  C217 3327   6.102   2.791   7.897 -0.1090 -0.9442 -0.0904
   25SAPC  H17R 3328   6.106   2.719   7.982 -1.1745 -2.0575 -0.9417
   25SAPC  H17S 3329   6.071   2.887   7.944  0.0437  0.1933 -2.2279
   25SAPC  C218 3330   6.248   2.820   7.841 -0.2199  0.4283 -1.1425
   25SAPC  H18R 3331   6.254   2.916   7.786 -1.4635  1.6007  0.6572
   25SAPC  H18S 3332   6.291   2.733   7.787  1.0437  0.0611  0.3795
   25SAPC  C219 3333   6.343   2.852   7.964  0.0636 -0.5983  0.0806
   25SAPC  H19R 3334   6.311   2.935   8.031 -1.8831 -0.8383 -0.4963
   25SAPC  H19S 3335   6.434   2.890   7.913 -1.6539 -0.0438 -2.7694
   25SAPC  C220 3336   6.397   2.742   8.054 -0.0478  0.4137 -0.4387
   25SAPC  H20R 3337   6.449   2.673   7.984  0.6511  1.5606 -1.0830
   25SAPC  H20S 3338   6.312   2.684   8.097  0.2889 -0.0946 -0.4522
   25SAPC  H20T 3339   6.461   2.780   8.136 -1.7602 -0.3495  1.3489
   25SAPC   C33 3340   6.196   3.011   6.884 -0.8180  0.6549 -0.1154
   25SAPC   H3X 3341   6.293   3.047   6.845 -0.3130 -0.2297  0.2944
   25SAPC   H3Y 3342   6.204   2.900   6.895  0.8387  0.8135  0.4010
   25SAPC   C34 3343   6.179   3.074   7.022 -0.6963 -0.2972 -0.3892
   25SAPC   H4X 3344   6.094   3.023   7.072 -0.0094 -0.1570  0.9630
   25SAPC   H4Y 3345   6.137   3.175   7.006  0.8489  0.6289  1.1444
   25SAPC   C35 3346   6.301   3.080   7.116  0.3301  0.2238 -0.1052
   25SAPC   H5X 3347   6.385   3.118   7.053 -0.0784 -1.2733 -1.6153
   25SAPC   H5Y 3348   6.332   2.981   7.156 -0.1945  0.2707  0.4296
   25SAPC   C36 3349   6.274   3.169   7.241 -0.5775  0.1025 -0.3835
   25SAPC   H6X 3350   6.206   3.107   7.304 -0.9081  0.2139 -0.6333
   25SAPC   H6Y 3351   6.216   3.257   7.207  0.8770  1.3801  0.2838
   25SAPC   C37 3352   6.398   3.224   7.320 -0.0039 -0.5544  0.1754
   25SAPC   H7X 3353   6.374   3.329   7.350 -0.7085 -0.3346 -1.0426
   25SAPC   H7Y 3354   6.477   3.225   7.241 -2.1888 -2.3725 -2.2204
   25SAPC   C38 3355   6.439   3.149   7.444 -0.3679 -0.3090  0.1056
   25SAPC   H8X 3356   6.544   3.180   7.460 -0.4105  0.5785 -1.1904
   25SAPC   H8Y 3357   6.456   3.043   7.416 -0.2392  0.1086 -1.5102
   25SAPC   C39 3358   6.351   3.152   7.569 -0.1158  0.0691 -0.2466
   25SAPC   H9X 3359   6.300   3.053   7.572  0.8893 -0.4408  1.0878
   25SAPC   H9Y 3360   6.277   3.235   7.568 -2.3439 -1.7776 -2.2603
   25SAPC  C310 3361   6.429   3.169   7.692 -0.1928 -0.2781 -0.3194
   25SAPC  H10X 3362   6.532   3.129   7.686  0.0832  0.5945 -1.9604
   25SAPC  H10Y 3363   6.384   3.102   7.769  0.3643  0.6346  0.8368
   25SAPC  C311 3364   6.426   3.318   7.746 -0.5421  0.5608  0.4681
   25SAPC  H11X 3365   6.320   3.353   7.746 -0.9528 -0.4548 -2.1038
   25SAPC  H11Y 3366   6.480   3.388   7.679  0.1949  1.3080  1.7996
   25SAPC  C312 3367   6.470   3.338   7.894 -0.4981 -0.3253 -0.1876
   25SAPC  H12X 3368   6.457   3.448   7.897  0.0241 -0.2813  0.8359
   25SAPC  H12Y 3369   6.577   3.315   7.914 -1.0286 -0.2740  3.3440
   25SAPC  C313 3370   6.384   3.263   7.995 -0.0768  0.2961  0.4846
   25SAPC  H13X 3371   6.433   3.164   8.007  1.2902  0.7599 -1.0282
   25SAPC  H13Y 3372   6.288   3.240   7.945  1.1080 -0.7464 -1.4266
   25SAPC  C314 3373   6.370   3.321   8.131 -0.1422 -0.2857 -0.1539
   25SAPC  H14X 3374   6.465   3.364   8.170 -0.3339 -0.5165  0.5927
   25SAPC  H14Y 3375   6.353   3.240   8.206 -0.2944  0.5370  0.7161
   25SAPC  C315 3376   6.253   3.425   8.140 -0.1489 -0.0068 -0.2899
   25SAPC  H15X 3377   6.162   3.377   8.099  0.3163  0.5848 -2.0782
   25SAPC  H15Y 3378   6.277   3.511   8.074 -0.1904  0.6853  0.5753
   25SAPC  C316 3379   6.217   3.473   8.284  0.2424 -0.4168  0.2048
   25SAPC  H16X 3380   6.309   3.495   8.344  1.3794 -1.5603 -1.0456
   25SAPC  H16Y 3381   6.182   3.379   8.333 -0.2381 -0.7473 -0.7518
   25SAPC  C317 3382   6.107   3.581   8.292  0.1963  0.0548 -0.1578
   25SAPC  H17X 3383   6.136   3.660   8.219  0.5861 -0.4943 -0.6070
   25SAPC  H17Y 3384   6.115   3.619   8.396  0.0060 -3.8456  1.4348
   25SAPC  C318 3385   5.960   3.521   8.281  0.0851 -0.2361 -0.2737
   25SAPC  H18X 3386   5.948   3.482   8.177  3.1420 -1.7260 -0.1740
   25SAPC  H18Y 3387   5.884   3.602   8.289  1.9678  1.7489 -1.2888
   25SAPC  H18Z 3388   5.941   3.437   8.351 -1.2972 -0.3185 -0.7187
   26SAPC     N 3389   4.880   1.054   5.942 -0.1797 -0.1113  0.9872
   26SAPC   C12 3390   4.912   1.057   6.087  0.0453  0.0923 -0.3471
   26SAPC  H12A 3391   4.844   1.113   6.148  0.4589  0.5121 -0.2681
   26SAPC  H12B 3392   5.005   1.112   6.092 -0.3683  0.6989  1.2705
   26SAPC   C13 3393   5.004   1.017   5.861  0.3607 -0.8309 -0.1868
   26SAPC  H13A 3394   5.079   1.095   5.854  1.4846 -1.9452 -0.9615
   26SAPC  H13B 3395   5.051   0.926   5.894  0.7688 -0.5668 -0.0242
   26SAPC  H13C 3396   4.968   0.991   5.763  2.1497 -1.5129 -0.6967
   26SAPC   C14 3397   4.775   0.966   5.900 -0.4037  0.1802  0.0066
   26SAPC  H14A 3398   4.803   0.862   5.911  1.5908  0.7887  1.1848
   26SAPC  H14B 3399   4.686   0.982   5.960  0.3436  0.3117  1.0955
   26SAPC  H14C 3400   4.765   0.981   5.794 -0.0369  0.1281 -0.0342
   26SAPC   C15 3401   4.828   1.187   5.911  0.5456 -0.4708 -0.1033
   26SAPC  H15A 3402   4.825   1.206   5.805 -3.8932  0.6190  0.0124
   26SAPC  H15B 3403   4.726   1.197   5.944  0.3649  0.6499 -0.9778
   26SAPC  H15C 3404   4.882   1.268   5.958  0.0701 -1.0486  1.5277
   26SAPC   C11 3405   4.932   0.929   6.174 -0.3534 -0.6339 -0.0202
   26SAPC  H11A 3406   4.835   0.875   6.179  0.0176 -1.4205 -0.9613
   26SAPC  H11B 3407   4.963   0.958   6.277  0.7406 -2.7758  0.2867
   26SAPC     P 3408   5.042   0.696   6.149 -0.4760  0.0049  0.2418
   26SAPC   O13 3409   4.905   0.631   6.132  0.0200 -0.3696 -0.5858
   26SAPC   O14 3410   5.148   0.631   6.065 -0.2957  0.2119  0.0473
   26SAPC   O12 3411   5.037   0.847   6.113 -0.5027 -0.0382  0.6373
   26SAPC   O11 3412   5.093   0.716   6.292 -0.3514 -0.0056  0.2779
   26SAPC    C1 3413   4.998   0.716   6.401  0.6905  0.2821  0.3442
   26SAPC    HA 3414   5.021   0.799   6.471 -0.1430  1.5065 -0.7850
   26SAPC    HB 3415   4.894   0.740   6.369  0.5884 -0.5930 -0.0308
   26SAPC    C2 3416   4.988   0.580   6.469  0.2470 -0.9285  0.3486
   26SAPC    HS 3417   4.931   0.507   6.408 -0.1874 -1.6019  1.5420
   26SAPC   O21 3418   4.919   0.598   6.599 -0.0746 -0.0336 -0.5219
   26SAPC   C21 3419   4.790   0.587   6.592 -0.3848  0.1676 -0.4194
   26SAPC   O22 3420   4.731   0.589   6.486 -0.5520  0.6903  0.1288
   26SAPC   C22 3421   4.726   0.567   6.732  0.2299  0.1792 -0.1097
   26SAPC   H2R 3422   4.799   0.557   6.815  2.1578 -0.0082 -1.7350
   26SAPC   H2S 3423   4.675   0.663   6.757 -2.0004 -1.3023  1.3776
   26SAPC    C3 3424   5.128   0.516   6.499  0.8622  0.4990 -0.3606
   26SAPC    HX 3425   5.179   0.597   6.556  0.2063 -0.7785  2.1762
   26SAPC    HY 3426   5.172   0.500   6.398 -0.4376 -0.3289 -0.8148
   26SAPC   O31 3427   5.122   0.394   6.582 -0.2836  0.0773 -0.2582
   26SAPC   C31 3428   5.242   0.339   6.600  0.8333  0.5803 -0.9225
   26SAPC   O32 3429   5.351   0.381   6.565  0.3362 -0.2071 -0.2011
   26SAPC   C32 3430   5.223   0.216   6.683  0.0382  0.4215 -0.0881
   26SAPC   H2X 3431   5.321   0.190   6.730 -0.1875  3.6419  2.5330
   26SAPC   H2Y 3432   5.182   0.135   6.618  0.8183 -0.4398  0.4556
   26SAPC   C23 3433   4.631   0.446   6.735  0.2098 -0.2740  0.4267
   26SAPC   H3R 3434   4.686   0.354   6.705  0.7061 -0.4328  1.7506
   26SAPC   H3S 3435   4.544   0.476   6.673  1.2961  3.3853  0.4761
   26SAPC   C24 3436   4.573   0.424   6.879  0.7165 -0.0102 -0.3224
   26SAPC   H4R 3437   4.499   0.502   6.908 -1.5875 -2.4868  0.8570
   26SAPC   H4S 3438   4.662   0.439   6.944  1.2366 -0.4788 -0.9204
   26SAPC   C25 3439   4.512   0.287   6.898  0.5131 -0.2185 -0.1518
   26SAPC   H5R 3440   4.403   0.275   6.885  0.6342 -3.3395  1.0201
   26SAPC   C26 3441   4.590   0.182   6.933 -0.2223  0.1898 -0.0820
   26SAPC   H6R 3442   4.538   0.086   6.948 -0.4490  0.1287 -1.1939
   26SAPC   C27 3443   4.737   0.179   6.971  0.5905  0.0163  0.4382
   26SAPC   H7R 3444   4.756   0.237   7.064  1.3530  0.5441 -0.0415
   26SAPC   H7S 3445   4.793   0.235   6.894 -0.5270  1.2081  0.4673
   26SAPC   C28 3446   4.777   0.038   6.986 -0.9486 -0.6077 -0.6334
   26SAPC   H8R 3447   4.758  -0.035   6.906  0.1867 -1.3366 -0.2663
   26SAPC   C29 3448   4.830  -0.009   7.104  0.3344 -0.9747  0.2314
   26SAPC   H9R 3449   4.856  -0.116   7.115  0.3771 -1.2194 -1.8192
   26SAPC  C210 3450   4.855   0.065   7.229 -0.1227 -0.0469  0.0715
   26SAPC  H10R 3451   4.757   0.113   7.247  0.3255  1.1070 -0.4335
   26SAPC  H10S 3452   4.931   0.146   7.216 -0.4214  0.4695  1.3885
   26SAPC  C211 3453   4.901  -0.009   7.353  0.5892  0.4590 -0.3157
   26SAPC  H11R 3454   5.007  -0.000   7.381  0.4261 -0.2376  0.5738
   26SAPC  C212 3455   4.828  -0.085   7.442  0.2056 -0.5671 -0.3714
   26SAPC  H12R 3456   4.886  -0.139   7.519  1.9873  0.2518 -1.0807
   26SAPC  C213 3457   4.684  -0.106   7.428 -0.1807 -0.4044 -0.1056
   26SAPC  H13R 3458   4.671  -0.190   7.499 -2.7383  0.5942  0.7035
   26SAPC  H13S 3459   4.664  -0.153   7.329 -2.0957  0.9938 -0.4365
   26SAPC  C214 3460   4.582  -0.004   7.460 -0.3758 -0.0557 -0.0170
   26SAPC  H14R 3461   4.587   0.031   7.564 -0.9927  0.3819 -0.1305
   26SAPC  C215 3462   4.490   0.046   7.379  0.3466  0.2016  0.1322
   26SAPC  H15R 3463   4.421   0.124   7.414 -0.8397 -0.3905 -0.7873
   26SAPC  C216 3464   4.462   0.007   7.235 -0.3645  0.2313  0.7421
   26SAPC  H16R 3465   4.511  -0.084   7.192 -1.6213  0.3557 -1.0607
   26SAPC  H16S 3466   4.507   0.087   7.173  1.1460 -3.2052 -3.0688
   26SAPC  C217 3467   4.310  -0.006   7.204  0.1237 -0.2241 -1.0087
   26SAPC  H17R 3468   4.261   0.088   7.237 -0.3930 -0.4243 -1.1955
   26SAPC  H17S 3469   4.278  -0.096   7.259 -0.5444  0.2097 -0.6769
   26SAPC  C218 3470   4.281  -0.026   7.059 -0.3354 -0.0867 -0.1991
   26SAPC  H18R 3471   4.349   0.037   6.998  0.4098 -0.8287 -0.1439
   26SAPC  H18S 3472   4.180   0.021   7.054  0.4188  1.6841  0.3340
   26SAPC  C219 3473   4.284  -0.176   7.012 -0.2837 -0.1830  0.5948
   26SAPC  H19R 3474   4.231  -0.244   7.083  1.6479 -2.1197  0.2738
   26SAPC  H19S 3475   4.389  -0.209   7.023  0.1459  1.8281  3.7640
   26SAPC  C220 3476   4.240  -0.199   6.870  0.3619  0.3163  0.1523
   26SAPC  H20R 3477   4.270  -0.110   6.811  2.1081 -1.0746 -1.1411
   26SAPC  H20S 3478   4.131  -0.210   6.849  0.3819  0.7566 -0.1950
   26SAPC  H20T 3479   4.289  -0.293   6.835  0.4407  1.0978 -2.0133
   26SAPC   C33 3480   5.138   0.225   6.815  0.0231 -1.4716 -0.0277
   26SAPC   H3X 3481   5.037   0.261   6.786  1.2777  1.8527 -0.7072
   26SAPC   H3Y 3482   5.179   0.300   6.886 -0.7755  2.1602 -3.0561
   26SAPC   C34 3483   5.102   0.097   6.891  0.0392 -0.3669  0.0531
   26SAPC   H4X 3484   5.050   0.040   6.811  1.2178  0.5052 -1.3823
   26SAPC   H4Y 3485   5.017   0.111   6.961 -2.1053  0.1906 -2.4956
   26SAPC   C35 3486   5.226   0.028   6.952  0.5978  0.2532  0.3574
   26SAPC   H5X 3487   5.286   0.110   6.998 -1.4650  2.2739 -0.3856
   26SAPC   H5Y 3488   5.300  -0.011   6.878  0.8667  1.0928  0.1731
   26SAPC   C36 3489   5.191  -0.087   7.043 -0.0714 -0.2492  0.3203
   26SAPC   H6X 3490   5.186  -0.184   6.989 -0.2180 -0.1830  0.2152
   26SAPC   H6Y 3491   5.096  -0.065   7.097 -2.2723 -0.2806 -3.1931
   26SAPC   C37 3492   5.304  -0.124   7.145 -0.2048  0.0453 -0.2303
   26SAPC   H7X 3493   5.390  -0.153   7.082 -0.8382  0.5846 -1.3834
   26SAPC   H7Y 3494   5.273  -0.216   7.200 -1.5874  0.6118  0.0038
   26SAPC   C38 3495   5.347  -0.020   7.247 -0.1706  0.1248 -0.3277
   26SAPC   H8X 3496   5.257   0.029   7.287  0.8766 -0.3528  2.9155
   26SAPC   H8Y 3497   5.404   0.062   7.198 -0.8063  1.7915  1.5904
   26SAPC   C39 3498   5.425  -0.085   7.363  0.1180 -0.0889  0.5277
   26SAPC   H9X 3499   5.486  -0.173   7.333  0.9037  0.5534  0.2104
   26SAPC   H9Y 3500   5.344  -0.128   7.426  3.0946 -1.1685  3.9387
   26SAPC  C310 3501   5.504   0.014   7.439  0.3118  0.1468 -0.7124
   26SAPC  H10X 3502   5.437   0.089   7.485 -1.0311 -1.3498 -0.1264
   26SAPC  H10Y 3503   5.578   0.073   7.382 -0.1475  2.5014  1.0079
   26SAPC  C311 3504   5.582  -0.063   7.541  0.1409 -0.1852 -0.1813
   26SAPC  H11X 3505   5.645  -0.141   7.494  1.8376  0.2746  1.1856
   26SAPC  H11Y 3506   5.504  -0.110   7.604 -0.0994 -1.2854 -1.2652
   26SAPC  C312 3507   5.676   0.034   7.623  0.3753  0.2540  0.2436
   26SAPC  H12X 3508   5.612   0.111   7.672 -1.4873 -1.8777  1.3090
   26SAPC  H12Y 3509   5.748   0.077   7.550  1.9185 -0.8875  1.0579
   26SAPC  C313 3510   5.763  -0.041   7.733  0.7374 -0.6430  0.3188
   26SAPC  H13X 3511   5.869  -0.046   7.701  1.2225 -0.2168  1.7799
   26SAPC  H13Y 3512   5.733  -0.147   7.740 -0.7297 -0.3856 -1.4929
   26SAPC  C314 3513   5.732   0.018   7.875  0.0297 -0.0485  0.0201
   26SAPC  H14X 3514   5.635  -0.010   7.921 -0.0956  0.2643 -0.0531
   26SAPC  H14Y 3515   5.753   0.127   7.878 -1.1693  0.1813  0.9061
   26SAPC  C315 3516   5.836  -0.028   7.975  0.1910  0.0761  0.6230
   26SAPC  H15X 3517   5.942   0.004   7.961  0.3202 -0.3439  0.6158
   26SAPC  H15Y 3518   5.841  -0.139   7.968 -0.0156  0.0193  1.3197
   26SAPC  C316 3519   5.793   0.015   8.123  0.2517 -0.7506  0.6732
   26SAPC  H16X 3520   5.687  -0.015   8.140 -0.5197  0.4936 -1.5184
   26SAPC  H16Y 3521   5.785   0.126   8.120 -1.4740 -0.8626 -0.5462
   26SAPC  C317 3522   5.888  -0.033   8.230  0.6490 -0.6205  0.4133
   26SAPC  H17X 3523   5.993   0.004   8.231  0.2390  0.6560 -0.4745
   26SAPC  H17Y 3524   5.895  -0.144   8.225  0.8755 -0.5593 -1.8308
   26SAPC  C318 3525   5.839   0.003   8.369 -0.5891 -0.0634 -1.0988
   26SAPC  H18X 3526   5.743  -0.052   8.383  0.1139 -0.9748  0.4327
   26SAPC  H18Y 3527   5.815   0.111   8.377  1.3278  0.2846  0.6310
   26SAPC  H18Z 3528   5.910  -0.038   8.444 -1.8313 -3.7095 -1.7134
   27SAPC     N 3529   4.210   4.328   6.424  0.2373 -0.0741  0.2590
   27SAPC   C12 3530   4.132   4.362   6.546 -0.3509 -0.2983 -0.2423
   27SAPC  H12A 3531   4.117   4.276   6.610  1.2299 -1.6603 -1.6320
   27SAPC  H12B 3532   4.031   4.392   6.521  0.1971  1.6459 -0.3216
   27SAPC   C13 3533   4.203   4.440   6.327 -0.3952 -0.9970 -0.0105
   27SAPC  H13A 3534   4.101   4.457   6.295 -0.8714 -1.9364  0.9547
   27SAPC  H13B 3535   4.249   4.528   6.370  1.4383 -1.6398 -0.5591
   27SAPC  H13C 3536   4.263   4.416   6.241  1.0836  1.9069  0.0654
   27SAPC   C14 3537   4.351   4.301   6.449 -0.4289 -0.0155  0.1635
   27SAPC  H14A 3538   4.406   4.297   6.355 -1.4242  0.5674 -0.4565
   27SAPC  H14B 3539   4.406   4.370   6.511 -0.1092 -1.6826  1.8065
   27SAPC  H14C 3540   4.357   4.207   6.502  0.2019 -0.4360 -0.6201
   27SAPC   C15 3541   4.150   4.211   6.362 -0.1043 -0.0907  0.0415
   27SAPC  H15A 3542   4.044   4.212   6.339 -0.0360  2.2339 -0.3410
   27SAPC  H15B 3543   4.208   4.184   6.275 -0.2099  1.0518 -0.4028
   27SAPC  H15C 3544   4.148   4.127   6.430  2.8527 -1.8491 -1.8580
   27SAPC   C11 3545   4.181   4.494   6.626  0.0948 -0.1365 -0.3475
   27SAPC  H11A 3546   4.287   4.495   6.658 -0.2939  0.8112  1.0489
   27SAPC  H11B 3547   4.127   4.498   6.723  1.1587  1.2037  0.2146
   27SAPC     P 3548   4.171   4.755   6.605 -0.2070  0.1536 -0.2583
   27SAPC   O13 3549   4.295   4.809   6.547  0.2158  0.6024  0.1130
   27SAPC   O14 3550   4.049   4.831   6.586  0.4526 -0.2364  0.8750
   27SAPC   O12 3551   4.154   4.608   6.547  0.1407 -0.0275  0.2233
   27SAPC   O11 3552   4.183   4.732   6.759 -0.1462  0.0542  1.2596
   27SAPC    C1 3553   4.294   4.783   6.842 -0.2058  0.2803  0.0334
   27SAPC    HA 3554   4.333   4.880   6.803  0.9190 -0.2070 -0.0895
   27SAPC    HB 3555   4.258   4.797   6.946 -1.5293  5.0663 -0.8174
   27SAPC    C2 3556   4.418   4.692   6.854 -0.1097  0.4536  0.4915
   27SAPC    HS 3557   4.439   4.676   6.746 -1.0290 -0.3431  0.4150
   27SAPC   O21 3558   4.383   4.574   6.922 -0.3748 -0.3998 -1.0566
   27SAPC   C21 3559   4.453   4.462   6.885  0.7620 -0.5682  0.2513
   27SAPC   O22 3560   4.531   4.460   6.792 -0.0909  0.2068  0.0027
   27SAPC   C22 3561   4.414   4.349   6.979 -0.0412  0.4945 -0.2993
   27SAPC   H2R 3562   4.469   4.369   7.074 -0.1717 -0.5377  0.0070
   27SAPC   H2S 3563   4.306   4.351   7.002  0.5013  0.5066  2.6917
   27SAPC    C3 3564   4.543   4.761   6.921  0.3691  0.7159  0.0564
   27SAPC    HX 3565   4.571   4.830   6.839 -3.1401 -1.6625 -3.5063
   27SAPC    HY 3566   4.626   4.688   6.934 -0.2080  0.1949  0.8672
   27SAPC   O31 3567   4.506   4.820   7.044 -0.3987  0.1540  0.0898
   27SAPC   C31 3568   4.607   4.883   7.106 -0.0806  0.0345 -0.3409
   27SAPC   O32 3569   4.712   4.910   7.054 -0.3273 -0.1712  0.0972
   27SAPC   C32 3570   4.570   4.918   7.255 -0.5550 -0.0040  0.2768
   27SAPC   H2X 3571   4.516   4.829   7.296 -0.2797 -1.3081 -2.0147
   27SAPC   H2Y 3572   4.496   4.998   7.238 -1.3682 -0.5872  0.9646
   27SAPC   C23 3573   4.468   4.207   6.936 -0.2993 -0.0692 -0.3515
   27SAPC   H3R 3574   4.571   4.206   6.895 -0.1028  2.9082 -0.1961
   27SAPC   H3S 3575   4.393   4.159   6.869 -1.1018 -0.1422  0.5673
   27SAPC   C24 3576   4.461   4.113   7.061  0.2079 -0.2807  0.6434
   27SAPC   H4R 3577   4.489   4.013   7.020 -0.0775 -0.4087  0.7556
   27SAPC   H4S 3578   4.354   4.106   7.089 -1.0663 -2.5497 -3.7418
   27SAPC   C25 3579   4.553   4.137   7.174  0.1586  0.9388 -0.7635
   27SAPC   H5R 3580   4.660   4.127   7.150  0.4085 -3.6936  1.1891
   27SAPC   C26 3581   4.509   4.121   7.303 -0.4745 -0.0300  0.0036
   27SAPC   H6R 3582   4.582   4.133   7.385 -0.8141  1.2479  0.1385
   27SAPC   C27 3583   4.375   4.083   7.361  0.4059 -0.1616  0.4995
   27SAPC   H7R 3584   4.312   4.045   7.278 -0.5240  1.0417  0.6226
   27SAPC   H7S 3585   4.320   4.174   7.394  0.1456 -0.3249  0.5185
   27SAPC   C28 3586   4.383   3.980   7.474  0.2073  0.3833 -0.2107
   27SAPC   H8R 3587   4.359   3.879   7.438 -0.6540  1.3074 -2.3672
   27SAPC   C29 3588   4.396   3.987   7.608 -0.2181  0.3791 -0.2743
   27SAPC   H9R 3589   4.378   3.898   7.669  1.4132 -0.7606 -1.3561
   27SAPC  C210 3590   4.415   4.112   7.687 -0.7831 -0.0840  0.0118
   27SAPC  H10R 3591   4.342   4.107   7.770 -1.3850  1.2905 -0.3894
   27SAPC  H10S 3592   4.382   4.200   7.628  1.9645 -0.6144 -2.5663
   27SAPC  C211 3593   4.555   4.150   7.748  0.6989  0.3523 -0.6095
   27SAPC  H11R 3594   4.641   4.167   7.682  1.1997 -0.5543 -0.2019
   27SAPC  C212 3595   4.577   4.147   7.883  0.1581  0.3194  0.3738
   27SAPC  H12R 3596   4.679   4.174   7.911 -0.1431  0.1953  1.6516
   27SAPC  C213 3597   4.491   4.121   8.001 -0.2131  0.3222  0.6129
   27SAPC  H13R 3598   4.406   4.191   7.984  0.1975  0.5430 -0.6025
   27SAPC  H13S 3599   4.549   4.138   8.095 -1.5785  0.9630  1.3788
   27SAPC  C214 3600   4.437   3.979   8.007  0.5434  0.1372 -0.5184
   27SAPC  H14R 3601   4.492   3.906   7.946 -0.4212  0.2134 -1.5048
   27SAPC  C215 3602   4.351   3.949   8.108 -0.2234 -0.2182  0.7793
   27SAPC  H15R 3603   4.324   3.843   8.116  2.5928 -1.0349  0.7727
   27SAPC  C216 3604   4.296   4.040   8.215 -0.2676 -0.4718  0.2055
   27SAPC  H16R 3605   4.188   4.019   8.228 -0.3251  0.6573  1.9150
   27SAPC  H16S 3606   4.311   4.144   8.180  0.2894 -0.2499  1.0564
   27SAPC  C217 3607   4.372   4.031   8.351  0.1134 -0.0857 -0.1350
   27SAPC  H17R 3608   4.349   4.121   8.413 -1.0711 -0.7245  0.3912
   27SAPC  H17S 3609   4.479   4.021   8.324  0.3619  1.8507 -0.0376
   27SAPC  C218 3610   4.321   3.920   8.440 -0.1038 -1.1184  0.0939
   27SAPC  H18R 3611   4.303   3.840   8.365  0.4987 -0.7718 -0.4331
   27SAPC  H18S 3612   4.224   3.947   8.487 -1.7896 -2.7403 -2.2562
   27SAPC  C219 3613   4.421   3.870   8.547  0.0982 -0.3314  0.7086
   27SAPC  H19R 3614   4.450   3.961   8.604 -2.6325  0.6378  0.6878
   27SAPC  H19S 3615   4.513   3.816   8.517  0.4286  0.1620  0.8192
   27SAPC  C220 3616   4.345   3.770   8.632  0.0264 -0.4563  0.1665
   27SAPC  H20R 3617   4.399   3.764   8.730 -1.8947 -1.4491  1.2235
   27SAPC  H20S 3618   4.330   3.675   8.577 -1.9302 -0.2211  0.2343
   27SAPC  H20T 3619   4.243   3.800   8.663 -0.4565 -2.5550  0.7796
   27SAPC   C33 3620   4.687   4.962   7.355 -0.8463 -0.1909 -0.2723
   27SAPC   H3X 3621   4.697   5.073   7.355 -1.3217 -0.1271  1.1861
   27SAPC   H3Y 3622   4.787   4.923   7.325 -1.1788 -1.5715  0.3120
   27SAPC   C34 3623   4.656   4.917   7.491 -0.4512  0.5805 -0.3009
   27SAPC   H4X 3624   4.650   4.806   7.499 -0.4057  0.6532  1.1154
   27SAPC   H4Y 3625   4.555   4.957   7.513 -1.4316 -0.5134 -2.5019
   27SAPC   C35 3626   4.756   4.967   7.596 -0.0966 -0.3865  0.2967
   27SAPC   H5X 3627   4.743   5.077   7.601  0.6181 -0.3134  0.8253
   27SAPC   H5Y 3628   4.863   4.955   7.569  0.1056  2.9753 -0.8018
   27SAPC   C36 3629   4.720   4.917   7.734  0.1396  0.2150  0.1483
   27SAPC   H6X 3630   4.773   4.823   7.755 -0.2982  0.0581  0.5595
   27SAPC   H6Y 3631   4.611   4.897   7.740  0.2224 -0.4450 -0.4985
   27SAPC   C37 3632   4.764   4.999   7.858 -0.2155 -0.2092 -0.0174
   27SAPC   H7X 3633   4.708   5.095   7.866 -0.2071 -0.2880  1.1163
   27SAPC   H7Y 3634   4.866   5.037   7.836 -0.7254  0.7192 -0.8851
   27SAPC   C38 3635   4.768   4.920   7.983  0.3021  0.8162 -0.1112
   27SAPC   H8X 3636   4.813   4.820   7.968  0.0508  0.6428  0.2607
   27SAPC   H8Y 3637   4.661   4.907   8.009  0.5402 -1.4927 -0.0769
   27SAPC   C39 3638   4.857   4.988   8.085 -0.2623 -0.3218 -0.6272
   27SAPC   H9X 3639   4.826   5.094   8.071 -2.6004 -0.9869 -0.8511
   27SAPC   H9Y 3640   4.965   4.988   8.060 -0.1106  1.4955 -0.1310
   27SAPC  C310 3641   4.852   4.936   8.226 -0.0651 -0.3616  0.1644
   27SAPC  H10X 3642   4.949   4.961   8.274 -0.7303  1.9555  0.4104
   27SAPC  H10Y 3643   4.847   4.825   8.227 -1.2365 -0.3245 -0.4045
   27SAPC  C311 3644   4.723   4.981   8.306  0.3223  0.2007  0.3474
   27SAPC  H11X 3645   4.635   4.944   8.249 -1.8590  1.0281  2.9817
   27SAPC  H11Y 3646   4.714   5.092   8.303 -1.3346  0.0717 -0.9322
   27SAPC  C312 3647   4.713   4.908   8.435 -0.4528  0.2363 -0.5804
   27SAPC  H12X 3648   4.792   4.948   8.502 -0.7798 -1.0241  0.6114
   27SAPC  H12Y 3649   4.715   4.797   8.432 -2.9221  0.1344 -0.4332
   27SAPC  C313 3650   4.592   4.945   8.525 -0.1438 -0.0926  0.3521
   27SAPC  H13X 3651   4.498   4.901   8.484  0.9854 -0.1207 -2.4307
   27SAPC  H13Y 3652   4.582   5.055   8.532 -3.7410 -0.1652 -1.2591
   27SAPC  C314 3653   4.599   4.908   8.674  0.5125  0.2695  0.4187
   27SAPC  H14X 3654   4.515   4.941   8.738  0.9167  1.0508  0.5518
   27SAPC  H14Y 3655   4.698   4.942   8.711  1.0748 -0.5723 -0.2639
   27SAPC  C315 3656   4.601   4.754   8.679 -0.2332  0.2092 -0.7989
   27SAPC  H15X 3657   4.691   4.701   8.642  1.2535  1.3707  0.9536
   27SAPC  H15Y 3658   4.517   4.716   8.617 -1.9793  1.6708  0.5560
   27SAPC  C316 3659   4.607   4.708   8.823 -0.6408 -0.2562  0.1260
   27SAPC  H16X 3660   4.517   4.748   8.874  0.6228  0.1216  2.1897
   27SAPC  H16Y 3661   4.701   4.748   8.867 -1.7729  3.1993 -0.3080
   27SAPC  C317 3662   4.610   4.559   8.846  0.5370 -0.7259 -0.3918
   27SAPC  H17X 3663   4.615   4.534   8.954 -1.3043  0.7249  0.0987
   27SAPC  H17Y 3664   4.700   4.523   8.792 -0.0730  0.0040 -1.9544
   27SAPC  C318 3665   4.483   4.490   8.786  0.1727  0.4987 -0.5177
   27SAPC  H18X 3666   4.488   4.493   8.676  0.4471 -1.8396 -0.6245
   27SAPC  H18Y 3667   4.390   4.536   8.826  0.3496  0.8573 -0.5193
   27SAPC  H18Z 3668   4.475   4.384   8.819 -0.2595  1.0237  1.1634
   28SAPC     N 3669   1.812   2.643   5.966 -0.0502  0.4670  0.5883
   28SAPC   C12 3670   1.803   2.593   6.111  0.1627 -0.8290  0.0788
   28SAPC  H12A 3671   1.860   2.502   6.121 -1.2275 -1.7110  0.2098
   28SAPC  H12B 3672   1.699   2.577   6.134  0.0350 -0.8612 -0.4847
   28SAPC   C13 3673   1.954   2.656   5.919  0.2281  0.0121  0.2370
   28SAPC  H13A 3674   2.009   2.563   5.913 -0.6872 -0.6525  1.6745
   28SAPC  H13B 3675   1.956   2.721   5.833  0.9574  1.7337  1.4992
   28SAPC  H13C 3676   2.015   2.709   5.990  0.7693  0.3741 -0.4885
   28SAPC   C14 3677   1.734   2.548   5.889  0.0523 -0.5567  0.0294
   28SAPC  H14A 3678   1.772   2.447   5.890 -2.7303 -1.6916  0.1374
   28SAPC  H14B 3679   1.631   2.558   5.922 -0.0026 -0.6004 -0.1240
   28SAPC  H14C 3680   1.728   2.578   5.785  0.5569 -0.8010 -0.0730
   28SAPC   C15 3681   1.740   2.776   5.953 -0.5039 -0.2644 -0.1456
   28SAPC  H15A 3682   1.769   2.823   5.860 -1.4340 -0.7358 -0.6752
   28SAPC  H15B 3683   1.634   2.762   5.964 -0.3146 -2.7156 -0.9046
   28SAPC  H15C 3684   1.777   2.850   6.024  0.2572  1.5086 -2.2755
   28SAPC   C11 3685   1.853   2.687   6.222  0.1677  0.2011 -0.2824
   28SAPC  H11A 3686   1.827   2.628   6.312 -0.7804  0.1273 -0.5988
   28SAPC  H11B 3687   1.797   2.782   6.225  0.5723  0.4301  0.1450
   28SAPC     P 3688   2.069   2.814   6.279  0.1418 -0.3933 -0.0549
   28SAPC   O13 3689   2.209   2.775   6.296  0.1969 -0.0210  0.0992
   28SAPC   O14 3690   2.036   2.934   6.197  0.1680 -0.1146  0.0422
   28SAPC   O12 3691   1.996   2.699   6.208  0.2434  0.8439 -0.3135
   28SAPC   O11 3692   1.988   2.829   6.417  0.2755 -0.5802  0.4783
   28SAPC    C1 3693   2.037   2.779   6.542 -0.2912 -0.4202 -0.0351
   28SAPC    HA 3694   2.140   2.737   6.541  0.5367  1.4234  1.2973
   28SAPC    HB 3695   2.037   2.862   6.617 -0.8761 -0.0008 -0.4836
   28SAPC    C2 3696   1.949   2.669   6.595 -0.2241  0.1580 -0.7547
   28SAPC    HS 3697   1.916   2.604   6.511 -0.4916  0.9624 -1.2791
   28SAPC   O21 3698   1.836   2.723   6.671  0.1313  0.3620  0.6477
   28SAPC   C21 3699   1.734   2.641   6.677 -0.5371 -0.7928  0.1730
   28SAPC   O22 3700   1.723   2.530   6.621  0.6186 -0.2516 -0.0947
   28SAPC   C22 3701   1.641   2.685   6.791 -0.2278  0.7770 -0.2515
   28SAPC   H2R 3702   1.616   2.593   6.847  0.6485  0.3978 -0.4619
   28SAPC   H2S 3703   1.697   2.760   6.852 -1.2802 -0.8083  2.8574
   28SAPC    C3 3704   2.034   2.584   6.693  0.4452  0.5549  0.1264
   28SAPC    HX 3705   2.118   2.532   6.642 -0.5564 -1.4538  0.4200
   28SAPC    HY 3706   1.975   2.503   6.741 -0.5514  0.8144 -0.6148
   28SAPC   O31 3707   2.089   2.664   6.797 -0.3116  0.9427  0.1244
   28SAPC   C31 3708   2.024   2.675   6.915  1.0176 -0.1253 -0.8212
   28SAPC   O32 3709   1.921   2.618   6.946  0.3158  0.3009 -0.1736
   28SAPC   C32 3710   2.101   2.792   6.991  0.2522 -0.5825  0.5764
   28SAPC   H2X 3711   2.103   2.879   6.922 -0.9077 -0.1900  0.9937
   28SAPC   H2Y 3712   2.203   2.751   7.003 -0.1431 -2.8238 -2.5143
   28SAPC   C23 3713   1.508   2.754   6.746 -0.3855  0.3114 -0.0393
   28SAPC   H3R 3714   1.456   2.678   6.683  0.7814 -1.3491  0.9224
   28SAPC   H3S 3715   1.527   2.845   6.686 -0.3992  1.5540  1.7664
   28SAPC   C24 3716   1.420   2.794   6.864  0.4874  0.2335  0.3837
   28SAPC   H4R 3717   1.319   2.822   6.829  0.3692 -0.0231  0.5171
   28SAPC   H4S 3718   1.401   2.698   6.917 -1.3725 -1.5399 -3.1372
   28SAPC   C25 3719   1.466   2.906   6.948  0.3169 -0.0020  0.0114
   28SAPC   H5R 3720   1.470   3.005   6.902 -2.4421  0.1664 -0.0080
   28SAPC   C26 3721   1.490   2.910   7.079 -0.0327  0.0453  0.0115
   28SAPC   H6R 3722   1.521   3.010   7.112  2.4119 -0.1850 -1.3645
   28SAPC   C27 3723   1.476   2.804   7.186 -0.5432  0.1284  0.1114
   28SAPC   H7R 3724   1.385   2.744   7.166  0.6741 -1.9811  0.6320
   28SAPC   H7S 3725   1.455   2.851   7.285  0.2480  0.2466  0.2317
   28SAPC   C28 3726   1.594   2.707   7.201  0.6386  0.5139 -0.1442
   28SAPC   H8R 3727   1.619   2.671   7.100 -0.2393  1.0970 -0.5797
   28SAPC   C29 3728   1.658   2.661   7.310  0.1901  0.0433 -0.9656
   28SAPC   H9R 3729   1.749   2.601   7.296  0.0565 -0.6137  0.7696
   28SAPC  C210 3730   1.609   2.699   7.448 -0.2750 -0.7189  0.3681
   28SAPC  H10R 3731   1.537   2.617   7.471 -1.2147 -1.3273 -3.9279
   28SAPC  H10S 3732   1.548   2.792   7.442  0.2283 -0.3816  0.4809
   28SAPC  C211 3733   1.709   2.728   7.550  0.6234 -0.2442  0.0148
   28SAPC  H11R 3734   1.768   2.819   7.529  0.0651  0.4121  1.1956
   28SAPC  C212 3735   1.726   2.683   7.681  0.4782 -0.3129  0.0099
   28SAPC  H12R 3736   1.810   2.725   7.738  0.7739  1.5480 -1.6602
   28SAPC  C213 3737   1.640   2.582   7.755  0.3238 -0.2069 -0.7155
   28SAPC  H13R 3738   1.586   2.525   7.676 -2.0664  0.8566  0.0606
   28SAPC  H13S 3739   1.554   2.639   7.797  1.4248  1.0097 -0.0557
   28SAPC  C214 3740   1.707   2.490   7.853 -0.1740 -0.2978  0.0140
   28SAPC  H14R 3741   1.801   2.446   7.815 -0.7298 -1.6139  0.0904
   28SAPC  C215 3742   1.662   2.448   7.970  0.7784 -0.0382  0.3217
   28SAPC  H15R 3743   1.721   2.376   8.028 -0.0764 -0.9646  0.0657
   28SAPC  C216 3744   1.533   2.474   8.034  0.3108 -0.1949 -0.5141
   28SAPC  H16R 3745   1.473   2.506   7.946 -0.2354  0.0147 -0.0710
   28SAPC  H16S 3746   1.532   2.548   8.117  1.9727  0.3918 -0.9865
   28SAPC  C217 3747   1.466   2.348   8.089  0.5550 -0.3996  0.6453
   28SAPC  H17R 3748   1.539   2.294   8.154 -0.1843 -2.6801 -0.3099
   28SAPC  H17S 3749   1.439   2.279   8.006  0.2645  0.7155 -0.2117
   28SAPC  C218 3750   1.339   2.383   8.166 -0.0568 -0.0324  0.6637
   28SAPC  H18R 3751   1.262   2.422   8.096  1.4551  0.0853 -1.0061
   28SAPC  H18S 3752   1.357   2.461   8.242 -0.6903  0.6961  0.0876
   28SAPC  C219 3753   1.274   2.261   8.244 -0.1585  0.3753 -0.3489
   28SAPC  H19R 3754   1.259   2.167   8.187  2.1727  0.4714 -1.2346
   28SAPC  H19S 3755   1.178   2.298   8.287  0.1323  0.8574 -0.1004
   28SAPC  C220 3756   1.348   2.219   8.375  0.2651  0.5441 -0.3226
   28SAPC  H20R 3757   1.452   2.204   8.339 -0.0643  1.4097 -1.7113
   28SAPC  H20S 3758   1.305   2.140   8.440  1.8671 -0.6050 -0.6203
   28SAPC  H20T 3759   1.355   2.307   8.443  1.9870  0.1251  0.0807
   28SAPC   C33 3760   2.037   2.821   7.127 -0.1868  0.4587 -0.1785
   28SAPC   H3X 3761   2.021   2.728   7.184 -1.3365  0.1296 -1.0007
   28SAPC   H3Y 3762   1.935   2.866   7.131 -0.4612 -0.0802 -0.9614
   28SAPC   C34 3763   2.136   2.907   7.205 -0.2288  0.0097 -0.7946
   28SAPC   H4X 3764   2.139   3.011   7.166 -0.3440  0.9163  1.4358
   28SAPC   H4Y 3765   2.238   2.867   7.189  0.1940  0.4156  0.6939
   28SAPC   C35 3766   2.102   2.922   7.355  0.0093 -0.0003  0.0870
   28SAPC   H5X 3767   1.993   2.933   7.376  0.3350  0.9032  1.3930
   28SAPC   H5Y 3768   2.161   3.009   7.390  0.8104 -0.1231 -0.9340
   28SAPC   C36 3769   2.134   2.793   7.428  0.0800  0.1825  0.1753
   28SAPC   H6X 3770   2.238   2.754   7.419  0.0665  0.3020 -0.5663
   28SAPC   H6Y 3771   2.067   2.710   7.398 -0.4060  1.0317 -1.2170
   28SAPC   C37 3772   2.113   2.817   7.580 -0.1612 -0.2942 -0.0980
   28SAPC   H7X 3773   2.008   2.837   7.611  0.1458 -1.8955  2.2022
   28SAPC   H7Y 3774   2.166   2.911   7.607 -0.4440 -1.1477  3.9774
   28SAPC   C38 3775   2.162   2.701   7.673 -0.1536 -0.1998 -0.1854
   28SAPC   H8X 3776   2.273   2.704   7.666 -0.1775 -0.3506 -0.6356
   28SAPC   H8Y 3777   2.117   2.609   7.631 -1.2164  0.8779 -1.5280
   28SAPC   C39 3778   2.114   2.708   7.823  0.7592  0.4562 -1.2577
   28SAPC   H9X 3779   2.005   2.693   7.833  0.7618  0.9745 -0.3931
   28SAPC   H9Y 3780   2.132   2.811   7.860  0.1193 -0.0546  0.5553
   28SAPC  C310 3781   2.180   2.591   7.901  0.1879 -0.2229 -0.3373
   28SAPC  H10X 3782   2.289   2.605   7.910  0.2631  0.5762 -2.0705
   28SAPC  H10Y 3783   2.149   2.496   7.852 -2.8621  0.6183 -0.2968
   28SAPC  C311 3784   2.118   2.583   8.040 -0.8793  0.4924 -0.2145
   28SAPC  H11X 3785   2.007   2.572   8.042 -0.8587  0.3427  1.2017
   28SAPC  H11Y 3786   2.143   2.677   8.094 -3.6317  0.4943  1.2919
   28SAPC  C312 3787   2.170   2.448   8.110  0.9404  0.0389  0.1515
   28SAPC  H12X 3788   2.121   2.351   8.088  1.7452 -0.2597 -0.3610
   28SAPC  H12Y 3789   2.146   2.459   8.218  1.4912 -1.0351  0.3906
   28SAPC  C313 3790   2.320   2.441   8.096  0.3818 -0.1618  0.1730
   28SAPC  H13X 3791   2.365   2.542   8.103 -3.2011  1.8167 -1.8730
   28SAPC  H13Y 3792   2.342   2.396   7.997  0.6224 -2.6325  1.2924
   28SAPC  C314 3793   2.388   2.348   8.202 -0.6497  0.0566  0.7115
   28SAPC  H14X 3794   2.491   2.319   8.170 -1.1210  0.9014 -1.7748
   28SAPC  H14Y 3795   2.324   2.260   8.225 -0.8151  0.3095  1.2357
   28SAPC  C315 3796   2.397   2.412   8.342  0.9098 -0.1509  0.5863
   28SAPC  H15X 3797   2.316   2.368   8.403  1.1377 -1.3076  0.0746
   28SAPC  H15Y 3798   2.366   2.518   8.328 -0.5473 -0.6458 -0.1649
   28SAPC  C316 3799   2.528   2.374   8.409 -0.0887 -0.0034 -0.8753
   28SAPC  H16X 3800   2.566   2.449   8.482 -2.2901 -1.2347  1.7629
   28SAPC  H16Y 3801   2.612   2.370   8.337 -0.7268  1.2392 -1.7322
   28SAPC  C317 3802   2.532   2.234   8.479  0.4835  0.6101 -0.1336
   28SAPC  H17X 3803   2.495   2.153   8.413 -1.3144  1.5035 -0.3118
   28SAPC  H17Y 3804   2.463   2.236   8.567 -1.3709  0.9094 -1.5316
   28SAPC  C318 3805   2.677   2.214   8.524  0.2892  0.0947  0.4712
   28SAPC  H18X 3806   2.738   2.218   8.431 -2.1325  0.1645 -1.2107
   28SAPC  H18Y 3807   2.683   2.114   8.573 -0.8193 -0.3751 -0.3110
   28SAPC  H18Z 3808   2.722   2.294   8.586  1.0504  0.8109 -0.9609
   29SAPC     N 3809   4.546   0.196   6.237  0.6361 -0.3783  0.3528
   29SAPC   C12 3810   4.472   0.329   6.256  0.6815  0.0409  0.2779
   29SAPC  H12A 3811   4.392   0.340   6.185  0.4250  0.3399  0.6090
   29SAPC  H12B 3812   4.541   0.406   6.225  0.0773  0.6829  0.5000
   29SAPC   C13 3813   4.686   0.203   6.288  0.1478 -0.1299  0.2100
   29SAPC  H13A 3814   4.744   0.115   6.266 -0.8102 -0.4043 -1.3690
   29SAPC  H13B 3815   4.737   0.285   6.239  2.1284 -1.7148 -0.5008
   29SAPC  H13C 3816   4.701   0.215   6.394 -0.1950  0.6552  0.1779
   29SAPC   C14 3817   4.469   0.082   6.302 -0.7453  0.1037 -0.2466
   29SAPC  H14A 3818   4.441   0.120   6.399 -0.2688 -0.6210  0.1794
   29SAPC  H14B 3819   4.377   0.076   6.245 -0.7940  0.2882 -0.1890
   29SAPC  H14C 3820   4.528  -0.007   6.321  0.0940  0.9385  1.2771
   29SAPC   C15 3821   4.565   0.163   6.094  0.1174 -0.0144  0.2028
   29SAPC  H15A 3822   4.627   0.233   6.040  0.6720  0.2839  1.2030
   29SAPC  H15B 3823   4.627   0.075   6.093 -0.2056 -0.3369 -3.2730
   29SAPC  H15C 3824   4.475   0.132   6.042  0.5753  0.6523 -1.0261
   29SAPC   C11 3825   4.415   0.366   6.394 -0.7549 -0.2072 -0.3486
   29SAPC  H11A 3826   4.394   0.475   6.397 -0.9714 -0.2497 -0.3134
   29SAPC  H11B 3827   4.488   0.353   6.477 -1.9414  1.3182  1.0084
   29SAPC     P 3828   4.166   0.355   6.320  0.1621 -0.1777  0.2554
   29SAPC   O13 3829   4.182   0.501   6.288  0.2333 -0.5058  0.1828
   29SAPC   O14 3830   4.150   0.266   6.204  0.0270 -0.3466  0.3390
   29SAPC   O12 3831   4.290   0.306   6.408 -0.2530 -0.1935  0.2725
   29SAPC   O11 3832   4.041   0.332   6.406 -0.0290  0.6502  0.3146
   29SAPC    C1 3833   4.031   0.201   6.474 -0.5887 -0.5616 -0.2122
   29SAPC    HA 3834   3.940   0.147   6.439  0.7567 -0.8025 -3.7009
   29SAPC    HB 3835   4.119   0.136   6.455 -1.3328 -1.2866 -1.3514
   29SAPC    C2 3836   4.029   0.231   6.625 -0.0624  0.4268 -0.4219
   29SAPC    HS 3837   3.933   0.285   6.642 -0.3639 -0.2787  0.1865
   29SAPC   O21 3838   4.143   0.310   6.652 -0.1236 -0.5529  0.5451
   29SAPC   C21 3839   4.113   0.440   6.700  0.1176  0.2323  0.8069
   29SAPC   O22 3840   4.004   0.486   6.702  0.0001 -0.3848 -0.4616
   29SAPC   C22 3841   4.244   0.510   6.740  0.9345  0.8541  0.4225
   29SAPC   H2R 3842   4.315   0.426   6.750 -1.6456 -1.2905  2.0753
   29SAPC   H2S 3843   4.274   0.566   6.648 -0.3784 -0.3820 -0.8034
   29SAPC    C3 3844   4.026   0.099   6.714 -0.2086 -0.5728 -0.1838
   29SAPC    HX 3845   4.116   0.040   6.685  0.7839  0.1993  1.1806
   29SAPC    HY 3846   3.930   0.050   6.687 -2.2946  2.9710  0.1856
   29SAPC   O31 3847   4.034   0.136   6.856 -0.8015  0.2068  0.3891
   29SAPC   C31 3848   3.912   0.146   6.914 -0.7924 -0.2434 -0.4965
   29SAPC   O32 3849   3.804   0.129   6.862 -0.7912 -0.4020 -0.0475
   29SAPC   C32 3850   3.942   0.168   7.064 -0.7980  0.3956 -0.2860
   29SAPC   H2X 3851   4.013   0.254   7.068  0.7135 -0.7631 -1.0402
   29SAPC   H2Y 3852   3.990   0.076   7.105 -1.0408 -0.1612 -1.2332
   29SAPC   C23 3853   4.226   0.603   6.862  0.1029  0.5824 -0.6715
   29SAPC   H3R 3854   4.142   0.673   6.844 -0.1932  0.2684 -0.5192
   29SAPC   H3S 3855   4.321   0.659   6.877 -0.6350  1.7609 -0.2675
   29SAPC   C24 3856   4.191   0.526   6.987 -0.2407  0.7366 -0.6320
   29SAPC   H4R 3857   4.269   0.449   7.010  0.0422  0.5236 -2.1924
   29SAPC   H4S 3858   4.093   0.474   6.982  0.4991 -0.7350 -0.3753
   29SAPC   C25 3859   4.187   0.623   7.095  0.4064  0.4149 -0.0776
   29SAPC   H5R 3860   4.162   0.728   7.074  0.5237  0.3534 -0.5346
   29SAPC   C26 3861   4.207   0.594   7.223  0.1919  0.4183  0.1901
   29SAPC   H6R 3862   4.203   0.679   7.292  0.5608  2.6291 -2.3562
   29SAPC   C27 3863   4.229   0.454   7.279  0.4968  0.9248 -0.1749
   29SAPC   H7R 3864   4.196   0.381   7.202 -0.7618  1.7989 -0.4984
   29SAPC   H7S 3865   4.159   0.453   7.366  1.6663 -0.0216  0.7936
   29SAPC   C28 3866   4.365   0.426   7.340  0.1764  0.2608 -0.2869
   29SAPC   H8R 3867   4.436   0.373   7.274 -0.1198 -0.7860  0.2125
   29SAPC   C29 3868   4.410   0.458   7.461  0.3961 -0.2783  0.3297
   29SAPC   H9R 3869   4.506   0.415   7.495 -0.5055 -0.7940  2.4383
   29SAPC  C210 3870   4.339   0.533   7.574  0.6018  0.2973 -0.5564
   29SAPC  H10R 3871   4.260   0.604   7.542 -0.1417  0.5218  1.6322
   29SAPC  H10S 3872   4.414   0.599   7.623  2.5392 -2.9488  1.1542
   29SAPC  C211 3873   4.276   0.433   7.661 -0.2531  0.1082  0.0840
   29SAPC  H11R 3874   4.217   0.360   7.604 -0.2185  0.2635 -0.1525
   29SAPC  C212 3875   4.312   0.401   7.791  0.0300 -0.8809  0.8319
   29SAPC  H12R 3876   4.253   0.323   7.843 -0.0898  0.1527  2.3105
   29SAPC  C213 3877   4.417   0.466   7.879 -0.4495 -0.0869 -0.6054
   29SAPC  H13R 3878   4.372   0.548   7.939 -0.4129  0.0022 -0.6991
   29SAPC  H13S 3879   4.491   0.512   7.810  0.4342 -2.5143 -1.3768
   29SAPC  C214 3880   4.493   0.366   7.967  0.2020 -0.7586 -0.3633
   29SAPC  H14R 3881   4.507   0.265   7.925  0.5261 -1.6358  1.7479
   29SAPC  C215 3882   4.557   0.396   8.080 -0.2633 -0.3958  0.2351
   29SAPC  H15R 3883   4.602   0.314   8.139 -0.1227 -0.0480  0.6186
   29SAPC  C216 3884   4.560   0.527   8.153 -0.6709  0.4635  0.5111
   29SAPC  H16R 3885   4.470   0.514   8.218 -0.7071 -0.8127  0.2312
   29SAPC  H16S 3886   4.541   0.610   8.082 -0.1286 -0.0687 -0.2581
   29SAPC  C217 3887   4.695   0.566   8.218  0.1069  1.3930  0.0732
   29SAPC  H17R 3888   4.740   0.473   8.259 -2.0145  0.4535  0.4218
   29SAPC  H17S 3889   4.695   0.648   8.292  0.2586 -0.6457  2.4643
   29SAPC  C218 3890   4.794   0.602   8.101  0.8827 -0.1374 -0.4717
   29SAPC  H18R 3891   4.748   0.696   8.065  1.5566  1.6981  3.0667
   29SAPC  H18S 3892   4.806   0.530   8.017  1.4963  1.1595 -1.5367
   29SAPC  C219 3893   4.938   0.619   8.150 -0.4774  0.2170  0.0941
   29SAPC  H19R 3894   4.968   0.537   8.218 -0.3183 -1.1592 -1.5766
   29SAPC  H19S 3895   4.956   0.711   8.210 -0.7803  0.3038  0.0520
   29SAPC  C220 3896   5.034   0.625   8.027 -0.1079 -0.7563  0.2110
   29SAPC  H20R 3897   4.984   0.677   7.942 -1.5244  0.7974  1.8951
   29SAPC  H20S 3898   5.080   0.527   8.002 -0.5592 -1.0991  0.7053
   29SAPC  H20T 3899   5.122   0.691   8.041  0.1102 -0.7177 -1.1647
   29SAPC   C33 3900   3.817   0.190   7.149  0.3262 -0.0390 -0.5257
   29SAPC   H3X 3901   3.768   0.091   7.155  0.1513  0.0232 -0.9022
   29SAPC   H3Y 3902   3.742   0.254   7.096  0.2343 -0.8796 -1.4397
   29SAPC   C34 3903   3.855   0.247   7.291  0.1558  0.8557  0.1378
   29SAPC   H4X 3904   3.756   0.262   7.340  0.5425 -1.3764  1.7361
   29SAPC   H4Y 3905   3.898   0.349   7.279 -2.1912  1.8399 -0.4205
   29SAPC   C35 3906   3.937   0.149   7.379 -0.0023 -0.6678  0.1842
   29SAPC   H5X 3907   4.031   0.128   7.323 -1.0207 -1.1720 -1.3985
   29SAPC   H5Y 3908   3.876   0.057   7.393 -1.3548 -0.2273 -2.2337
   29SAPC   C36 3909   3.982   0.204   7.516  0.6119  0.7219 -0.2608
   29SAPC   H6X 3910   3.893   0.199   7.582 -1.2323 -0.4321 -2.6645
   29SAPC   H6Y 3911   4.012   0.311   7.513  0.0660  0.8555 -2.2404
   29SAPC   C37 3912   4.070   0.115   7.603  0.3498  0.8514  0.3853
   29SAPC   H7X 3913   4.012   0.024   7.631  1.6106 -0.3736 -0.7828
   29SAPC   H7Y 3914   4.102   0.170   7.694  0.6400 -0.1751  0.9264
   29SAPC   C38 3915   4.186   0.038   7.536  0.8524  0.0862 -0.8838
   29SAPC   H8X 3916   4.264   0.108   7.497  0.8091  0.3967 -0.4206
   29SAPC   H8Y 3917   4.144  -0.011   7.446 -0.1646 -1.6020  0.4532
   29SAPC   C39 3918   4.257  -0.061   7.632 -0.3656  0.7223 -0.2353
   29SAPC   H9X 3919   4.313  -0.120   7.556 -3.0339  0.5606 -2.2031
   29SAPC   H9Y 3920   4.182  -0.129   7.677 -0.0563 -1.0228 -2.1789
   29SAPC  C310 3921   4.335  -0.001   7.747 -0.2977 -0.0111 -0.2938
   29SAPC  H10X 3922   4.283   0.063   7.821 -2.3282 -1.4463 -0.3958
   29SAPC  H10Y 3923   4.423   0.053   7.705 -0.5032  0.5256 -0.0429
   29SAPC  C311 3924   4.391  -0.117   7.823  0.2507 -0.3149 -0.7228
   29SAPC  H11X 3925   4.481  -0.150   7.768  2.1059  2.7354  0.2625
   29SAPC  H11Y 3926   4.319  -0.202   7.825 -0.5649  0.2808  3.1971
   29SAPC  C312 3927   4.423  -0.085   7.971 -0.3770  0.3500  0.0061
   29SAPC  H12X 3928   4.331  -0.053   8.025 -1.2842 -1.1689 -0.5704
   29SAPC  H12Y 3929   4.488   0.004   7.984 -1.7232  1.1348  1.7030
   29SAPC  C313 3930   4.489  -0.196   8.040  0.2720  0.1966 -0.0064
   29SAPC  H13X 3931   4.574  -0.233   7.978  1.4725 -1.1054  2.3020
   29SAPC  H13Y 3932   4.411  -0.275   8.047 -0.8923  1.4597  2.1287
   29SAPC  C314 3933   4.559  -0.178   8.172  0.2293  0.1473  0.0736
   29SAPC  H14X 3934   4.489  -0.146   8.251 -0.6545  3.7150 -1.9731
   29SAPC  H14Y 3935   4.630  -0.096   8.151  0.1168 -0.5574 -3.9701
   29SAPC  C315 3936   4.639  -0.297   8.216  0.2700 -0.0657 -0.8845
   29SAPC  H15X 3937   4.707  -0.325   8.132  0.4024 -1.3963 -0.3513
   29SAPC  H15Y 3938   4.563  -0.378   8.227  1.6195 -1.0738  1.6356
   29SAPC  C316 3939   4.718  -0.268   8.338 -0.1389 -0.1385  0.4343
   29SAPC  H16X 3940   4.660  -0.244   8.429  0.9075  0.2825  0.9983
   29SAPC  H16Y 3941   4.769  -0.175   8.304  2.1309 -1.5228 -0.1372
   29SAPC  C317 3942   4.821  -0.378   8.381  0.1808  0.0318  0.1378
   29SAPC  H17X 3943   4.868  -0.416   8.288  1.3703  1.0698  0.2945
   29SAPC  H17Y 3944   4.753  -0.446   8.436 -1.5339  1.8243  0.3631
   29SAPC  C318 3945   4.928  -0.322   8.473 -0.5121  0.0511 -0.3359
   29SAPC  H18X 3946   5.002  -0.264   8.413  0.9077  0.6259  1.8709
   29SAPC  H18Y 3947   4.993  -0.400   8.518  2.1364  1.7681 -0.9744
   29SAPC  H18Z 3948   4.886  -0.255   8.550 -0.4819  0.0960 -0.3578
   30SAPC     N 3949   0.172   5.522   5.901  0.2893 -0.1739 -0.7960
   30SAPC   C12 3950   0.029   5.518   5.938  0.2665 -0.7500  0.2199
   30SAPC  H12A 3951   0.014   5.473   6.035 -0.0584  0.1834  0.6128
   30SAPC  H12B 3952  -0.025   5.452   5.872 -1.6400  0.1753  0.7715
   30SAPC   C13 3953   0.243   5.598   6.007 -0.5148 -0.5657 -0.2060
   30SAPC  H13A 3954   0.236   5.556   6.106  1.5116  0.7511  0.5670
   30SAPC  H13B 3955   0.348   5.604   5.984  0.0994 -0.7638  2.2858
   30SAPC  H13C 3956   0.208   5.700   6.004  1.2123  0.0353 -1.1866
   30SAPC   C14 3957   0.244   5.387   5.900  0.5066  0.3557 -0.5829
   30SAPC  H14A 3958   0.248   5.343   5.999 -1.1286 -2.2543 -1.5839
   30SAPC  H14B 3959   0.188   5.311   5.848 -0.9327  0.6282  0.5105
   30SAPC  H14C 3960   0.345   5.398   5.863  0.7078 -0.3716 -0.2721
   30SAPC   C15 3961   0.190   5.570   5.765 -0.0672 -0.5180 -0.0086
   30SAPC  H15A 3962   0.294   5.582   5.739 -0.3748  1.8591 -0.3927
   30SAPC  H15B 3963   0.170   5.497   5.689 -0.6253 -1.1725  0.7493
   30SAPC  H15C 3964   0.130   5.656   5.740 -2.2395 -1.8180  0.4347
   30SAPC   C11 3965  -0.050   5.650   5.934  0.0247  0.0804  0.4019
   30SAPC  H11A 3966  -0.155   5.615   5.941  0.0620 -0.2170 -0.3903
   30SAPC  H11B 3967  -0.040   5.706   5.838 -0.0595 -1.8398 -0.7658
   30SAPC     P 3968  -0.065   5.876   6.062  0.0449  0.4763 -0.3093
   30SAPC   O13 3969  -0.018   5.964   5.951  0.4350  0.0739  0.4145
   30SAPC   O14 3970  -0.209   5.882   6.094 -0.4051  0.0926  0.1668
   30SAPC   O12 3971  -0.013   5.732   6.042 -0.3641 -0.0627 -0.3660
   30SAPC   O11 3972   0.013   5.923   6.201  0.1562  0.1003 -0.4151
   30SAPC    C1 3973   0.111   5.835   6.260  0.7929 -0.3423 -0.0516
   30SAPC    HA 3974   0.066   5.739   6.296  2.1555 -1.2279 -0.6381
   30SAPC    HB 3975   0.183   5.800   6.183 -1.6175 -5.7093 -0.3444
   30SAPC    C2 3976   0.187   5.919   6.364 -0.2334  0.1378 -0.7341
   30SAPC    HS 3977   0.251   5.852   6.425 -0.3466 -0.3281 -1.1223
   30SAPC   O21 3978   0.098   5.987   6.459  0.1204 -0.5768  0.1880
   30SAPC   C21 3979   0.027   5.907   6.535  0.9758 -0.4729 -0.6212
   30SAPC   O22 3980   0.030   5.788   6.543  0.0476  0.6174  0.1653
   30SAPC   C22 3981  -0.061   5.992   6.623 -0.3761 -0.1918  0.0750
   30SAPC   H2R 3982  -0.081   6.085   6.566  0.5098 -0.4243 -0.6438
   30SAPC   H2S 3983  -0.159   5.939   6.615  0.5896 -1.8430 -2.3347
   30SAPC    C3 3984   0.288   6.020   6.295 -0.0542 -0.9008 -0.0913
   30SAPC    HX 3985   0.232   6.093   6.232  1.5950  0.3929 -0.1163
   30SAPC    HY 3986   0.361   5.973   6.226 -0.4435 -0.0801 -1.1008
   30SAPC   O31 3987   0.364   6.093   6.394 -0.0363  0.5620  0.2881
   30SAPC   C31 3988   0.319   6.206   6.450 -0.1291 -0.0529  0.5737
   30SAPC   O32 3989   0.213   6.266   6.418 -0.4114 -0.4222  0.2432
   30SAPC   C32 3990   0.411   6.253   6.561  0.1581 -0.2037 -0.1178
   30SAPC   H2X 3991   0.516   6.250   6.525  0.5582 -0.1847  1.0304
   30SAPC   H2Y 3992   0.412   6.177   6.642  1.3387  0.3197  0.3887
   30SAPC   C23 3993  -0.024   6.015   6.770 -0.5411 -0.0955  0.1518
   30SAPC   H3R 3994   0.074   6.068   6.768 -1.1271  1.0914  1.3411
   30SAPC   H3S 3995   0.002   5.928   6.834  0.8908  1.3531  1.6693
   30SAPC   C24 3996  -0.132   6.095   6.846  1.2040  0.8017  0.3438
   30SAPC   H4R 3997  -0.169   6.170   6.774  0.4222  2.7039  2.5968
   30SAPC   H4S 3998  -0.091   6.146   6.936 -2.6929 -1.0622  3.4702
   30SAPC   C25 3999  -0.260   6.024   6.888  0.6877  0.3821 -0.0281
   30SAPC   H5R 4000  -0.329   6.011   6.803  1.1968  1.7003 -0.6711
   30SAPC   C26 4001  -0.288   5.969   7.007  0.4948  0.6596  0.3415
   30SAPC   H6R 4002  -0.388   5.926   7.024 -0.5999  2.9479  0.1283
   30SAPC   C27 4003  -0.192   5.967   7.121 -0.0786 -0.3212  0.4259
   30SAPC   H7R 4004  -0.091   6.010   7.106  0.3853  0.3142  4.3333
   30SAPC   H7S 4005  -0.181   5.858   7.140  3.2517 -0.0934  0.3052
   30SAPC   C28 4006  -0.253   6.039   7.243  0.8526 -0.1795  0.1594
   30SAPC   H8R 4007  -0.317   6.123   7.212  0.1462 -1.3074 -1.5669
   30SAPC   C29 4008  -0.244   5.997   7.376 -0.2766  0.3861 -0.0022
   30SAPC   H9R 4009  -0.293   6.048   7.461  1.0766 -0.1214  1.0997
   30SAPC  C210 4010  -0.153   5.882   7.415  0.2667  0.1918 -0.6685
   30SAPC  H10R 4011  -0.093   5.918   7.501 -0.9724 -1.3497  0.9261
   30SAPC  H10S 4012  -0.071   5.858   7.345  3.7313  1.1299  2.7272
   30SAPC  C211 4013  -0.231   5.755   7.450  0.4114  0.4092 -0.1924
   30SAPC  H11R 4014  -0.265   5.698   7.362  0.8669  0.0448 -0.1370
   30SAPC  C212 4015  -0.257   5.715   7.576  0.9220 -0.4979 -0.8269
   30SAPC  H12R 4016  -0.306   5.617   7.587  1.9387 -1.1606 -1.9890
   30SAPC  C213 4017  -0.228   5.799   7.698  0.3737 -0.1195  0.3514
   30SAPC  H13R 4018  -0.206   5.904   7.669 -0.2351 -0.0735  0.0396
   30SAPC  H13S 4019  -0.142   5.759   7.756  0.6416 -0.7314 -0.4419
   30SAPC  C214 4020  -0.357   5.798   7.781  0.5386 -0.1813 -0.0949
   30SAPC  H14R 4021  -0.444   5.849   7.737  0.4505 -0.2917 -0.0466
   30SAPC  C215 4022  -0.373   5.778   7.915  0.0614 -0.0087  0.7955
   30SAPC  H15R 4023  -0.474   5.792   7.956 -0.9560  0.1966 -1.6332
   30SAPC  C216 4024  -0.263   5.748   8.012  0.4831 -0.2998  0.2108
   30SAPC  H16R 4025  -0.174   5.695   7.971 -1.5464 -5.7525  1.9171
   30SAPC  H16S 4026  -0.317   5.673   8.073 -4.6238  2.2308 -0.6661
   30SAPC  C217 4027  -0.212   5.864   8.103  0.3863 -0.0478  0.5142
   30SAPC  H17R 4028  -0.191   5.939   8.024 -0.9892 -1.4901 -1.3338
   30SAPC  H17S 4029  -0.110   5.848   8.144  0.5054 -1.4306 -0.2491
   30SAPC  C218 4030  -0.307   5.915   8.218 -0.1895  0.1771 -0.2093
   30SAPC  H18R 4031  -0.413   5.921   8.188 -0.7313  0.1833  1.6218
   30SAPC  H18S 4032  -0.278   6.018   8.249 -0.5324 -0.2941  1.8407
   30SAPC  C219 4033  -0.285   5.838   8.352  0.1126  0.1513 -0.2338
   30SAPC  H19R 4034  -0.177   5.848   8.377  0.4742 -1.6176 -0.9449
   30SAPC  H19S 4035  -0.309   5.733   8.326  3.0547 -0.2295 -1.7797
   30SAPC  C220 4036  -0.367   5.870   8.475  0.2578 -0.0927 -0.0225
   30SAPC  H20R 4037  -0.468   5.887   8.431  0.5674  1.5563 -0.1598
   30SAPC  H20S 4038  -0.332   5.965   8.522 -2.4171  0.8832  0.1565
   30SAPC  H20T 4039  -0.360   5.782   8.542  1.8438 -0.9112 -1.1975
   30SAPC   C33 4040   0.379   6.407   6.607  0.1363  0.3230 -0.8984
   30SAPC   H3X 4041   0.377   6.462   6.511  0.1941  0.4271 -0.8393
   30SAPC   H3Y 4042   0.466   6.436   6.669  0.7798 -2.3199 -0.4088
   30SAPC   C34 4043   0.251   6.427   6.691  0.3668 -0.0165  0.2746
   30SAPC   H4X 4044   0.170   6.361   6.655  0.7203 -0.0634 -0.4549
   30SAPC   H4Y 4045   0.210   6.528   6.672  0.4059 -0.2512 -1.1646
   30SAPC   C35 4046   0.275   6.402   6.835 -0.9565 -0.5128 -0.3035
   30SAPC   H5X 4047   0.352   6.470   6.875  0.8869 -2.5821 -0.1149
   30SAPC   H5Y 4048   0.323   6.303   6.851  0.6089  0.0899 -1.0507
   30SAPC   C36 4049   0.144   6.395   6.916  0.2335 -0.8725 -0.0734
   30SAPC   H6X 4050   0.085   6.313   6.872 -0.0191 -0.3903 -0.6496
   30SAPC   H6Y 4051   0.097   6.493   6.891 -2.0630 -1.5167  1.4104
   30SAPC   C37 4052   0.177   6.395   7.060  0.0175  0.5254 -0.5386
   30SAPC   H7X 4053   0.228   6.492   7.083 -0.7072  0.9808 -0.8285
   30SAPC   H7Y 4054   0.234   6.303   7.083 -0.0332  0.1950 -1.6684
   30SAPC   C38 4055   0.047   6.385   7.136 -0.5452  0.5174  0.0968
   30SAPC   H8X 4056  -0.020   6.321   7.075 -1.3266  2.3976 -1.1180
   30SAPC   H8Y 4057  -0.011   6.480   7.147  0.9763  1.8140 -2.1875
   30SAPC   C39 4058   0.059   6.331   7.284  0.2312 -0.0089  0.5986
   30SAPC   H9X 4059   0.082   6.223   7.273 -1.6294 -0.3569 -0.2452
   30SAPC   H9Y 4060  -0.036   6.332   7.342 -0.2995  1.0387 -0.2476
   30SAPC  C310 4061   0.165   6.401   7.359 -0.1977  0.0900  0.4977
   30SAPC  H10X 4062   0.125   6.499   7.392  0.5223  0.0538  1.5189
   30SAPC  H10Y 4063   0.254   6.430   7.299  0.3957  0.5780  1.5913
   30SAPC  C311 4064   0.218   6.313   7.479 -0.1678 -0.5362  0.4130
   30SAPC  H11X 4065   0.299   6.248   7.441  1.7489  2.4933 -1.1019
   30SAPC  H11Y 4066   0.136   6.245   7.509  0.0357  0.5486  3.7911
   30SAPC  C312 4067   0.258   6.392   7.602  0.4363 -0.3366  0.3287
   30SAPC  H12X 4068   0.171   6.451   7.637 -1.0056 -1.2652 -1.5088
   30SAPC  H12Y 4069   0.336   6.464   7.568  0.0214  1.1449  2.3108
   30SAPC  C313 4070   0.314   6.311   7.716 -0.1759 -0.3096 -0.3625
   30SAPC  H13X 4071   0.393   6.240   7.683 -1.6238 -2.4464  0.5251
   30SAPC  H13Y 4072   0.234   6.251   7.765  1.3935 -0.5102  2.1412
   30SAPC  C314 4073   0.371   6.385   7.841 -0.3796 -0.2224 -0.9143
   30SAPC  H14X 4074   0.286   6.448   7.876  1.8895  2.4044  0.2622
   30SAPC  H14Y 4075   0.446   6.460   7.807  0.4111 -0.5900 -0.0451
   30SAPC  C315 4076   0.430   6.306   7.959 -0.1707  0.7502 -0.5966
   30SAPC  H15X 4077   0.528   6.260   7.933 -0.2930 -0.0050  0.2593
   30SAPC  H15Y 4078   0.368   6.222   7.996 -0.0696  1.1089  0.4257
   30SAPC  C316 4079   0.476   6.396   8.070 -0.1931 -0.2289  0.0675
   30SAPC  H16X 4080   0.395   6.436   8.136  0.6674 -1.6617  2.0582
   30SAPC  H16Y 4081   0.534   6.486   8.042 -1.6591  1.3273  1.7134
   30SAPC  C317 4082   0.554   6.311   8.178  0.8776 -0.1384 -0.5332
   30SAPC  H17X 4083   0.593   6.381   8.254  0.9023 -0.4559 -0.2532
   30SAPC  H17Y 4084   0.648   6.271   8.133  1.3709 -0.7150  0.9402
   30SAPC  C318 4085   0.491   6.186   8.248  0.7382  0.2048  0.4882
   30SAPC  H18X 4086   0.498   6.099   8.179 -0.9538  0.2292  0.2407
   30SAPC  H18Y 4087   0.381   6.194   8.261  0.2270 -2.1053 -1.6124
   30SAPC  H18Z 4088   0.543   6.165   8.344  0.7177  0.0900  0.4745
   31SAPC     N 4089   0.948   0.047   5.796  0.2220 -0.0830 -0.2269
   31SAPC   C12 4090   0.938  -0.071   5.897 -0.2155  0.5798 -0.7548
   31SAPC  H12A 4091   1.005  -0.152   5.872 -2.3166 -1.9820  1.2807
   31SAPC  H12B 4092   0.840  -0.113   5.883 -1.1000  1.9588  0.8256
   31SAPC   C13 4093   1.075   0.120   5.821  0.0148  0.3183 -0.2651
   31SAPC  H13A 4094   1.154   0.047   5.816  0.0117  0.2903  0.0721
   31SAPC  H13B 4095   1.089   0.197   5.747 -0.0319 -0.9651 -1.6386
   31SAPC  H13C 4096   1.068   0.171   5.917  1.1271 -0.5321  0.2928
   31SAPC   C14 4097   0.949  -0.005   5.661  0.3306 -0.4095  0.7549
   31SAPC  H14A 4098   1.045  -0.031   5.619 -1.7766 -3.8589 -2.7149
   31SAPC  H14B 4099   0.880  -0.087   5.645  0.4854 -0.9129  2.4860
   31SAPC  H14C 4100   0.918   0.067   5.586  1.6806  0.5030  1.0406
   31SAPC   C15 4101   0.830   0.138   5.807  0.5572 -0.4701  0.1615
   31SAPC  H15A 4102   0.735   0.101   5.771  0.7590  1.3968 -2.5805
   31SAPC  H15B 4103   0.834   0.171   5.909  0.5471  1.0933 -0.3275
   31SAPC  H15C 4104   0.853   0.225   5.747  1.0191 -0.0571  0.9230
   31SAPC   C11 4105   0.963  -0.048   6.047  0.8288 -0.2468 -0.1664
   31SAPC  H11A 4106   1.070  -0.034   6.069  1.1949 -1.8491 -0.7707
   31SAPC  H11B 4107   0.946  -0.150   6.087 -1.0488 -0.2100 -0.7639
   31SAPC     P 4108   0.920   0.147   6.222  0.2334  0.1684  0.0572
   31SAPC   O13 4109   1.031   0.222   6.155  0.2924 -0.7829 -0.1745
   31SAPC   O14 4110   0.801   0.230   6.268 -0.3069 -0.0982  0.1596
   31SAPC   O12 4111   0.865   0.038   6.113 -0.2183 -0.3528  0.5644
   31SAPC   O11 4112   0.984   0.062   6.338 -0.2903 -0.3499 -0.5134
   31SAPC    C1 4113   0.967  -0.068   6.374  0.2988 -0.1256 -0.3039
   31SAPC    HA 4114   0.886  -0.112   6.312 -0.0046  2.7143 -2.1075
   31SAPC    HB 4115   1.051  -0.140   6.366 -2.2132 -3.3464  0.0958
   31SAPC    C2 4116   0.922  -0.074   6.524  0.5437  0.3332 -0.4341
   31SAPC    HS 4117   0.881  -0.173   6.553 -0.5871  0.6564 -0.8492
   31SAPC   O21 4118   0.816   0.015   6.549  0.0071 -0.2922 -0.0138
   31SAPC   C21 4119   0.699   0.005   6.478  0.2631  1.0659  0.0065
   31SAPC   O22 4120   0.671  -0.079   6.396 -0.2768 -0.2381 -0.1918
   31SAPC   C22 4121   0.596   0.099   6.543  0.3234 -0.8958 -0.2385
   31SAPC   H2R 4122   0.645   0.190   6.583  0.3174 -0.6749 -0.7251
   31SAPC   H2S 4123   0.517   0.130   6.472  1.2745  1.7358 -0.2561
   31SAPC    C3 4124   1.033  -0.038   6.619 -0.0059 -0.1330 -0.0923
   31SAPC    HX 4125   1.073   0.059   6.584  2.5397 -0.6750  1.0540
   31SAPC    HY 4126   1.121  -0.104   6.606  0.7461  0.5613  1.2514
   31SAPC   O31 4127   0.993  -0.040   6.759  0.4591  0.2019 -0.4256
   31SAPC   C31 4128   1.077  -0.089   6.849  0.3794  0.6990 -0.8613
   31SAPC   O32 4129   1.181  -0.145   6.825  0.3386  0.2093 -0.1333
   31SAPC   C32 4130   1.030  -0.079   6.998  0.1516 -0.3024 -0.1031
   31SAPC   H2X 4131   1.016  -0.180   7.043  1.3140  0.4921  2.1766
   31SAPC   H2Y 4132   0.935  -0.022   6.992  0.3686  0.2805  1.5482
   31SAPC   C23 4133   0.513   0.038   6.658 -0.5634  0.2866 -0.1151
   31SAPC   H3R 4134   0.463  -0.060   6.644  1.5185 -0.9309  0.5247
   31SAPC   H3S 4135   0.435   0.115   6.673 -0.0589  1.0666 -1.3872
   31SAPC   C24 4136   0.595   0.023   6.789 -0.0359 -0.7471  0.0137
   31SAPC   H4R 4137   0.641   0.121   6.816  0.6857 -0.9118 -0.6145
   31SAPC   H4S 4138   0.683  -0.039   6.762 -0.7190 -1.4331 -0.6829
   31SAPC   C25 4139   0.521  -0.040   6.904 -0.6861  0.0331 -0.1114
   31SAPC   H5R 4140   0.471  -0.133   6.875  1.0807 -0.6020 -1.3063
   31SAPC   C26 4141   0.513  -0.003   7.034 -0.1127 -0.4467 -0.0635
   31SAPC   H6R 4142   0.457  -0.056   7.113  0.4579  0.0383  0.6812
   31SAPC   C27 4143   0.573   0.116   7.100 -0.1947 -0.2205 -0.4012
   31SAPC   H7R 4144   0.491   0.185   7.129  0.2791 -0.8018  2.6005
   31SAPC   H7S 4145   0.639   0.180   7.037  0.7490  0.5899  1.3595
   31SAPC   C28 4146   0.642   0.055   7.220  0.1177  0.7177 -0.7190
   31SAPC   H8R 4147   0.737   0.008   7.192 -0.0326  1.5996 -2.9713
   31SAPC   C29 4148   0.600   0.042   7.347  0.3597 -0.4049 -0.5179
   31SAPC   H9R 4149   0.662  -0.018   7.415  0.8918  0.2861 -0.3847
   31SAPC  C210 4150   0.473   0.103   7.406  0.3964  0.4323  0.0745
   31SAPC  H10R 4151   0.424   0.168   7.331 -1.2003 -0.3671  0.3933
   31SAPC  H10S 4152   0.496   0.163   7.497  1.1563 -0.0046  0.1811
   31SAPC  C211 4153   0.383  -0.011   7.437  0.2316  0.5460 -0.7473
   31SAPC  H11R 4154   0.319  -0.039   7.352  1.7128  2.5989 -2.7046
   31SAPC  C212 4155   0.350  -0.052   7.562  0.1788  0.7426 -0.6139
   31SAPC  H12R 4156   0.264  -0.122   7.567  0.3789  0.1953 -3.2068
   31SAPC  C213 4157   0.405   0.000   7.693 -0.3951 -0.7640 -0.6468
   31SAPC  H13R 4158   0.318   0.029   7.756  0.0998 -0.4294 -0.0994
   31SAPC  H13S 4159   0.463   0.095   7.683 -4.4665  2.2556  1.3861
   31SAPC  C214 4160   0.496  -0.099   7.759 -0.0324  0.1433 -0.6803
   31SAPC  H14R 4161   0.539  -0.179   7.698  2.3431  0.3172  0.6418
   31SAPC  C215 4162   0.555  -0.093   7.886  0.5685  0.1119  0.6343
   31SAPC  H15R 4163   0.610  -0.180   7.926  1.2700  0.7905  1.2039
   31SAPC  C216 4164   0.520   0.015   7.980  0.5189 -0.2043 -0.5506
   31SAPC  H16R 4165   0.472   0.102   7.930  1.0611 -0.1439 -0.9704
   31SAPC  H16S 4166   0.613   0.058   8.024  1.1324 -1.6206 -0.4132
   31SAPC  C217 4167   0.437  -0.024   8.103 -0.0481 -1.1673 -0.4824
   31SAPC  H17R 4168   0.430   0.067   8.165  0.6407 -2.1029  1.0405
   31SAPC  H17S 4169   0.484  -0.099   8.170  1.5549 -0.8442 -1.1974
   31SAPC  C218 4170   0.305  -0.089   8.063  0.2983  0.5994 -0.0956
   31SAPC  H18R 4171   0.310  -0.198   8.045  0.5130  0.2786  1.7307
   31SAPC  H18S 4172   0.268  -0.047   7.967 -0.8959  0.9951  0.5148
   31SAPC  C219 4173   0.197  -0.057   8.170  0.3764  0.0425  0.1607
   31SAPC  H19R 4174   0.100  -0.099   8.137  0.1218  0.7556 -0.0101
   31SAPC  H19S 4175   0.195   0.053   8.184 -0.0802  0.1158 -0.4459
   31SAPC  C220 4176   0.230  -0.134   8.298  0.2248  0.0004  0.5340
   31SAPC  H20R 4177   0.329  -0.102   8.335  1.0159 -0.8008 -0.8218
   31SAPC  H20S 4178   0.238  -0.242   8.276  2.5304  0.2917 -0.2693
   31SAPC  H20T 4179   0.147  -0.111   8.369 -0.2544  0.1294 -0.0571
   31SAPC   C33 4180   1.119   0.012   7.081 -1.1945  0.4158 -0.7043
   31SAPC   H3X 4181   1.147   0.106   7.030  0.3821  0.2732 -0.1594
   31SAPC   H3Y 4182   1.217  -0.032   7.109 -1.9220 -1.3103 -0.7505
   31SAPC   C34 4183   1.070   0.049   7.218  0.1306 -0.1881 -0.9936
   31SAPC   H4X 4184   0.977   0.105   7.193 -0.8912 -1.4627 -0.2255
   31SAPC   H4Y 4185   1.145   0.115   7.264 -1.2709  0.8310 -0.0896
   31SAPC   C35 4186   1.053  -0.068   7.312  0.4786  0.4441  0.3367
   31SAPC   H5X 4187   1.144  -0.132   7.310  0.1861 -0.1134 -4.1182
   31SAPC   H5Y 4188   0.967  -0.125   7.270 -0.6145  1.3871  1.2160
   31SAPC   C36 4189   1.013  -0.013   7.452 -0.3986  0.5221 -0.1623
   31SAPC   H6X 4190   0.920   0.046   7.449 -0.3367  0.6056 -2.8847
   31SAPC   H6Y 4191   1.090   0.064   7.475 -2.0264  1.5896  2.0510
   31SAPC   C37 4192   1.023  -0.126   7.557 -0.3125 -0.0742  0.2894
   31SAPC   H7X 4193   1.108  -0.194   7.533 -1.5827 -1.7430  0.3484
   31SAPC   H7Y 4194   0.935  -0.190   7.538 -0.4173  0.4606 -1.2052
   31SAPC   C38 4195   1.004  -0.074   7.704  0.0864  0.0949  0.2274
   31SAPC   H8X 4196   0.899  -0.040   7.715  0.2001  0.1694  1.2065
   31SAPC   H8Y 4197   1.077   0.008   7.724 -0.1855  0.2815  0.4658
   31SAPC   C39 4198   1.031  -0.177   7.813  0.0849 -0.1673 -0.4110
   31SAPC   H9X 4199   1.129  -0.228   7.796 -1.1570 -2.7368 -0.3235
   31SAPC   H9Y 4200   0.954  -0.255   7.799 -1.2909  0.5549  2.3811
   31SAPC  C310 4201   1.025  -0.114   7.955  0.2272 -0.0969 -0.0871
   31SAPC  H10X 4202   0.926  -0.068   7.978 -0.0205 -0.4997 -0.3404
   31SAPC  H10Y 4203   1.106  -0.041   7.978  0.4080 -0.8862  1.9526
   31SAPC  C311 4204   1.026  -0.210   8.068  0.2779  0.7631  0.3719
   31SAPC  H11X 4205   0.941  -0.282   8.068 -0.1297  1.2411  0.0266
   31SAPC  H11Y 4206   1.030  -0.162   8.168 -0.0510 -1.3409  1.4661
   31SAPC  C312 4207   1.152  -0.302   8.065  0.4860 -0.2315  0.0353
   31SAPC  H12X 4208   1.238  -0.233   8.050 -0.1770  1.0445  1.7917
   31SAPC  H12Y 4209   1.155  -0.373   7.979 -1.4436 -0.4426  0.1070
   31SAPC  C313 4210   1.156  -0.386   8.190 -0.5318  0.4416 -0.1917
   31SAPC  H13X 4211   1.067  -0.451   8.203 -1.4181  1.5241 -0.6770
   31SAPC  H13Y 4212   1.157  -0.331   8.287 -0.4713 -1.1450  0.7356
   31SAPC  C314 4213   1.286  -0.480   8.188 -0.6420  1.0326 -0.0464
   31SAPC  H14X 4214   1.383  -0.427   8.173  1.1623 -1.8709  0.6629
   31SAPC  H14Y 4215   1.282  -0.545   8.098 -0.7357  1.7713 -0.5856
   31SAPC  C315 4216   1.303  -0.564   8.315 -0.1133 -0.1206 -0.4099
   31SAPC  H15X 4217   1.340  -0.505   8.401  0.5504  1.3780 -1.6754
   31SAPC  H15Y 4218   1.382  -0.639   8.291 -0.1381 -1.3297  2.7851
   31SAPC  C316 4219   1.175  -0.655   8.339 -0.5225  0.0391 -0.5075
   31SAPC  H16X 4220   1.166  -0.718   8.248  3.0326 -0.8484 -0.3978
   31SAPC  H16Y 4221   1.084  -0.594   8.356  0.3247  1.4580 -0.9002
   31SAPC  C317 4222   1.186  -0.760   8.454  0.1960  0.5806 -0.8180
   31SAPC  H17X 4223   1.179  -0.705   8.550  1.5755 -0.5887  0.0023
   31SAPC  H17Y 4224   1.284  -0.813   8.450 -0.0757 -0.3795  2.2372
   31SAPC  C318 4225   1.088  -0.877   8.460  0.2310 -0.0295 -0.1497
   31SAPC  H18X 4226   0.987  -0.836   8.481 -0.2211 -0.2159 -1.7950
   31SAPC  H18Y 4227   1.123  -0.947   8.539  0.2875  0.8722  0.6368
   31SAPC  H18Z 4228   1.076  -0.928   8.362 -0.9038 -1.1399  0.5379
   32SAPC     N 4229   0.860   2.132   5.966 -0.3414 -0.3311 -0.0410
   32SAPC   C12 4230   0.972   2.129   6.066  0.4055 -0.0465  0.0912
   32SAPC  H12A 4231   0.942   2.084   6.160 -2.0873  2.0158  0.4052
   32SAPC  H12B 4232   1.001   2.228   6.098 -0.9514  1.4292 -2.8580
   32SAPC   C13 4233   0.807   1.994   5.940  0.0531 -0.3361  0.5867
   32SAPC  H13A 4234   0.720   2.004   5.878  1.9987  3.9951 -1.9615
   32SAPC  H13B 4235   0.877   1.936   5.882 -1.7696  1.2977 -3.6898
   32SAPC  H13C 4236   0.786   1.958   6.040  0.8908  1.2040  1.3679
   32SAPC   C14 4237   0.747   2.214   6.020  0.2434  0.2875  0.3232
   32SAPC  H14A 4238   0.666   2.218   5.949  1.7026 -2.4252 -1.7066
   32SAPC  H14B 4239   0.711   2.169   6.111 -0.7717  1.2088  0.3955
   32SAPC  H14C 4240   0.774   2.317   6.039 -1.5413  0.9772 -0.6957
   32SAPC   C15 4241   0.918   2.180   5.836  0.4277  0.6342  0.4592
   32SAPC  H15A 4242   0.992   2.113   5.794  1.6291  0.4178  2.7759
   32SAPC  H15B 4243   0.842   2.199   5.761  1.3638  0.0879 -0.6673
   32SAPC  H15C 4244   0.968   2.274   5.855  0.5034  0.5891  0.4835
   32SAPC   C11 4245   1.107   2.069   6.026  0.4733 -0.0213 -0.3055
   32SAPC  H11A 4246   1.188   2.102   6.094 -1.1422  0.6674  1.3781
   32SAPC  H11B 4247   1.137   2.115   5.929 -1.7367  1.9674 -0.1228
   32SAPC     P 4248   1.090   1.838   6.134  0.4286  0.2271 -0.5562
   32SAPC   O13 4249   0.950   1.785   6.152 -0.0041 -0.2222  0.1941
   32SAPC   O14 4250   1.194   1.733   6.135 -0.2404 -0.0710 -0.0212
   32SAPC   O12 4251   1.097   1.927   6.002  0.3745  0.3226  0.3321
   32SAPC   O11 4252   1.126   1.940   6.253  0.0602 -0.8763  0.1867
   32SAPC    C1 4253   1.250   1.918   6.323 -0.5932  0.1435  0.4019
   32SAPC    HA 4254   1.330   1.873   6.260 -1.4440  0.0210 -0.6112
   32SAPC    HB 4255   1.289   2.018   6.349  0.3017  0.7945 -3.0050
   32SAPC    C2 4256   1.238   1.844   6.463  0.0346 -0.2795  0.0117
   32SAPC    HS 4257   1.231   1.738   6.431  1.6428  0.0211 -1.4660
   32SAPC   O21 4258   1.124   1.894   6.527  0.1210 -0.1383 -0.5103
   32SAPC   C21 4259   1.045   1.801   6.586  0.2839  0.1534 -0.0187
   32SAPC   O22 4260   1.068   1.682   6.589  0.0543  0.2157  0.5994
   32SAPC   C22 4261   0.918   1.859   6.652 -0.4123  0.0843  0.0346
   32SAPC   H2R 4262   0.931   1.969   6.655 -0.8218  0.2348 -2.1933
   32SAPC   H2S 4263   0.826   1.835   6.593 -0.8752  1.1325  0.2982
   32SAPC    C3 4264   1.373   1.858   6.548 -0.2693 -0.2162  0.5698
   32SAPC    HX 4265   1.396   1.965   6.566 -0.8082 -0.0412  0.2515
   32SAPC    HY 4266   1.461   1.818   6.494 -0.5672 -0.8673  0.5523
   32SAPC   O31 4267   1.364   1.787   6.674  0.0158 -0.5974  0.4806
   32SAPC   C31 4268   1.398   1.658   6.677  0.3081  1.0080 -0.3481
   32SAPC   O32 4269   1.452   1.595   6.587 -0.6623  0.4995  0.0592
   32SAPC   C32 4270   1.365   1.601   6.815 -0.4954  0.6000 -0.1976
   32SAPC   H2X 4271   1.254   1.606   6.824 -0.7957 -3.7991  1.0396
   32SAPC   H2Y 4272   1.400   1.667   6.897 -1.4882  1.0852 -0.1530
   32SAPC   C23 4273   0.900   1.798   6.794  0.4602 -0.0295 -0.5549
   32SAPC   H3R 4274   0.908   1.687   6.789  0.1085 -0.0390 -0.9242
   32SAPC   H3S 4275   0.797   1.823   6.825 -0.0541 -2.6211  0.0547
   32SAPC   C24 4276   1.010   1.834   6.897 -0.7152  0.3932 -0.7921
   32SAPC   H4R 4277   1.051   1.936   6.882 -0.7718  0.5744  0.1982
   32SAPC   H4S 4278   1.097   1.772   6.869  0.6680  0.3474  3.0836
   32SAPC   C25 4279   0.960   1.805   7.040 -0.9051 -0.8098  0.4312
   32SAPC   H5R 4280   0.853   1.783   7.049 -1.1757  0.7103  1.2553
   32SAPC   C26 4281   1.028   1.822   7.153 -0.5141  0.3168  0.1329
   32SAPC   H6R 4282   0.996   1.792   7.253  1.3109 -1.2511  0.3030
   32SAPC   C27 4283   1.179   1.870   7.147  0.1653  0.2082 -0.4529
   32SAPC   H7R 4284   1.200   1.949   7.222  1.0446  0.2958 -0.7829
   32SAPC   H7S 4285   1.199   1.922   7.051 -0.7691  0.2320 -0.6463
   32SAPC   C28 4286   1.270   1.757   7.157 -0.1755  0.5699 -0.4881
   32SAPC   H8R 4287   1.246   1.660   7.110  1.3801  0.0815 -0.3413
   32SAPC   C29 4288   1.391   1.750   7.218 -0.3033 -0.1392 -0.0668
   32SAPC   H9R 4289   1.438   1.650   7.213  1.8392  0.8074  0.2383
   32SAPC  C210 4290   1.455   1.864   7.293  0.2336  0.9824  0.2586
   32SAPC  H10R 4291   1.414   1.850   7.395  0.2872 -0.2660  0.1204
   32SAPC  H10S 4292   1.405   1.959   7.265 -0.3072  1.2327  1.9667
   32SAPC  C211 4293   1.603   1.875   7.283 -0.4842  1.0869  0.0689
   32SAPC  H11R 4294   1.644   1.875   7.181 -0.1117  1.5562  0.2193
   32SAPC  C212 4295   1.685   1.849   7.389 -0.1986 -0.1644  0.1636
   32SAPC  H12R 4296   1.793   1.860   7.373 -0.0525  0.4516  1.4685
   32SAPC  C213 4297   1.645   1.835   7.535  0.4869  0.1493 -0.0564
   32SAPC  H13R 4298   1.571   1.912   7.564  0.6202  0.2422  0.0414
   32SAPC  H13S 4299   1.735   1.854   7.598 -0.7199  1.9539  1.2140
   32SAPC  C214 4300   1.575   1.714   7.582  0.2202  0.3705  0.2957
   32SAPC  H14R 4301   1.544   1.645   7.503 -0.2900  0.0785  0.7382
   32SAPC  C215 4302   1.556   1.675   7.710  0.0797  0.3365 -0.0506
   32SAPC  H15R 4303   1.488   1.590   7.726 -0.6674  0.6405 -1.4263
   32SAPC  C216 4304   1.598   1.758   7.826  0.4512  0.0213 -0.0875
   32SAPC  H16R 4305   1.696   1.809   7.815  0.0199  1.0275  0.5602
   32SAPC  H16S 4306   1.622   1.696   7.915  2.8127  0.6896 -0.1799
   32SAPC  C217 4307   1.487   1.858   7.864  0.2072 -0.5321  0.4796
   32SAPC  H17R 4308   1.409   1.802   7.920 -0.8903 -0.9126 -1.3310
   32SAPC  H17S 4309   1.439   1.915   7.782 -0.1657  0.8113  1.5973
   32SAPC  C218 4310   1.548   1.959   7.959 -0.3277 -0.0008  0.3433
   32SAPC  H18R 4311   1.468   2.033   7.980 -1.6400 -0.6336 -2.0367
   32SAPC  H18S 4312   1.639   2.006   7.916  0.4096 -1.0351  0.7434
   32SAPC  C219 4313   1.584   1.888   8.097 -0.1103  0.7979  0.2078
   32SAPC  H19R 4314   1.668   1.817   8.083 -0.8595 -0.3676  1.3810
   32SAPC  H19S 4315   1.506   1.820   8.138  0.7640 -1.0392 -1.0514
   32SAPC  C220 4316   1.632   1.993   8.191  0.5852 -0.5648  0.4572
   32SAPC  H20R 4317   1.652   1.934   8.283 -0.6993  0.1826  1.2487
   32SAPC  H20S 4318   1.565   2.078   8.216  0.3745  0.4953 -3.0962
   32SAPC  H20T 4319   1.721   2.053   8.164 -0.0988 -0.0047 -0.6623
   32SAPC   C33 4320   1.423   1.461   6.838 -0.0701  0.1763 -0.2210
   32SAPC   H3X 4321   1.530   1.462   6.812 -0.1571 -0.2278 -0.6018
   32SAPC   H3Y 4322   1.377   1.381   6.777 -1.4381  1.5393 -1.0804
   32SAPC   C34 4323   1.396   1.430   6.987  0.4044 -0.1133 -0.2980
   32SAPC   H4X 4324   1.287   1.451   6.997  0.4670  1.9142 -2.8354
   32SAPC   H4Y 4325   1.453   1.507   7.044 -1.6065  1.5720 -0.4052
   32SAPC   C35 4326   1.437   1.291   7.024  0.6750 -0.3326 -0.3577
   32SAPC   H5X 4327   1.548   1.291   7.030  0.6351  1.6113  1.6916
   32SAPC   H5Y 4328   1.405   1.224   6.941 -0.8258  0.7695 -0.7005
   32SAPC   C36 4329   1.377   1.251   7.159  0.2039 -0.1093 -0.0517
   32SAPC   H6X 4330   1.413   1.146   7.167  4.0660  1.0644  0.0778
   32SAPC   H6Y 4331   1.268   1.232   7.146 -0.0419  1.0774  0.1396
   32SAPC   C37 4332   1.409   1.335   7.287 -0.2879  0.2434 -0.9245
   32SAPC   H7X 4333   1.389   1.442   7.268  1.2922  0.5101 -1.2342
   32SAPC   H7Y 4334   1.520   1.335   7.298 -0.2172  0.3126 -1.6317
   32SAPC   C38 4335   1.362   1.274   7.415  0.7919  0.3632  0.2341
   32SAPC   H8X 4336   1.378   1.164   7.421 -0.5088  0.1584  0.1110
   32SAPC   H8Y 4337   1.253   1.281   7.432  0.8896  0.9347  0.6686
   32SAPC   C39 4338   1.434   1.350   7.532 -0.3955  0.0469  0.0421
   32SAPC   H9X 4339   1.419   1.457   7.506 -0.7591  0.5631  2.1408
   32SAPC   H9Y 4340   1.544   1.330   7.527 -0.1215  0.1208  3.2532
   32SAPC  C310 4341   1.392   1.305   7.666  0.0478  0.3899  0.0848
   32SAPC  H10X 4342   1.281   1.306   7.675  0.0940  1.7588  0.7753
   32SAPC  H10Y 4343   1.433   1.384   7.733  0.0924  0.6374 -0.2319
   32SAPC  C311 4344   1.447   1.165   7.701 -0.0713  0.5063  0.9006
   32SAPC  H11X 4345   1.554   1.183   7.722 -0.1222  2.7365 -0.5295
   32SAPC  H11Y 4346   1.433   1.093   7.618 -0.3303  3.0882 -1.4266
   32SAPC  C312 4347   1.384   1.107   7.827  0.7767 -0.2015  0.0435
   32SAPC  H12X 4348   1.316   1.025   7.796 -1.4734  1.5832 -0.0048
   32SAPC  H12Y 4349   1.333   1.193   7.876  1.0780 -0.0520  0.0998
   32SAPC  C313 4350   1.486   1.038   7.917 -0.0485  0.3016  0.0228
   32SAPC  H13X 4351   1.571   1.104   7.943  1.4517 -0.9879 -1.3669
   32SAPC  H13Y 4352   1.533   0.965   7.847 -2.5245 -2.8893  1.4486
   32SAPC  C314 4353   1.430   0.955   8.032 -0.0878  0.7535  0.2179
   32SAPC  H14X 4354   1.372   0.866   8.001  0.1805  0.4367  0.6252
   32SAPC  H14Y 4355   1.365   1.022   8.094  0.8100  1.7361  0.1212
   32SAPC  C315 4356   1.537   0.896   8.122  0.9136  0.6376  0.2587
   32SAPC  H15X 4357   1.598   0.984   8.149 -0.4240  1.3623  0.9876
   32SAPC  H15Y 4358   1.605   0.811   8.095 -1.5730 -1.2595 -0.4129
   32SAPC  C316 4359   1.485   0.851   8.258  0.1242  0.0180  0.1186
   32SAPC  H16X 4360   1.423   0.758   8.259  0.0701  0.0388 -0.6284
   32SAPC  H16Y 4361   1.415   0.927   8.298 -0.4382 -0.3096 -0.2242
   32SAPC  C317 4362   1.598   0.849   8.363 -0.8677  0.0945  1.0621
   32SAPC  H17X 4363   1.651   0.946   8.351 -1.6109  0.4828  0.7910
   32SAPC  H17Y 4364   1.669   0.769   8.335  1.1083  0.0928  5.4226
   32SAPC  C318 4365   1.553   0.821   8.509  0.2953 -0.0629 -0.0684
   32SAPC  H18X 4366   1.519   0.716   8.521 -0.7020  0.1182 -1.1737
   32SAPC  H18Y 4367   1.479   0.895   8.545  0.6033  0.3490 -0.2750
   32SAPC  H18Z 4368   1.643   0.845   8.570 -0.4452  0.4831  0.8243
   33POPC     N 4369   6.041   1.163  10.771 -0.4401 -0.1131  0.1559
   33POPC   C12 4370   6.093   1.047  10.687  0.0644 -0.3495  1.1252
   33POPC  H12A 4371   6.034   0.956  10.686 -0.9345  0.1422 -2.6799
   33POPC  H12B 4372   6.189   1.024  10.731 -0.0774  0.0092  1.6279
   33POPC   C13 4373   6.140   1.275  10.779  0.0564  0.5177  0.3242
   33POPC  H13A 4374   6.157   1.333  10.690  2.8715  1.1011  1.1343
   33POPC  H13B 4375   6.100   1.346  10.850  1.3114 -0.2023  1.8126
   33POPC  H13C 4376   6.238   1.246  10.813 -0.3331 -0.0772  0.9722
   33POPC   C14 4377   5.917   1.218  10.716  0.1658  0.0563  0.4136
   33POPC  H14A 4378   5.839   1.143  10.722  2.0306 -2.6146 -4.1041
   33POPC  H14B 4379   5.892   1.308  10.770 -0.2153 -0.0343  0.3897
   33POPC  H14C 4380   5.928   1.250  10.613 -0.9560 -1.2612 -0.1516
   33POPC   C15 4381   6.011   1.111  10.910  0.3113 -0.4562 -0.3166
   33POPC  H15A 4382   5.929   1.154  10.964  1.0544 -0.4724  0.8538
   33POPC  H15B 4383   6.097   1.113  10.975 -0.5465 -0.1668  0.8205
   33POPC  H15C 4384   5.995   1.004  10.901  1.0562 -0.4830 -1.7314
   33POPC   C11 4385   6.125   1.079  10.540  0.2297 -0.1544 -0.1986
   33POPC  H11A 4386   6.182   0.991  10.505  2.0399  0.9356 -0.1271
   33POPC  H11B 4387   6.202   1.159  10.537 -0.1324  0.1970 -0.1459
   33POPC     P 4388   5.925   0.977  10.414 -0.0483  0.1460 -0.3832
   33POPC   O13 4389   5.785   1.019  10.427 -0.2348 -0.0760 -0.4802
   33POPC   O14 4390   5.972   0.860  10.486 -0.0398 -0.3892  0.4358
   33POPC   O12 4391   6.006   1.106  10.461 -0.1417 -0.0830 -0.3124
   33POPC   O11 4392   5.954   0.971  10.255 -0.0778 -0.4024  0.1953
   33POPC    C1 4393   5.930   1.071  10.155  0.1151  0.2972  0.7422
   33POPC    HA 4394   5.962   1.170  10.193 -2.7369  2.4796 -2.0231
   33POPC    HB 4395   5.996   1.055  10.067  1.4786 -0.8060  1.9173
   33POPC    C2 4396   5.778   1.074  10.104  0.0532 -0.5500 -0.7989
   33POPC    HS 4397   5.715   1.097  10.193  0.9961 -0.2688 -0.1919
   33POPC   O21 4398   5.740   0.957  10.038 -0.0864 -0.1063 -0.3253
   33POPC   C21 4399   5.614   0.938  10.005  0.1776  0.3934  0.0385
   33POPC   O22 4400   5.523   1.003  10.049  0.1655  0.3414  0.1209
   33POPC   C22 4401   5.612   0.815   9.917  1.0692  0.4801  0.1353
   33POPC   H2R 4402   5.566   0.736   9.980 -2.0590  1.5430 -0.6271
   33POPC   H2S 4403   5.715   0.795   9.882  1.3659  1.4900  0.3963
   33POPC    C3 4404   5.746   1.196  10.011 -0.2010  0.8937  0.2108
   33POPC    HX 4405   5.761   1.295  10.061 -0.4463  0.7063  0.6648
   33POPC    HY 4406   5.637   1.213   9.998 -0.0109  1.0482 -1.2785
   33POPC   O31 4407   5.807   1.176   9.877  0.1041 -0.4059  0.6719
   33POPC   C31 4408   5.922   1.232   9.856 -0.1089 -0.2785  0.1081
   33POPC   O32 4409   5.978   1.318   9.920 -0.1145  0.6939 -0.6340
   33POPC   C32 4410   5.990   1.166   9.743  0.5030  0.0361  0.5067
   33POPC   H2X 4411   5.981   1.055   9.746 -1.0883  0.1297  0.1991
   33POPC   H2Y 4412   6.095   1.196   9.764 -0.0899  0.8206  2.5999
   33POPC   C23 4413   5.529   0.836   9.790  0.0706 -0.3986  0.0783
   33POPC   H3R 4414   5.421   0.845   9.813 -0.4391 -3.3546 -0.7986
   33POPC   H3S 4415   5.523   0.734   9.748 -1.9026 -1.0000  1.6621
   33POPC   C24 4416   5.594   0.936   9.691  0.3068  0.6453 -0.1639
   33POPC   H4R 4417   5.697   0.966   9.721  0.3571 -0.2445  0.5957
   33POPC   H4S 4418   5.537   1.031   9.681  1.5411  1.4162 -0.1581
   33POPC   C25 4419   5.606   0.882   9.547  0.1224 -0.5785  0.1260
   33POPC   H5R 4420   5.509   0.835   9.520  0.2382 -0.7096 -0.0721
   33POPC   H5S 4421   5.680   0.799   9.541  1.3952  0.5651 -0.7637
   33POPC   C26 4422   5.656   0.988   9.445  0.4405 -0.5475 -0.8480
   33POPC   H6R 4423   5.747   1.039   9.483  0.1148  1.0459 -2.0874
   33POPC   H6S 4424   5.580   1.069   9.439  3.8497  2.8634 -1.4899
   33POPC   C27 4425   5.673   0.941   9.298 -0.1114 -0.2063 -0.2871
   33POPC   H7R 4426   5.584   0.886   9.262 -0.5905  0.6941 -0.5013
   33POPC   H7S 4427   5.757   0.869   9.303 -1.6050 -2.0561 -0.5217
   33POPC   C28 4428   5.714   1.052   9.194 -0.1126 -0.5534 -0.2003
   33POPC   H8R 4429   5.754   0.992   9.109  1.8935 -1.6335  1.4063
   33POPC   H8S 4430   5.789   1.122   9.237 -1.3483  0.8024 -0.1930
   33POPC   C29 4431   5.598   1.136   9.148  0.1293  0.3345  0.3615
   33POPC   H91 4432   5.526   1.147   9.230 -2.0917 -1.3913 -1.2193
   33POPC  C210 4433   5.580   1.190   9.028  0.0807  0.4643 -0.0951
   33POPC  H101 4434   5.491   1.254   9.015  1.3339  2.6330  1.3642
   33POPC  C211 4435   5.681   1.170   8.916 -0.3120  0.1458 -0.9526
   33POPC  H11R 4436   5.628   1.208   8.826  0.2989 -1.1014 -1.8733
   33POPC  H11S 4437   5.709   1.065   8.893 -0.1297 -0.1335  0.4619
   33POPC  C212 4438   5.806   1.258   8.926 -0.1079 -0.1063 -0.5639
   33POPC  H12R 4439   5.878   1.226   9.004 -0.1482  0.6235 -0.2210
   33POPC  H12S 4440   5.772   1.360   8.954 -2.5053 -1.1378  0.5196
   33POPC  C213 4441   5.882   1.268   8.789 -0.2425  0.3869  0.0605
   33POPC  H13R 4442   5.973   1.329   8.804  1.8890 -2.1146 -1.7346
   33POPC  H13S 4443   5.816   1.319   8.714  0.6255  1.6634  0.1363
   33POPC  C214 4444   5.925   1.133   8.730 -0.6181 -0.0810 -0.6606
   33POPC  H14R 4445   5.835   1.069   8.723  0.1037 -1.0971 -0.9641
   33POPC  H14S 4446   6.000   1.076   8.790 -1.3266 -1.4973 -1.0795
   33POPC  C215 4447   5.974   1.154   8.585  0.2925 -0.3725 -0.5497
   33POPC  H15R 4448   6.069   1.211   8.587  0.0167  0.0715  1.5700
   33POPC  H15S 4449   5.892   1.203   8.528  0.2937  1.5677  1.0382
   33POPC  C216 4450   6.012   1.032   8.509  0.0246  0.8142 -1.2236
   33POPC  H16R 4451   5.940   0.948   8.521 -0.2253  1.1652 -0.1480
   33POPC  H16S 4452   6.104   0.986   8.551 -0.8755  0.4127  0.3819
   33POPC  C217 4453   6.023   1.040   8.353  0.0226  0.0885  1.2521
   33POPC  H17R 4454   5.921   1.047   8.311 -1.1470  0.6612  3.9398
   33POPC  H17S 4455   6.062   0.940   8.323 -0.5893  0.5987 -1.5032
   33POPC  C218 4456   6.128   1.139   8.302 -0.4255 -0.0208 -0.3945
   33POPC  H18R 4457   6.155   1.126   8.195 -0.0766  0.6237 -0.3909
   33POPC  H18S 4458   6.217   1.139   8.369 -0.1156  0.3866 -0.8006
   33POPC  H18T 4459   6.081   1.240   8.307 -1.0849 -0.3569  0.4203
   33POPC   C33 4460   5.931   1.221   9.613  0.3138  1.3554  0.9282
   33POPC   H3X 4461   5.821   1.236   9.612 -0.1178 -1.2821  0.5310
   33POPC   H3Y 4462   5.952   1.142   9.537 -2.3965 -0.0016  1.4764
   33POPC   C34 4463   5.992   1.347   9.553 -0.2180 -0.0196  0.9779
   33POPC   H4X 4464   5.983   1.423   9.634 -0.1092  0.2350  0.7555
   33POPC   H4Y 4465   5.941   1.380   9.460  0.6103  0.7698  0.7861
   33POPC   C35 4466   6.143   1.332   9.530  0.4198  0.6021  0.8688
   33POPC   H5X 4467   6.202   1.289   9.613  1.2645  0.8271  0.4060
   33POPC   H5Y 4468   6.183   1.435   9.518  1.4909  0.1429  0.3112
   33POPC   C36 4469   6.173   1.256   9.400  0.9264 -0.6029  0.7034
   33POPC   H6X 4470   6.093   1.277   9.325  1.4167 -2.1851 -0.3074
   33POPC   H6Y 4471   6.168   1.146   9.409 -2.4507 -0.5530  0.8362
   33POPC   C37 4472   6.307   1.305   9.330  0.8889 -1.3308 -0.2394
   33POPC   H7X 4473   6.393   1.271   9.393  1.5100  1.6857  0.7253
   33POPC   H7Y 4474   6.301   1.416   9.331  0.7446 -1.3312  0.7504
   33POPC   C38 4475   6.314   1.253   9.185  0.3253  0.0219 -0.2604
   33POPC   H8X 4476   6.220   1.280   9.131 -0.4881  0.9152  1.4923
   33POPC   H8Y 4477   6.320   1.143   9.193  0.5760 -0.0963 -1.7245
   33POPC   C39 4478   6.444   1.287   9.118 -0.6350  0.4485  0.3325
   33POPC   H9X 4479   6.520   1.352   9.166  1.0490 -1.1768 -0.0281
   33POPC   H9Y 4480   6.426   1.358   9.035 -1.6233  2.1663  1.9381
   33POPC  C310 4481   6.517   1.165   9.076 -0.3727 -0.1847  0.3502
   33POPC  H10X 4482   6.484   1.135   8.974 -0.7902  0.7733  0.1962
   33POPC  H10Y 4483   6.497   1.072   9.134  0.8851 -0.3967  0.4830
   33POPC  C311 4484   6.665   1.206   9.056  0.0485 -0.7325 -0.3422
   33POPC  H11X 4485   6.725   1.114   9.042  1.6864  0.0056  1.4115
   33POPC  H11Y 4486   6.710   1.243   9.150  3.8744 -1.1740 -1.8238
   33POPC  C312 4487   6.706   1.292   8.935  0.1694 -0.3123 -0.3663
   33POPC  H12X 4488   6.645   1.384   8.943 -0.1210 -0.6148  1.1791
   33POPC  H12Y 4489   6.661   1.236   8.850 -1.3725  1.1363 -0.5472
   33POPC  C313 4490   6.851   1.309   8.919 -1.1920 -0.3451 -0.4337
   33POPC  H13X 4491   6.901   1.210   8.911  0.3649  0.4903 -1.5723
   33POPC  H13Y 4492   6.897   1.356   9.009  0.3388  0.5321 -1.6027
   33POPC  C314 4493   6.889   1.392   8.793 -0.1988 -0.5094 -0.4821
   33POPC  H14X 4494   6.983   1.444   8.822 -0.8792  0.0447  0.7745
   33POPC  H14Y 4495   6.816   1.475   8.780  0.4103  0.2878  1.0184
   33POPC  C315 4496   6.925   1.311   8.671  0.2161  0.5234  0.2229
   33POPC  H15X 4497   6.964   1.210   8.694 -0.8320 -0.2964 -1.3936
   33POPC  H15Y 4498   7.004   1.371   8.621  0.0424  0.0016 -0.7033
   33POPC  C316 4499   6.819   1.296   8.571 -0.0355  0.4797 -0.0341
   33POPC  H16X 4500   6.815   1.388   8.510  2.1695  1.4080  1.0967
   33POPC  H16Y 4501   6.723   1.260   8.613  1.0097 -3.9710 -0.8553
   33POPC  H16Z 4502   6.853   1.218   8.499  2.1050  1.6766 -0.3875
   34POPC     N 4503   5.345   1.466  11.054  0.1464 -0.7385  0.2927
   34POPC   C12 4504   5.226   1.483  10.958  0.0494  0.2884 -0.0165
   34POPC  H12A 4505   5.134   1.451  11.006  0.0634 -3.5287 -2.0746
   34POPC  H12B 4506   5.245   1.405  10.885  1.0474 -0.9774  1.5380
   34POPC   C13 4507   5.346   1.585  11.151  0.0659  0.7394  0.2749
   34POPC  H13A 4508   5.272   1.577  11.230  0.2036  0.7970  0.4103
   34POPC  H13B 4509   5.442   1.574  11.199  0.0789 -0.7843 -0.0318
   34POPC  H13C 4510   5.337   1.678  11.098 -0.3731  0.6896  0.2512
   34POPC   C14 4511   5.343   1.344  11.131 -0.3649 -0.2398  0.1598
   34POPC  H14A 4512   5.422   1.342  11.204 -0.5383 -0.9648  0.3310
   34POPC  H14B 4513   5.253   1.330  11.189 -0.5867 -0.3360 -0.2076
   34POPC  H14C 4514   5.369   1.258  11.071  1.4300 -0.3322  0.9951
   34POPC   C15 4515   5.470   1.460  10.962  0.4949  0.5604 -0.0896
   34POPC  H15A 4516   5.465   1.542  10.892  0.4767  2.7730  2.3317
   34POPC  H15B 4517   5.471   1.370  10.903 -0.4357 -0.9171  2.0011
   34POPC  H15C 4518   5.560   1.454  11.022 -0.5951 -2.3018  1.4431
   34POPC   C11 4519   5.211   1.616  10.880  0.0017  0.2796 -0.5313
   34POPC  H11A 4520   5.181   1.700  10.946  0.5673 -0.0362  0.1454
   34POPC  H11B 4521   5.123   1.604  10.814 -0.6162  3.2098 -0.3679
   34POPC     P 4522   5.380   1.792  10.787  0.3566  0.0628  0.0480
   34POPC   O13 4523   5.489   1.786  10.681  0.0547  0.0975  0.0480
   34POPC   O14 4524   5.424   1.842  10.919  0.9711 -0.4000 -0.5066
   34POPC   O12 4525   5.319   1.650  10.794  0.1213  0.3558  0.0850
   34POPC   O11 4526   5.258   1.873  10.739  0.1981 -0.2487 -0.2027
   34POPC    C1 4527   5.155   1.844  10.654 -0.0418  0.6544  0.3036
   34POPC    HA 4528   5.067   1.909  10.675 -1.1042 -0.4738 -0.4772
   34POPC    HB 4529   5.114   1.740  10.661 -2.2828  1.5939  2.9822
   34POPC    C2 4530   5.181   1.891  10.502 -0.9910 -0.1912 -0.0735
   34POPC    HS 4531   5.085   1.900  10.447 -0.8160  1.7974 -0.1329
   34POPC   O21 4532   5.276   1.800  10.427  0.1622  0.1043 -0.2619
   34POPC   C21 4533   5.228   1.681  10.398 -0.0350  0.4752  0.3282
   34POPC   O22 4534   5.112   1.644  10.409 -0.4437 -0.8645  0.4864
   34POPC   C22 4535   5.340   1.605  10.340  0.6374  0.1239 -0.5297
   34POPC   H2R 4536   5.356   1.514  10.402 -0.4672  0.4889  0.3210
   34POPC   H2S 4537   5.432   1.665  10.325 -0.6874  2.0061 -1.6124
   34POPC    C3 4538   5.252   2.031  10.503 -0.4443 -0.4842 -0.4634
   34POPC    HX 4539   5.355   2.033  10.546 -0.3333  0.6456 -0.7443
   34POPC    HY 4540   5.193   2.090  10.576  0.5559 -0.6531  0.5049
   34POPC   O31 4541   5.238   2.100  10.379 -0.1168 -0.2027  0.2740
   34POPC   C31 4542   5.360   2.123  10.315 -0.4829  0.2867  0.8922
   34POPC   O32 4543   5.468   2.096  10.360  0.4878 -0.3576 -0.0158
   34POPC   C32 4544   5.335   2.163  10.167  0.0620  0.4189 -0.3494
   34POPC   H2X 4545   5.409   2.241  10.138 -0.6486  0.6593 -1.5739
   34POPC   H2Y 4546   5.242   2.222  10.153  0.0941  0.0731 -2.3676
   34POPC   C23 4547   5.308   1.551  10.196 -1.4577 -0.3444  0.2341
   34POPC   H3R 4548   5.199   1.528  10.192 -1.9713  1.8619  0.4361
   34POPC   H3S 4549   5.367   1.461  10.170 -0.5434 -0.1777  1.6499
   34POPC   C24 4550   5.341   1.654  10.084 -0.8012  0.3783 -1.6200
   34POPC   H4R 4551   5.449   1.679  10.098 -0.8063 -0.0373 -0.7545
   34POPC   H4S 4552   5.288   1.749  10.106  0.5474  1.3926 -2.5618
   34POPC   C25 4553   5.321   1.605   9.939 -0.0867 -0.3915 -1.0294
   34POPC   H5R 4554   5.336   1.689   9.868  2.1305 -1.8859 -2.4677
   34POPC   H5S 4555   5.221   1.557   9.931 -0.5027 -0.4212  2.8176
   34POPC   C26 4556   5.431   1.498   9.906 -0.2675 -0.3032 -0.3509
   34POPC   H6R 4557   5.404   1.402   9.956 -0.4324 -0.4261 -0.6726
   34POPC   H6S 4558   5.530   1.537   9.936  0.4877 -2.5581  0.3061
   34POPC   C27 4559   5.428   1.464   9.755  0.2803  0.7866 -0.2617
   34POPC   H7R 4560   5.422   1.551   9.686  2.3921 -1.6810 -3.9279
   34POPC   H7S 4561   5.331   1.413   9.740  0.8633 -0.2188 -0.7258
   34POPC   C28 4562   5.554   1.380   9.712 -0.2740 -0.8018  0.3908
   34POPC   H8R 4563   5.558   1.304   9.793 -1.5559 -1.0363  0.2547
   34POPC   H8S 4564   5.646   1.441   9.711 -1.7151  1.5842  1.8352
   34POPC   C29 4565   5.525   1.315   9.577 -0.4548  0.2799 -0.2907
   34POPC   H91 4566   5.487   1.213   9.590 -0.1592  0.4697  2.6874
   34POPC  C210 4567   5.567   1.358   9.457 -0.0971 -0.2738 -0.3162
   34POPC  H101 4568   5.542   1.300   9.367 -0.0504 -1.3559  0.3471
   34POPC  C211 4569   5.633   1.493   9.440  0.2578  0.0639 -0.4318
   34POPC  H11R 4570   5.732   1.484   9.390  0.7546 -0.9593  0.6884
   34POPC  H11S 4571   5.652   1.552   9.532 -1.0268  2.3857 -1.5825
   34POPC  C212 4572   5.555   1.594   9.360  0.1893  0.0116 -0.4141
   34POPC  H12R 4573   5.611   1.689   9.358  0.3315 -0.0765 -1.1818
   34POPC  H12S 4574   5.454   1.603   9.406  0.2558 -2.3546  0.3498
   34POPC  C213 4575   5.547   1.559   9.211  0.6011  1.2438 -0.1355
   34POPC  H13R 4576   5.499   1.460   9.198  0.4440  1.3675 -0.5225
   34POPC  H13S 4577   5.653   1.558   9.176  1.5468 -0.1301  2.4956
   34POPC  C214 4578   5.477   1.670   9.136  0.4350 -0.3836  0.1610
   34POPC  H14R 4579   5.460   1.749   9.213 -0.9718 -2.1200  1.7538
   34POPC  H14S 4580   5.379   1.643   9.091 -0.7294 -1.2398  2.9706
   34POPC  C215 4581   5.571   1.727   9.027  0.0449 -0.6478 -0.9686
   34POPC  H15R 4582   5.664   1.758   9.080 -0.7372 -1.4215  0.9281
   34POPC  H15S 4583   5.526   1.814   8.975  0.4522 -0.2649 -0.6941
   34POPC  C216 4584   5.592   1.630   8.917 -0.3135 -1.0396 -0.1586
   34POPC  H16R 4585   5.510   1.555   8.919 -0.1044 -1.2494  0.6403
   34POPC  H16S 4586   5.691   1.582   8.931  0.5402  0.9504  1.1150
   34POPC  C217 4587   5.604   1.685   8.773  0.5953  0.6018 -0.4945
   34POPC  H17R 4588   5.514   1.749   8.775  0.9663  1.1219 -0.1542
   34POPC  H17S 4589   5.597   1.607   8.695 -1.1427 -0.5409  0.7230
   34POPC  C218 4590   5.734   1.757   8.743 -0.4221 -0.2037 -0.1171
   34POPC  H18R 4591   5.754   1.837   8.818  1.2803 -1.4452  0.8490
   34POPC  H18S 4592   5.728   1.812   8.647  0.5407  1.1288  0.5418
   34POPC  H18T 4593   5.825   1.693   8.742 -0.0621  0.3099 -1.5955
   34POPC   C33 4594   5.338   2.045  10.073  0.9645 -0.1507  0.0345
   34POPC   H3X 4595   5.245   1.987  10.087  0.5320  0.7501  1.0530
   34POPC   H3Y 4596   5.414   1.967  10.097 -1.2587 -2.0632  1.2747
   34POPC   C34 4597   5.344   2.096   9.929  0.1807  0.8490  0.2444
   34POPC   H4X 4598   5.372   2.007   9.868 -4.8631 -0.9030 -0.0631
   34POPC   H4Y 4599   5.432   2.163   9.924  0.3235  0.6444  0.0130
   34POPC   C35 4600   5.222   2.155   9.865 -0.1851  0.1077  0.2585
   34POPC   H5X 4601   5.200   2.237   9.937 -1.5388 -1.1592  1.3594
   34POPC   H5Y 4602   5.136   2.086   9.851  2.2994 -3.3723  1.0039
   34POPC   C36 4603   5.265   2.220   9.731  0.0805  0.8681  0.2940
   34POPC   H6X 4604   5.288   2.135   9.663 -1.6331  0.4787  0.1638
   34POPC   H6Y 4605   5.351   2.290   9.738  0.6728  0.0717  1.3859
   34POPC   C37 4606   5.146   2.291   9.669  1.1442  0.1065  0.1986
   34POPC   H7X 4607   5.124   2.380   9.731  1.4700 -0.8149  1.7046
   34POPC   H7Y 4608   5.056   2.226   9.676  0.3368  1.1576 -0.0986
   34POPC   C38 4609   5.156   2.326   9.517  0.3099 -0.0997  0.2259
   34POPC   H8X 4610   5.060   2.378   9.496  0.3923  0.3565  0.9559
   34POPC   H8Y 4611   5.171   2.241   9.448 -0.4663  0.8032 -1.1193
   34POPC   C39 4612   5.252   2.435   9.495 -1.0384 -0.1831 -0.3759
   34POPC   H9X 4613   5.354   2.407   9.529 -1.1381  0.0611  0.1420
   34POPC   H9Y 4614   5.204   2.514   9.556  3.4687  1.3111  1.7252
   34POPC  C310 4615   5.257   2.493   9.355  0.3634 -0.0123  0.2563
   34POPC  H10X 4616   5.157   2.534   9.329  1.3073  2.6305  0.4972
   34POPC  H10Y 4617   5.290   2.411   9.288 -1.3687 -1.8418  1.5171
   34POPC  C311 4618   5.358   2.598   9.333  0.3176 -0.1238  0.7005
   34POPC  H11X 4619   5.456   2.547   9.342  0.1827 -0.0114  3.3125
   34POPC  H11Y 4620   5.359   2.672   9.415 -0.3799  2.4118 -1.4307
   34POPC  C312 4621   5.350   2.672   9.194 -0.1514  0.0496 -0.1760
   34POPC  H12X 4622   5.295   2.768   9.197  2.8123  1.9512 -1.7925
   34POPC  H12Y 4623   5.300   2.603   9.122 -1.0351  0.2211  0.2521
   34POPC  C313 4624   5.491   2.699   9.141 -0.5138  0.1264 -0.1843
   34POPC  H13X 4625   5.557   2.616   9.173  0.1226  0.2991 -1.0253
   34POPC  H13Y 4626   5.531   2.789   9.193  0.0046 -1.4669  2.3838
   34POPC  C314 4627   5.506   2.705   8.983  0.1200 -0.4164 -0.7400
   34POPC  H14X 4628   5.427   2.777   8.952  1.1292  1.0718  0.0421
   34POPC  H14Y 4629   5.484   2.600   8.954  1.1659 -1.5447  2.1536
   34POPC  C315 4630   5.655   2.739   8.959  0.3274 -0.1652  0.2148
   34POPC  H15X 4631   5.709   2.657   9.011  0.4301  0.1806  0.6619
   34POPC  H15Y 4632   5.697   2.833   9.001  1.1004 -0.1389 -0.5834
   34POPC  C316 4633   5.689   2.718   8.809 -0.2236  0.3466 -0.3004
   34POPC  H16X 4634   5.686   2.610   8.781  0.0573  0.1272  0.4799
   34POPC  H16Y 4635   5.788   2.764   8.788 -0.3282  0.4108 -0.6576
   34POPC  H16Z 4636   5.602   2.762   8.756 -0.4648  0.1172 -0.1014
   35POPC     N 4637   5.618   5.183  11.418  0.7379 -0.2269 -0.4768
   35POPC   C12 4638   5.550   5.164  11.282 -0.1237  0.5795 -0.3098
   35POPC  H12A 4639   5.522   5.061  11.265 -0.4243  0.8330 -1.4421
   35POPC  H12B 4640   5.625   5.170  11.205  0.3681  2.3591  0.2740
   35POPC   C13 4641   5.671   5.319  11.447  0.8482 -0.6398 -0.1935
   35POPC  H13A 4642   5.668   5.334  11.553  1.8534  1.5623 -0.4313
   35POPC  H13B 4643   5.774   5.325  11.415  0.1248  1.3205 -2.4130
   35POPC  H13C 4644   5.616   5.398  11.398  0.5012  0.2612  1.6045
   35POPC   C14 4645   5.504   5.158  11.518 -0.3090  0.6627  0.6745
   35POPC  H14A 4646   5.431   5.234  11.498 -0.5690  0.1012 -0.6270
   35POPC  H14B 4647   5.452   5.066  11.497 -3.7752  2.5583  0.2010
   35POPC  H14C 4648   5.543   5.176  11.617 -1.9868  2.5094  1.0533
   35POPC   C15 4649   5.734   5.087  11.444 -0.8609 -0.2489  0.3029
   35POPC  H15A 4650   5.793   5.088  11.354  0.0395  0.0804  0.8845
   35POPC  H15B 4651   5.691   4.991  11.471  0.7696 -1.3557 -0.8542
   35POPC  H15C 4652   5.799   5.117  11.525 -0.3906  2.0626 -0.8590
   35POPC   C11 4653   5.433   5.258  11.254  0.9338 -0.0877  0.0043
   35POPC  H11A 4654   5.349   5.237  11.323  0.5107  0.8308 -0.2170
   35POPC  H11B 4655   5.399   5.227  11.153  0.7994 -0.1320  0.0635
   35POPC     P 4656   5.553   5.464  11.148 -0.1651 -0.2356  0.0756
   35POPC   O13 4657   5.667   5.375  11.128 -0.3664 -0.0799 -0.2446
   35POPC   O14 4658   5.582   5.602  11.187 -0.2610  0.2876 -0.1733
   35POPC   O12 4659   5.462   5.402  11.264  0.0328 -0.6493 -0.7442
   35POPC   O11 4660   5.466   5.456  11.020  0.2341  0.2405  0.2050
   35POPC    C1 4661   5.343   5.527  11.006  0.1373  0.0737  0.1283
   35POPC    HA 4662   5.314   5.580  11.099  0.3899  0.5609 -0.0686
   35POPC    HB 4663   5.258   5.457  10.992 -2.8650  3.1173  1.5565
   35POPC    C2 4664   5.355   5.634  10.890  0.3642  0.2140 -0.2398
   35POPC    HS 4665   5.260   5.692  10.887  0.8039  1.0087  0.4824
   35POPC   O21 4666   5.385   5.569  10.759 -0.4090 -0.9510  0.2764
   35POPC   C21 4667   5.275   5.534  10.693 -0.1725  0.1063  0.4221
   35POPC   O22 4668   5.159   5.548  10.732 -0.4440 -0.3631  0.8653
   35POPC   C22 4669   5.304   5.494  10.547  0.1515 -0.7049  0.5777
   35POPC   H2R 4670   5.215   5.441  10.509 -0.3046  1.4096 -1.5797
   35POPC   H2S 4671   5.380   5.413  10.551  1.8687  0.8177  0.1787
   35POPC    C3 4672   5.463   5.744  10.923 -0.0965  0.0515 -0.5760
   35POPC    HX 4673   5.555   5.681  10.914 -1.4046 -1.9503 -0.7165
   35POPC    HY 4674   5.470   5.778  11.028 -1.4734  2.2634 -1.1467
   35POPC   O31 4675   5.459   5.854  10.830 -0.2533  0.0840  0.2668
   35POPC   C31 4676   5.569   5.920  10.814 -0.5113 -0.4617 -0.0836
   35POPC   O32 4677   5.676   5.904  10.873  0.0269 -0.3109 -0.5604
   35POPC   C32 4678   5.543   6.035  10.712 -0.3477 -0.1356 -0.2584
   35POPC   H2X 4679   5.642   6.086  10.708 -0.0493 -0.7491 -2.6383
   35POPC   H2Y 4680   5.470   6.110  10.748  2.3852  2.6633 -0.0960
   35POPC   C23 4681   5.350   5.610  10.463 -0.2783 -0.2370  0.8978
   35POPC   H3R 4682   5.419   5.681  10.514 -2.1600  1.5488  1.1107
   35POPC   H3S 4683   5.266   5.679  10.443 -1.3344 -1.8327 -0.3636
   35POPC   C24 4684   5.419   5.561  10.338 -0.3523  0.6057  0.7056
   35POPC   H4R 4685   5.340   5.498  10.291  0.9454 -0.6426  0.1363
   35POPC   H4S 4686   5.511   5.504  10.363  0.3444  1.9112  1.1983
   35POPC   C25 4687   5.472   5.677  10.245  0.5577  0.5831 -0.0013
   35POPC   H5R 4688   5.558   5.728  10.292  0.2506  0.1800  1.0105
   35POPC   H5S 4689   5.385   5.747  10.238 -1.2674 -1.4810  0.8395
   35POPC   C26 4690   5.510   5.627  10.110 -0.0735 -0.8508 -0.0689
   35POPC   H6R 4691   5.566   5.531  10.120 -2.0726 -1.9622  0.9484
   35POPC   H6S 4692   5.569   5.715  10.076 -1.8523 -0.7046 -3.1740
   35POPC   C27 4693   5.404   5.598  10.013  0.0259  0.2452  0.2814
   35POPC   H7R 4694   5.343   5.690   9.998  2.5406  2.3379  1.8755
   35POPC   H7S 4695   5.339   5.530  10.071 -0.3780  0.5811  0.2262
   35POPC   C28 4696   5.457   5.549   9.872 -0.4126 -0.1126 -0.6028
   35POPC   H8R 4697   5.536   5.474   9.893  1.1089  1.4440 -0.4420
   35POPC   H8S 4698   5.509   5.635   9.825 -0.8993  0.7554  0.3944
   35POPC   C29 4699   5.359   5.490   9.776  0.2171  0.2880  0.0888
   35POPC   H91 4700   5.285   5.428   9.830  2.1986 -1.1248  1.3306
   35POPC  C210 4701   5.337   5.508   9.637 -0.5023  0.4846 -0.7275
   35POPC  H101 4702   5.255   5.456   9.585 -0.9954  2.0657 -1.5728
   35POPC  C211 4703   5.422   5.596   9.549 -0.1818  0.9092  0.1218
   35POPC  H11R 4704   5.522   5.614   9.595  0.0245  1.1994 -0.4264
   35POPC  H11S 4705   5.374   5.696   9.538  0.3110  1.4564  2.5101
   35POPC  C212 4706   5.449   5.541   9.411 -0.2421 -0.7492 -0.1693
   35POPC  H12R 4707   5.519   5.456   9.419  1.3833  0.5900  0.4996
   35POPC  H12S 4708   5.519   5.609   9.358 -0.3446 -1.0389 -0.6793
   35POPC  C213 4709   5.322   5.520   9.321 -0.1195  0.4455  0.0135
   35POPC  H13R 4710   5.270   5.616   9.300 -0.1357  1.0312  2.4848
   35POPC  H13S 4711   5.252   5.454   9.378 -0.0162 -0.2962 -0.6973
   35POPC  C214 4712   5.363   5.457   9.182  0.7550  0.1152  0.5597
   35POPC  H14R 4713   5.433   5.373   9.199 -0.7880 -1.2298  0.4636
   35POPC  H14S 4714   5.420   5.543   9.141  0.4694  0.5909  1.1378
   35POPC  C215 4715   5.234   5.405   9.107 -0.0449  0.5084 -0.0397
   35POPC  H15R 4716   5.154   5.482   9.102 -0.5985 -0.1134 -1.1014
   35POPC  H15S 4717   5.191   5.317   9.160 -1.0469  1.0698  0.1033
   35POPC  C216 4718   5.262   5.372   8.963  0.2695 -0.2435 -0.3928
   35POPC  H16R 4719   5.352   5.308   8.958  0.2387 -0.2652 -0.6666
   35POPC  H16S 4720   5.269   5.471   8.913 -1.8247  0.9853  1.5332
   35POPC  C217 4721   5.155   5.286   8.892  0.1270 -0.0713 -0.5886
   35POPC  H17R 4722   5.193   5.278   8.788  3.1617  2.5255  0.1468
   35POPC  H17S 4723   5.058   5.338   8.879  0.8524  0.9568 -2.2107
   35POPC  C218 4724   5.145   5.145   8.963  0.2667  0.8926  0.0327
   35POPC  H18R 4725   5.058   5.085   8.929  0.3524  0.2788  0.8704
   35POPC  H18S 4726   5.127   5.157   9.072  0.0616  2.0618 -0.1167
   35POPC  H18T 4727   5.238   5.085   8.957 -1.5561 -2.0457 -1.1269
   35POPC   C33 4728   5.511   5.992  10.567  0.3557  0.6649 -0.8282
   35POPC   H3X 4729   5.408   5.950  10.572  0.0083  1.6125  0.4446
   35POPC   H3Y 4730   5.588   5.919  10.534  0.3212  0.0531  0.4006
   35POPC   C34 4731   5.512   6.106  10.467 -0.5073 -0.3417 -0.4535
   35POPC   H4X 4732   5.614   6.152  10.473 -0.6349 -0.2164  1.0043
   35POPC   H4Y 4733   5.437   6.183  10.495  0.7452  0.9708 -0.5378
   35POPC   C35 4734   5.477   6.062  10.321 -0.2492 -0.1091  0.4032
   35POPC   H5X 4735   5.395   5.987  10.328  0.2983 -1.0224 -2.1124
   35POPC   H5Y 4736   5.565   6.007  10.280  1.0520 -0.0172  2.8558
   35POPC   C36 4737   5.427   6.179  10.227 -0.2246 -0.0325 -0.0019
   35POPC   H6X 4738   5.521   6.231  10.198  0.3473 -1.7625 -1.4395
   35POPC   H6Y 4739   5.362   6.255  10.276 -0.0235  0.2471 -0.1671
   35POPC   C37 4740   5.355   6.133  10.093 -0.0664  0.1403 -0.9981
   35POPC   H7X 4741   5.359   6.237  10.053 -1.9998  1.3262  1.6221
   35POPC   H7Y 4742   5.254   6.108  10.131  0.1869 -0.7257 -0.8615
   35POPC   C38 4743   5.431   6.023  10.018 -0.9894  0.4478 -0.2165
   35POPC   H8X 4744   5.383   5.925  10.038 -1.6977  0.9031  0.3713
   35POPC   H8Y 4745   5.531   6.023  10.066 -1.1670  1.6902  0.1867
   35POPC   C39 4746   5.448   6.057   9.873 -0.0594  0.7940  0.2573
   35POPC   H9X 4747   5.517   6.144   9.879  0.3200  0.4744  0.7223
   35POPC   H9Y 4748   5.347   6.080   9.833 -0.8667 -1.4299  0.8258
   35POPC  C310 4749   5.516   5.957   9.785 -0.3176 -0.2363 -0.1852
   35POPC  H10X 4750   5.450   5.869   9.765  0.2969 -1.1569  1.5812
   35POPC  H10Y 4751   5.601   5.923   9.847 -0.5834  0.4370  0.5680
   35POPC  C311 4752   5.562   6.024   9.654  0.0201 -0.3566 -0.1085
   35POPC  H11X 4753   5.602   5.944   9.588  0.8903 -0.8517  0.9861
   35POPC  H11Y 4754   5.654   6.075   9.690 -0.5345  1.1709 -0.7721
   35POPC  C312 4755   5.452   6.094   9.567 -0.6477  0.1376 -0.3332
   35POPC  H12X 4756   5.509   6.151   9.490  3.4025  0.2796  2.4911
   35POPC  H12Y 4757   5.391   6.164   9.629  1.7438  2.1557 -0.1232
   35POPC  C313 4758   5.357   5.995   9.496  0.3872  0.4836  0.0746
   35POPC  H13X 4759   5.279   5.975   9.573  0.5349  2.1991  0.7159
   35POPC  H13Y 4760   5.408   5.900   9.467 -2.3444 -0.5099 -1.8224
   35POPC  C314 4761   5.289   6.059   9.376 -1.1677  0.4913 -0.1750
   35POPC  H14X 4762   5.281   6.166   9.405 -0.5065  0.5723 -0.2711
   35POPC  H14Y 4763   5.192   6.006   9.374 -0.3291 -1.1433  0.7378
   35POPC  C315 4764   5.372   6.024   9.248 -0.2123 -0.9634  0.1985
   35POPC  H15X 4765   5.362   5.919   9.214  0.3446 -1.4569  1.4879
   35POPC  H15Y 4766   5.481   6.034   9.271 -0.2317  0.8771 -0.3100
   35POPC  C316 4767   5.340   6.122   9.136  0.3439 -0.0787  0.0164
   35POPC  H16X 4768   5.233   6.121   9.106  0.6181 -0.2896 -0.9874
   35POPC  H16Y 4769   5.403   6.100   9.047  1.7284  0.6440  0.7732
   35POPC  H16Z 4770   5.365   6.226   9.167 -1.0442  0.3222 -0.1398
   36POPC     N 4771   5.889   3.642  10.630 -0.7327  0.1566  0.0218
   36POPC   C12 4772   5.772   3.740  10.643 -0.5102  0.2690  0.5405
   36POPC  H12A 4773   5.792   3.825  10.580  0.6150  0.9493  1.7734
   36POPC  H12B 4774   5.769   3.786  10.741  0.3962  0.7135  0.3704
   36POPC   C13 4775   5.877   3.540  10.737 -0.8777  0.0717 -1.0139
   36POPC  H13A 4776   5.777   3.504  10.756 -0.1031 -1.0906  1.1808
   36POPC  H13B 4777   5.934   3.448  10.733 -3.9502 -1.9782 -0.8133
   36POPC  H13C 4778   5.922   3.590  10.821  1.4015 -1.6635 -1.0892
   36POPC   C14 4779   5.883   3.581  10.498 -0.5245 -0.5921  0.3858
   36POPC  H14A 4780   5.965   3.513  10.480  0.7783  1.2559 -1.0953
   36POPC  H14B 4781   5.786   3.533  10.489 -1.1288  0.3372  1.6038
   36POPC  H14C 4782   5.886   3.662  10.426  0.0985  0.0046  1.0644
   36POPC   C15 4783   6.020   3.712  10.649  0.3834  0.0757  0.4083
   36POPC  H15A 4784   6.029   3.764  10.743  0.9743  1.6830 -0.5033
   36POPC  H15B 4785   6.041   3.785  10.573 -2.0600 -0.7329 -1.1634
   36POPC  H15C 4786   6.102   3.642  10.644  0.7311  0.5805 -3.0962
   36POPC   C11 4787   5.634   3.684  10.601  0.0865 -0.1027  0.0199
   36POPC  H11A 4788   5.646   3.624  10.508  0.1743 -2.5359  1.5145
   36POPC  H11B 4789   5.574   3.774  10.576 -0.2600  0.3210  2.1674
   36POPC     P 4790   5.472   3.672  10.812  0.3866 -0.0175  0.4326
   36POPC   O13 4791   5.498   3.813  10.805  0.2029 -0.5319 -0.0249
   36POPC   O14 4792   5.479   3.604  10.943  0.2177 -0.6812  0.1518
   36POPC   O12 4793   5.568   3.603  10.700 -1.1588  0.8014 -0.6928
   36POPC   O11 4794   5.325   3.644  10.759 -0.5507  0.1224 -0.3092
   36POPC    C1 4795   5.279   3.658  10.626 -0.3812  0.0280 -0.7431
   36POPC    HA 4796   5.201   3.583  10.601 -0.4281  0.4956 -2.0660
   36POPC    HB 4797   5.362   3.635  10.556 -1.6673  0.5663 -2.5221
   36POPC    C2 4798   5.233   3.806  10.597 -0.1351  0.6269 -0.2552
   36POPC    HS 4799   5.320   3.872  10.620 -1.9440  2.8656  0.5286
   36POPC   O21 4800   5.111   3.840  10.667  0.2951 -0.4313  0.8820
   36POPC   C21 4801   5.104   3.959  10.730 -0.8098 -0.0520 -0.3743
   36POPC   O22 4802   5.196   4.036  10.738 -0.1469  0.5918 -0.2174
   36POPC   C22 4803   4.967   3.973  10.794 -0.1098 -0.6532 -0.0521
   36POPC   H2R 4804   4.977   4.001  10.901 -2.8701  0.8667 -0.0944
   36POPC   H2S 4805   4.922   3.871  10.794  3.5476 -2.4358 -0.9551
   36POPC    C3 4806   5.208   3.828  10.442 -0.9862 -1.0237  0.6489
   36POPC    HX 4807   5.189   3.937  10.429 -0.8514 -1.2364 -1.8036
   36POPC    HY 4808   5.117   3.772  10.414 -0.5896 -2.6207  2.3701
   36POPC   O31 4809   5.324   3.789  10.364  0.1732  0.5427 -0.3142
   36POPC   C31 4810   5.417   3.878  10.329 -0.3795  0.0754 -0.3422
   36POPC   O32 4811   5.408   3.995  10.359 -0.0380 -0.2125  0.0590
   36POPC   C32 4812   5.536   3.808  10.271  0.1131 -0.1481  0.0677
   36POPC   H2X 4813   5.512   3.700  10.262  0.3387 -0.1484 -0.6032
   36POPC   H2Y 4814   5.608   3.809  10.356 -0.9911 -0.0405  1.0240
   36POPC   C23 4815   4.881   4.080  10.721  0.0684 -0.2079 -0.2094
   36POPC   H3R 4816   4.931   4.173  10.755 -1.7047  0.8054 -0.3072
   36POPC   H3S 4817   4.783   4.069  10.772 -0.0094  2.8806  0.4418
   36POPC   C24 4818   4.869   4.064  10.575  0.1993 -0.8671  0.1797
   36POPC   H4R 4819   4.965   4.076  10.522  0.2946  1.3140  0.7664
   36POPC   H4S 4820   4.812   4.146  10.527  1.8691  0.0656 -0.2859
   36POPC   C25 4821   4.817   3.937  10.523  0.7285  0.1320  0.3130
   36POPC   H5R 4822   4.710   3.926  10.550  0.8058 -0.8118  0.2662
   36POPC   H5S 4823   4.861   3.847  10.570  0.9324  1.8890  3.7848
   36POPC   C26 4824   4.831   3.924  10.368 -0.5404  0.0051 -0.3908
   36POPC   H6R 4825   4.939   3.932  10.346 -0.2978 -0.5858  0.5282
   36POPC   H6S 4826   4.779   4.011  10.321 -0.0017  1.0732  0.9083
   36POPC   C27 4827   4.767   3.793  10.318  0.8611  0.2045  0.5548
   36POPC   H7R 4828   4.659   3.779  10.338  0.8794 -3.8494 -1.1401
   36POPC   H7S 4829   4.799   3.699  10.367 -2.2316 -2.5686 -2.2178
   36POPC   C28 4830   4.795   3.773  10.167 -0.0185  0.1136 -0.3018
   36POPC   H8R 4831   4.895   3.726  10.162  0.9197  1.9401  0.4081
   36POPC   H8S 4832   4.804   3.873  10.120  0.6731 -0.9652 -2.6458
   36POPC   C29 4833   4.698   3.686  10.091 -0.2873  0.2055  0.1989
   36POPC   H91 4834   4.651   3.610  10.155 -0.9129  0.8229  0.4985
   36POPC  C210 4835   4.663   3.706   9.959  0.0680  0.3946  0.1341
   36POPC  H101 4836   4.597   3.633   9.910  0.4785 -0.3820  0.7185
   36POPC  C211 4837   4.727   3.817   9.871 -0.4579 -0.0908  0.6823
   36POPC  H11R 4838   4.821   3.849   9.920 -0.0880 -1.1435  0.6771
   36POPC  H11S 4839   4.659   3.903   9.889 -1.8870 -1.2228  0.9509
   36POPC  C212 4840   4.773   3.777   9.725 -0.7196 -0.8850  0.1533
   36POPC  H12R 4841   4.819   3.676   9.722  2.6466  0.5053 -3.5865
   36POPC  H12S 4842   4.852   3.854   9.710 -1.7692  0.3263  0.6838
   36POPC  C213 4843   4.661   3.796   9.627 -0.3895  0.0096 -1.0733
   36POPC  H13R 4844   4.612   3.893   9.646  1.8995  0.8079  1.2985
   36POPC  H13S 4845   4.590   3.713   9.649 -0.1612 -0.6395 -2.6590
   36POPC  C214 4846   4.699   3.766   9.480 -0.5645 -0.6872 -0.8004
   36POPC  H14R 4847   4.754   3.670   9.484  0.0037 -0.3194  0.9638
   36POPC  H14S 4848   4.767   3.850   9.452  1.0597 -1.0137  1.8170
   36POPC  C215 4849   4.572   3.754   9.394 -0.2413 -0.2267 -0.2333
   36POPC  H15R 4850   4.484   3.816   9.421 -1.6749 -2.6838  1.0617
   36POPC  H15S 4851   4.533   3.652   9.413  1.2755 -0.7076  0.5200
   36POPC  C216 4852   4.607   3.771   9.246  0.6495  0.1728  0.2372
   36POPC  H16R 4853   4.699   3.714   9.220  0.0636  0.0586 -1.6955
   36POPC  H16S 4854   4.636   3.875   9.220  1.0821 -0.4181 -1.8607
   36POPC  C217 4855   4.492   3.727   9.161  0.1923  0.2069  0.2514
   36POPC  H17R 4856   4.403   3.793   9.166  1.2791  1.6509  1.3768
   36POPC  H17S 4857   4.466   3.625   9.199  0.5638 -1.7273 -4.1259
   36POPC  C218 4858   4.520   3.720   9.006 -0.3096 -0.1289 -1.0648
   36POPC  H18R 4859   4.625   3.686   8.992  0.1706  0.0391  1.6176
   36POPC  H18S 4860   4.497   3.816   8.956  1.8843 -0.1787 -2.3275
   36POPC  H18T 4861   4.456   3.641   8.960  0.3511 -1.3461  0.0406
   36POPC   C33 4862   5.600   3.863  10.140  0.4409 -0.1274  0.0065
   36POPC   H3X 4863   5.696   3.810  10.121 -0.2699 -1.9940  1.3354
   36POPC   H3Y 4864   5.627   3.970  10.156  0.5059 -0.1914  0.3376
   36POPC   C34 4865   5.513   3.843  10.016 -0.4630  0.1157  0.5144
   36POPC   H4X 4866   5.405   3.845  10.043 -0.4118 -2.6125  1.2088
   36POPC   H4Y 4867   5.527   3.738   9.982  2.8508  0.5951  0.1270
   36POPC   C35 4868   5.549   3.946   9.901 -0.1109  0.4330  0.1367
   36POPC   H5X 4869   5.660   3.951   9.903 -0.0887 -0.0105  1.6461
   36POPC   H5Y 4870   5.501   4.044   9.920 -0.1348  0.7072 -1.2913
   36POPC   C36 4871   5.495   3.889   9.768  0.6324 -0.7031  0.0846
   36POPC   H6X 4872   5.385   3.886   9.771  0.5496  1.6505  2.2387
   36POPC   H6Y 4873   5.532   3.788   9.740  0.1378 -0.5213 -1.2931
   36POPC   C37 4874   5.542   3.967   9.642 -0.1366  0.2038  0.3939
   36POPC   H7X 4875   5.651   3.986   9.648 -0.3625  1.4597  0.7371
   36POPC   H7Y 4876   5.492   4.067   9.640 -1.3750 -0.4036 -0.5150
   36POPC   C38 4877   5.522   3.903   9.496  0.5428 -1.1453 -0.3928
   36POPC   H8X 4878   5.413   3.892   9.478  0.6452 -0.7176 -1.3145
   36POPC   H8Y 4879   5.569   3.803   9.503 -2.4512 -2.8006 -1.9158
   36POPC   C39 4880   5.595   3.972   9.380  0.0475 -0.0623 -0.0774
   36POPC   H9X 4881   5.701   3.954   9.409 -0.8780 -1.5367  2.8321
   36POPC   H9Y 4882   5.569   4.079   9.366 -1.4496 -0.0297  2.4068
   36POPC  C310 4883   5.551   3.909   9.251  0.0566 -0.3641  0.7292
   36POPC  H10X 4884   5.441   3.918   9.248 -0.1257 -2.2771  0.3933
   36POPC  H10Y 4885   5.576   3.801   9.255 -1.1044 -0.6696  0.2006
   36POPC  C311 4886   5.622   3.961   9.122 -0.1892  0.2419 -0.1398
   36POPC  H11X 4887   5.729   3.938   9.138 -0.0710 -0.4321 -1.7727
   36POPC  H11Y 4888   5.600   4.069   9.112 -2.0402  0.1108  1.7695
   36POPC  C312 4889   5.578   3.897   8.993  0.4930  0.0580 -0.7293
   36POPC  H12X 4890   5.469   3.890   8.972  0.1788  0.4165  0.6765
   36POPC  H12Y 4891   5.613   3.792   8.981  4.2227  0.9216  0.9303
   36POPC  C313 4892   5.648   3.964   8.881 -0.2326 -0.3577  0.2438
   36POPC  H13X 4893   5.759   3.964   8.880 -0.1980 -1.3636 -2.0206
   36POPC  H13Y 4894   5.643   4.075   8.887  2.8586 -0.0264 -1.4201
   36POPC  C314 4895   5.609   3.913   8.738  0.4177  0.0243  0.3317
   36POPC  H14X 4896   5.500   3.933   8.735  0.7691  1.9990 -1.4884
   36POPC  H14Y 4897   5.615   3.802   8.736 -1.0507 -0.0762 -1.5886
   36POPC  C315 4898   5.681   3.968   8.619  0.6040 -0.3863  0.1713
   36POPC  H15X 4899   5.651   3.906   8.532 -1.1966 -1.0873  1.2322
   36POPC  H15Y 4900   5.791   3.965   8.633  0.7110  0.1543 -0.4611
   36POPC  C316 4901   5.638   4.118   8.600  0.2273 -0.8868  0.2878
   36POPC  H16X 4902   5.527   4.120   8.602  0.2002 -1.1234  3.1200
   36POPC  H16Y 4903   5.671   4.160   8.502 -1.0508  0.3197  0.3412
   36POPC  H16Z 4904   5.677   4.177   8.685 -0.5386 -3.2374  2.3717
   37POPC     N 4905   3.013   0.563   5.954 -0.0527  0.7382 -0.0102
   37POPC   C12 4906   3.103   0.543   6.079 -0.6018  0.1950  0.1056
   37POPC  H12A 4907   3.203   0.551   6.039 -0.5422  0.2726  0.2692
   37POPC  H12B 4908   3.088   0.445   6.124 -0.9797 -0.8914 -2.2458
   37POPC   C13 4909   3.075   0.498   5.833 -0.2068  0.6545 -0.1076
   37POPC  H13A 4910   3.008   0.511   5.749  0.5851 -1.5223 -1.1655
   37POPC  H13B 4911   3.167   0.546   5.805  1.2659 -1.8360  0.1401
   37POPC  H13C 4912   3.091   0.393   5.852  0.5381  1.1777  2.5298
   37POPC   C14 4913   2.874   0.514   5.986  0.1481  0.2055 -0.0237
   37POPC  H14A 4914   2.801   0.541   5.911 -0.8237  0.8188  1.1077
   37POPC  H14B 4915   2.866   0.409   6.008  0.6244  0.2838  0.5369
   37POPC  H14C 4916   2.846   0.563   6.078  0.5013 -2.0481  1.3433
   37POPC   C15 4917   3.012   0.709   5.920  0.5820 -0.1643  0.0996
   37POPC  H15A 4918   3.108   0.745   5.887 -0.4750  1.9324 -0.9341
   37POPC  H15B 4919   3.004   0.773   6.007 -0.4784 -0.2347  0.0700
   37POPC  H15C 4920   2.946   0.732   5.838 -0.8068  2.1241  1.7236
   37POPC   C11 4921   3.069   0.641   6.199 -0.4707 -0.4172 -0.5391
   37POPC  H11A 4922   3.090   0.748   6.178  0.3652 -0.3620  0.4965
   37POPC  H11B 4923   3.150   0.620   6.272 -1.5009 -3.4453 -0.1474
   37POPC     P 4924   2.922   0.515   6.375  0.2737 -0.0517 -0.4937
   37POPC   O13 4925   2.974   0.394   6.321 -0.0154 -0.1057  0.3758
   37POPC   O14 4926   2.779   0.514   6.402 -0.1952  0.3929  0.2458
   37POPC   O12 4927   2.937   0.627   6.260 -0.0017  0.8098 -0.0812
   37POPC   O11 4928   2.992   0.560   6.500  0.3653 -0.1200 -0.6591
   37POPC    C1 4929   3.008   0.692   6.539 -0.2206 -0.1404  0.2305
   37POPC    HA 4930   3.007   0.762   6.453 -1.4442 -1.2653 -0.7077
   37POPC    HB 4931   3.111   0.694   6.580 -0.0931  0.4001 -0.1088
   37POPC    C2 4932   2.916   0.738   6.656  0.1319 -0.1736  0.3688
   37POPC    HS 4933   2.816   0.741   6.608 -0.1096  1.8492  0.9031
   37POPC   O21 4934   2.961   0.867   6.705 -0.5765 -0.1019 -0.1679
   37POPC   C21 4935   2.923   0.964   6.626  0.4771  0.3278 -0.5490
   37POPC   O22 4936   2.848   0.954   6.530 -0.9279  0.2450  0.5656
   37POPC   C22 4937   2.956   1.106   6.682  0.1202 -0.5078 -0.4182
   37POPC   H2R 4938   2.936   1.182   6.603 -2.3548  0.4174  0.9856
   37POPC   H2S 4939   3.066   1.104   6.700  0.3055  1.9045 -0.9754
   37POPC    C3 4940   2.926   0.638   6.772  0.4231  0.0606  0.8130
   37POPC    HX 4941   3.032   0.639   6.805  0.7921 -3.6457  0.1731
   37POPC    HY 4942   2.895   0.538   6.735 -1.1257  0.9348 -0.3719
   37POPC   O31 4943   2.840   0.677   6.887  0.4675 -0.2413  0.4893
   37POPC   C31 4944   2.705   0.664   6.871 -0.2742  0.1602 -0.0648
   37POPC   O32 4945   2.648   0.615   6.776 -0.8960 -0.4291 -0.1349
   37POPC   C32 4946   2.633   0.738   6.989 -0.6761 -0.4429 -0.2253
   37POPC   H2X 4947   2.667   0.843   6.978  0.2964 -0.4764  1.9740
   37POPC   H2Y 4948   2.677   0.689   7.079  0.8223 -0.3234 -0.8619
   37POPC   C23 4949   2.881   1.144   6.813  0.2095  0.3008  0.1934
   37POPC   H3R 4950   2.771   1.134   6.803  0.3362 -3.1833  1.0971
   37POPC   H3S 4951   2.896   1.253   6.830  2.6454 -0.1232  1.2675
   37POPC   C24 4952   2.932   1.056   6.926  0.7337  0.1576  0.2409
   37POPC   H4R 4953   3.037   1.068   6.959  1.8332 -0.8823 -2.5759
   37POPC   H4S 4954   2.913   0.948   6.914  0.7261 -0.0417  1.8061
   37POPC   C25 4955   2.867   1.093   7.059  0.1894 -0.0608  0.7971
   37POPC   H5R 4956   2.877   1.005   7.125 -1.4899 -0.4727  0.5481
   37POPC   H5S 4957   2.757   1.097   7.048  0.0487  1.4256  2.3561
   37POPC   C26 4958   2.910   1.219   7.114  0.2084  0.2218 -0.3570
   37POPC   H6R 4959   2.889   1.300   7.041 -1.3326 -0.7592 -1.0508
   37POPC   H6S 4960   3.021   1.223   7.121  0.1266  2.4371  0.3725
   37POPC   C27 4961   2.857   1.238   7.263  0.1459 -0.1770 -0.1857
   37POPC   H7R 4962   2.879   1.151   7.328 -3.4110 -1.7775 -0.8662
   37POPC   H7S 4963   2.746   1.247   7.260 -0.4722 -3.9195  3.1684
   37POPC   C28 4964   2.900   1.372   7.327 -0.8357 -0.2905 -0.7176
   37POPC   H8R 4965   2.892   1.447   7.245  1.6900 -2.0287 -2.7008
   37POPC   H8S 4966   3.009   1.359   7.346 -1.1817 -1.8471  0.3842
   37POPC   C29 4967   2.822   1.423   7.451 -0.3532 -0.1797  0.3312
   37POPC   H91 4968   2.715   1.406   7.432  0.1343 -0.5594 -2.4462
   37POPC  C210 4969   2.872   1.492   7.550  0.4054  0.0716  0.0745
   37POPC  H101 4970   2.812   1.517   7.639  2.8801  0.8662  1.6169
   37POPC  C211 4971   3.017   1.527   7.569  0.1151 -0.0451  0.2773
   37POPC  H11R 4972   3.029   1.632   7.606 -0.2003 -0.8316  2.8441
   37POPC  H11S 4973   3.083   1.509   7.482  1.8821 -0.0147  1.5556
   37POPC  C212 4974   3.072   1.437   7.683 -0.0993 -0.0302  0.0114
   37POPC  H12R 4975   3.047   1.335   7.647 -0.7638  1.0385 -2.7613
   37POPC  H12S 4976   3.009   1.456   7.773  1.8111  0.7491  1.2645
   37POPC  C213 4977   3.219   1.458   7.716 -0.1738 -0.4144  0.6398
   37POPC  H13R 4978   3.244   1.557   7.760  1.3734 -0.6299  0.2942
   37POPC  H13S 4979   3.272   1.452   7.618 -3.4065 -1.4235 -1.1850
   37POPC  C214 4980   3.283   1.381   7.836  0.1389  0.0492  0.2578
   37POPC  H14R 4981   3.295   1.281   7.789  0.8498 -0.3603  1.2792
   37POPC  H14S 4982   3.213   1.391   7.921 -3.2455  2.9854 -2.5560
   37POPC  C215 4983   3.418   1.439   7.872 -0.2931  0.2110  0.2083
   37POPC  H15R 4984   3.431   1.545   7.903  1.1294  0.2651 -0.5170
   37POPC  H15S 4985   3.481   1.430   7.781 -1.9633  1.8732 -1.2004
   37POPC  C216 4986   3.478   1.349   7.980 -0.1317 -0.0912  0.6904
   37POPC  H16R 4987   3.474   1.244   7.943 -2.0043  1.0850 -2.9010
   37POPC  H16S 4988   3.416   1.360   8.072 -2.0210  0.9991 -0.6338
   37POPC  C217 4989   3.623   1.391   8.011 -0.1670  0.5608  0.3304
   37POPC  H17R 4990   3.626   1.496   8.047 -2.0375 -0.4590  3.9430
   37POPC  H17S 4991   3.665   1.379   7.908 -0.7347 -1.5240  0.2973
   37POPC  C218 4992   3.685   1.290   8.108  0.0888 -0.0696 -0.7517
   37POPC  H18R 4993   3.621   1.290   8.199 -0.8942  2.3547 -1.3646
   37POPC  H18S 4994   3.787   1.320   8.140  0.0467  0.7098 -1.3205
   37POPC  H18T 4995   3.692   1.190   8.059  1.0200 -0.9516  1.0712
   37POPC   C33 4996   2.478   0.732   6.991 -0.5111 -0.8314  0.3647
   37POPC   H3X 4997   2.443   0.773   7.089 -0.6149 -0.2877  0.1029
   37POPC   H3Y 4998   2.447   0.626   6.976  0.5627 -1.1543  0.3302
   37POPC   C34 4999   2.408   0.817   6.886  0.3537  0.2204  0.7444
   37POPC   H4X 5000   2.450   0.809   6.784  0.9631  3.0061  0.7029
   37POPC   H4Y 5001   2.414   0.926   6.909  0.5900  0.4068 -0.1546
   37POPC   C35 5002   2.254   0.790   6.891  0.1122  0.8245  0.6010
   37POPC   H5X 5003   2.230   0.685   6.861 -1.7134  1.2941  0.3095
   37POPC   H5Y 5004   2.214   0.852   6.809 -0.7159  1.1654  1.2590
   37POPC   C36 5005   2.191   0.812   7.026 -0.6066  0.0345 -0.1433
   37POPC   H6X 5006   2.214   0.918   7.050  3.5279 -0.6139 -0.4300
   37POPC   H6Y 5007   2.233   0.745   7.105  0.7816 -0.8632 -1.5764
   37POPC   C37 5008   2.036   0.769   7.037  0.3139  0.4378 -0.4565
   37POPC   H7X 5009   2.014   0.752   7.145  1.2439  4.2620  0.5082
   37POPC   H7Y 5010   2.036   0.675   6.979  1.2540  2.3172 -3.7722
   37POPC   C38 5011   1.939   0.876   6.972 -0.4892  0.0826 -0.5503
   37POPC   H8X 5012   1.976   0.898   6.869  0.0801  0.6489 -0.2331
   37POPC   H8Y 5013   1.964   0.964   7.035 -0.1055 -0.3339 -0.1092
   37POPC   C39 5014   1.794   0.829   6.973  1.0026  0.0791  0.1795
   37POPC   H9X 5015   1.782   0.750   6.896 -1.1892 -1.2904  1.8202
   37POPC   H9Y 5016   1.724   0.906   6.936 -1.7524 -1.4992  1.8134
   37POPC  C310 5017   1.744   0.789   7.110 -0.2418 -0.1999 -0.3275
   37POPC  H10X 5018   1.817   0.844   7.173  1.9590 -1.5816 -1.5314
   37POPC  H10Y 5019   1.761   0.681   7.129 -1.9973 -0.1441  1.9618
   37POPC  C311 5020   1.598   0.820   7.137 -0.0942 -0.2695 -0.3468
   37POPC  H11X 5021   1.531   0.757   7.075 -0.8994 -1.7080  1.8371
   37POPC  H11Y 5022   1.578   0.928   7.124 -2.9854 -0.5602  0.8464
   37POPC  C312 5023   1.556   0.779   7.278 -0.0885  0.5407  0.7655
   37POPC  H12X 5024   1.597   0.678   7.299 -2.7317 -0.7034  0.4176
   37POPC  H12Y 5025   1.445   0.773   7.278 -0.2594  2.0626 -1.6838
   37POPC  C313 5026   1.590   0.881   7.393 -0.2744  0.4075 -0.1083
   37POPC  H13X 5027   1.576   0.984   7.353 -2.8021  0.4051  0.5412
   37POPC  H13Y 5028   1.695   0.866   7.424  0.4894 -0.3824 -2.7971
   37POPC  C314 5029   1.503   0.859   7.514 -0.0978 -0.0459  0.5514
   37POPC  H14X 5030   1.400   0.894   7.491  1.2222  3.0460 -1.3266
   37POPC  H14Y 5031   1.532   0.925   7.598  0.1311  2.1650 -1.1695
   37POPC  C315 5032   1.521   0.711   7.567  0.1925  0.3650  0.4313
   37POPC  H15X 5033   1.629   0.705   7.595 -0.3072  1.6593  2.9618
   37POPC  H15Y 5034   1.518   0.630   7.491  1.7320 -0.9095  1.6238
   37POPC  C316 5035   1.431   0.677   7.682  0.0992 -0.0747 -0.7447
   37POPC  H16X 5036   1.398   0.770   7.734  0.5179 -0.0440 -0.5229
   37POPC  H16Y 5037   1.465   0.598   7.753 -0.6477  0.1666 -0.0978
   37POPC  H16Z 5038   1.336   0.629   7.651 -0.1311  0.8214 -1.4685
   38POPC     N 5039   5.591   6.200   6.196 -0.5732  0.1265 -0.1179
   38POPC   C12 5040   5.585   6.266   6.336  0.2837  0.6483 -0.2184
   38POPC  H12A 5041   5.551   6.369   6.334 -0.5655  0.4805  2.3002
   38POPC  H12B 5042   5.687   6.275   6.368  0.0192 -1.3111  1.3601
   38POPC   C13 5043   5.460   6.183   6.138  0.2493  0.4835  0.4535
   38POPC  H13A 5044   5.478   6.161   6.033 -0.6924  1.0465  0.1680
   38POPC  H13B 5045   5.400   6.104   6.182 -0.6823  0.7833 -0.2525
   38POPC  H13C 5046   5.404   6.274   6.149 -1.3201 -0.6819  2.9307
   38POPC   C14 5047   5.685   6.289   6.115 -0.1063 -0.2884 -0.6375
   38POPC  H14A 5048   5.658   6.393   6.122  1.5536  0.1673 -0.3945
   38POPC  H14B 5049   5.788   6.289   6.150 -0.3252  1.6701  0.1477
   38POPC  H14C 5050   5.697   6.261   6.012  3.4856 -0.4544 -0.3099
   38POPC   C15 5051   5.665   6.069   6.196  0.7204 -0.0074  0.2830
   38POPC  H15A 5052   5.599   5.983   6.207 -1.0314  0.8160 -2.5802
   38POPC  H15B 5053   5.742   6.068   6.271 -0.6468 -0.3813  1.7326
   38POPC  H15C 5054   5.713   6.058   6.100  0.8381 -1.7665  0.4927
   38POPC   C11 5055   5.497   6.188   6.435  0.0639 -0.0281 -0.5554
   38POPC  H11A 5056   5.513   6.239   6.532  1.1079 -0.5701 -0.4361
   38POPC  H11B 5057   5.532   6.083   6.443 -0.6226 -0.2789 -0.7806
   38POPC     P 5058   5.245   6.284   6.445 -0.3123 -0.0094  0.1700
   38POPC   O13 5059   5.116   6.221   6.414 -0.0758 -0.6579 -0.4548
   38POPC   O14 5060   5.267   6.411   6.380 -0.7080 -0.6433  0.6977
   38POPC   O12 5061   5.358   6.182   6.403 -0.6153  0.3707  0.1930
   38POPC   O11 5062   5.268   6.302   6.599  0.5935 -0.3904  0.1016
   38POPC    C1 5063   5.270   6.200   6.699 -0.0132  0.6063  0.0835
   38POPC    HA 5064   5.349   6.231   6.770  0.9929  0.5365 -0.9609
   38POPC    HB 5065   5.316   6.110   6.653 -2.7502 -0.3594 -0.9775
   38POPC    C2 5066   5.129   6.183   6.762 -0.3593  1.1018 -1.0484
   38POPC    HS 5067   5.059   6.183   6.676  0.2385  1.4745 -1.5495
   38POPC   O21 5068   5.102   6.300   6.848  0.8710 -0.6265  0.7907
   38POPC   C21 5069   4.972   6.323   6.877  0.1184 -0.4148  0.1902
   38POPC   O22 5070   4.874   6.258   6.841  0.4970 -0.2711 -0.6560
   38POPC   C22 5071   4.964   6.445   6.964 -0.2223 -0.3055 -0.6674
   38POPC   H2R 5072   4.869   6.502   6.954 -1.8581 -2.1001  2.7414
   38POPC   H2S 5073   5.039   6.515   6.922  1.0071 -0.8450  0.5644
   38POPC    C3 5074   5.128   6.048   6.842 -0.7571  0.1945  0.0014
   38POPC    HX 5075   5.168   5.971   6.772  1.1187  2.5798 -1.7141
   38POPC    HY 5076   5.018   6.033   6.852 -0.8605  1.4709  0.9669
   38POPC   O31 5077   5.203   6.058   6.961  0.2238  0.1747  0.3797
   38POPC   C31 5078   5.195   5.950   7.037 -0.7603 -0.1225 -0.4767
   38POPC   O32 5079   5.136   5.848   7.005  0.2751 -0.6814  0.0615
   38POPC   C32 5080   5.290   5.959   7.158 -0.8600  0.6330  0.3315
   38POPC   H2X 5081   5.364   6.042   7.147 -0.6568  0.2582 -1.2901
   38POPC   H2Y 5082   5.350   5.866   7.169 -0.7457  0.7097  0.3581
   38POPC   C23 5083   5.015   6.419   7.112 -0.9336 -0.7938  0.4052
   38POPC   H3R 5084   5.034   6.522   7.149  2.2305 -1.3483  0.5350
   38POPC   H3S 5085   5.111   6.366   7.093 -0.7880 -0.0955 -0.8700
   38POPC   C24 5086   4.916   6.349   7.195  0.2058 -0.0316 -0.4373
   38POPC   H4R 5087   4.897   6.254   7.141 -0.0195  0.1872 -0.7468
   38POPC   H4S 5088   4.823   6.407   7.214 -0.3688 -1.4603  1.3534
   38POPC   C25 5089   4.968   6.314   7.331  0.1546 -0.7997 -0.2274
   38POPC   H5R 5090   5.069   6.271   7.313 -0.9511 -3.3035 -0.8427
   38POPC   H5S 5091   4.914   6.231   7.382 -0.3791 -0.2706  0.0802
   38POPC   C26 5092   5.001   6.435   7.427  0.0538  0.3884 -0.5077
   38POPC   H6R 5093   4.914   6.500   7.449 -1.0664 -1.5017  0.8978
   38POPC   H6S 5094   5.085   6.492   7.380  0.4389 -0.1181 -0.4349
   38POPC   C27 5095   5.053   6.385   7.560  0.1173  0.8727 -0.6402
   38POPC   H7R 5096   5.147   6.326   7.558  0.2450  0.9397  1.2421
   38POPC   H7S 5097   4.977   6.316   7.602  0.8250  0.8765  0.6974
   38POPC   C28 5098   5.064   6.494   7.666  0.8384 -0.3084  0.0337
   38POPC   H8R 5099   5.095   6.446   7.761 -3.4270 -1.0856  1.2173
   38POPC   H8S 5100   4.964   6.538   7.681  2.1335  2.0837  2.4797
   38POPC   C29 5101   5.158   6.606   7.628  0.5315 -0.5004 -0.7130
   38POPC   H91 5102   5.135   6.635   7.525 -1.0159 -1.2987 -0.6173
   38POPC  C210 5103   5.249   6.665   7.711  0.3461 -0.9947 -0.3293
   38POPC  H101 5104   5.302   6.756   7.679 -2.1753 -0.0013 -1.9904
   38POPC  C211 5105   5.280   6.615   7.848  0.1568  0.4816 -0.1396
   38POPC  H11R 5106   5.304   6.506   7.856 -1.0851  0.3488  3.7313
   38POPC  H11S 5107   5.209   6.642   7.928 -2.6777 -3.5117 -0.9931
   38POPC  C212 5108   5.415   6.689   7.876 -0.3960  0.5300 -0.7256
   38POPC  H12R 5109   5.401   6.799   7.867  1.5449  0.8764 -0.0163
   38POPC  H12S 5110   5.492   6.660   7.801 -1.3183  1.2491 -1.9727
   38POPC  C213 5111   5.451   6.662   8.018  0.2823 -0.2276 -0.0985
   38POPC  H13R 5112   5.555   6.691   8.047 -0.6427  1.6195  1.5508
   38POPC  H13S 5113   5.450   6.555   8.045  1.1387  0.0714  1.2099
   38POPC  C214 5114   5.368   6.741   8.126 -0.8237 -0.3342  0.5710
   38POPC  H14R 5115   5.259   6.733   8.105 -1.8611  1.1225  4.4874
   38POPC  H14S 5116   5.402   6.846   8.121  0.4024 -0.7267  0.1505
   38POPC  C215 5117   5.377   6.695   8.269 -0.3047  0.1550  1.2107
   38POPC  H15R 5118   5.376   6.584   8.270 -0.6522  0.1309 -0.0701
   38POPC  H15S 5119   5.287   6.724   8.328 -0.7708  0.4694  0.3577
   38POPC  C216 5120   5.502   6.733   8.345  0.3027 -0.3633 -0.0112
   38POPC  H16R 5121   5.510   6.843   8.359  2.1767 -0.4832  0.1918
   38POPC  H16S 5122   5.592   6.705   8.287  1.0797  0.9448  0.5131
   38POPC  C217 5123   5.518   6.680   8.489  0.6306 -0.4062  0.6606
   38POPC  H17R 5124   5.414   6.685   8.529 -0.2143  1.2377 -1.5227
   38POPC  H17S 5125   5.595   6.735   8.545  1.3411  0.9415 -1.5115
   38POPC  C218 5126   5.553   6.532   8.497 -0.5798 -0.0995  0.5212
   38POPC  H18R 5127   5.577   6.490   8.597  0.6175 -1.0393 -0.1281
   38POPC  H18S 5128   5.641   6.518   8.430  0.1354  1.6289  1.0612
   38POPC  H18T 5129   5.466   6.475   8.458  0.5448 -2.3362  1.1142
   38POPC   C33 5130   5.209   5.973   7.292  0.2370  0.3457 -0.4596
   38POPC   H3X 5131   5.138   5.888   7.303  0.7490 -0.2057 -1.2276
   38POPC   H3Y 5132   5.144   6.063   7.297 -0.7439 -0.4034  0.7318
   38POPC   C34 5133   5.300   5.962   7.417 -0.0915 -0.0406 -0.6409
   38POPC   H4X 5134   5.368   6.050   7.416 -1.1341  0.7934 -1.7640
   38POPC   H4Y 5135   5.364   5.873   7.398  1.3676  0.9574 -0.4963
   38POPC   C35 5136   5.224   5.940   7.554  0.0531 -0.0633 -0.4789
   38POPC   H5X 5137   5.137   5.871   7.540 -0.2051 -0.2770  1.7485
   38POPC   H5Y 5138   5.194   6.043   7.581  1.6297  0.4446 -0.5754
   38POPC   C36 5139   5.312   5.889   7.666  0.8602 -0.4290 -0.3226
   38POPC   H6X 5140   5.394   5.963   7.662 -0.4871  1.2231  1.0038
   38POPC   H6Y 5141   5.353   5.787   7.649 -0.3120 -0.7302 -1.5350
   38POPC   C37 5142   5.233   5.895   7.801  0.2720  0.1743  0.2703
   38POPC   H7X 5143   5.135   5.844   7.806  0.8334 -0.9046  0.4389
   38POPC   H7Y 5144   5.227   6.001   7.836 -0.2708  0.3065 -0.2035
   38POPC   C38 5145   5.313   5.821   7.913 -0.0264  0.2683  0.2653
   38POPC   H8X 5146   5.412   5.870   7.924 -1.1747  2.3189  2.3302
   38POPC   H8Y 5147   5.318   5.717   7.874  0.1079 -0.2017  1.4960
   38POPC   C39 5148   5.259   5.820   8.057  0.0246  0.5595 -0.2750
   38POPC   H9X 5149   5.167   5.758   8.064 -0.1220  0.3115 -3.3180
   38POPC   H9Y 5150   5.225   5.922   8.085  2.0894  1.0290  0.7481
   38POPC  C310 5151   5.365   5.776   8.158 -0.0677  0.2323  0.0082
   38POPC  H10X 5152   5.451   5.844   8.140  1.8239 -2.0854 -0.2896
   38POPC  H10Y 5153   5.385   5.667   8.144  0.6582  0.2705  0.6816
   38POPC  C311 5154   5.320   5.779   8.307  0.3673 -0.1756  0.2551
   38POPC  H11X 5155   5.233   5.712   8.324  0.1838  0.3714  1.5886
   38POPC  H11Y 5156   5.288   5.883   8.327  0.5415 -0.0647 -0.0368
   38POPC  C312 5157   5.431   5.721   8.394  0.0437  0.3260 -0.4706
   38POPC  H12X 5158   5.528   5.753   8.350 -1.3750 -1.4930 -5.7530
   38POPC  H12Y 5159   5.440   5.610   8.387  1.0296  0.2686  1.2935
   38POPC  C313 5160   5.415   5.753   8.544 -0.9919  0.6655 -0.1841
   38POPC  H13X 5161   5.321   5.700   8.570 -0.7307  0.8206  1.1516
   38POPC  H13Y 5162   5.394   5.862   8.554 -0.1888  0.7839  0.2251
   38POPC  C314 5163   5.534   5.705   8.634 -0.2166  0.0628 -0.5856
   38POPC  H14X 5164   5.624   5.731   8.574  0.3918 -0.3037  0.1486
   38POPC  H14Y 5165   5.522   5.596   8.655 -1.8423  0.5806  1.4297
   38POPC  C315 5166   5.545   5.781   8.766  0.2956 -0.0271 -0.9110
   38POPC  H15X 5167   5.550   5.890   8.750  0.3145  0.9147  3.9374
   38POPC  H15Y 5168   5.645   5.759   8.810  0.4678  1.3737 -0.5770
   38POPC  C316 5169   5.427   5.759   8.854 -0.3694 -0.2126 -0.4493
   38POPC  H16X 5170   5.452   5.785   8.959  1.3395 -0.0706 -0.8558
   38POPC  H16Y 5171   5.397   5.652   8.856  0.2754 -0.3946 -0.0998
   38POPC  H16Z 5172   5.347   5.828   8.819  0.1246  2.2628  2.8303
   39POPC     N 5173   2.253   2.383   6.296 -0.2702  0.0030  0.3946
   39POPC   C12 5174   2.244   2.231   6.296 -0.3150  0.2884  0.0560
   39POPC  H12A 5175   2.163   2.201   6.361 -1.1018  3.4197  0.6703
   39POPC  H12B 5176   2.336   2.191   6.337  0.9377  2.0714 -0.9094
   39POPC   C13 5177   2.284   2.418   6.435  0.0346 -0.5424 -0.5325
   39POPC  H13A 5178   2.219   2.371   6.508 -0.2295  0.1148 -0.3371
   39POPC  H13B 5179   2.381   2.387   6.470  0.6729  0.0501 -1.6941
   39POPC  H13C 5180   2.277   2.524   6.457  0.5029 -0.0051 -2.7152
   39POPC   C14 5181   2.371   2.425   6.206  0.1588  0.2588 -0.1747
   39POPC  H14A 5182   2.465   2.388   6.244 -0.2357 -0.3614  0.2050
   39POPC  H14B 5183   2.357   2.383   6.107 -1.4111  0.0358  0.1196
   39POPC  H14C 5184   2.381   2.533   6.198  1.5754  0.1279 -0.4628
   39POPC   C15 5185   2.126   2.440   6.253 -0.6253 -0.1505  0.3049
   39POPC  H15A 5186   2.055   2.427   6.333 -0.9859  1.0083  0.1909
   39POPC  H15B 5187   2.087   2.394   6.163  1.7650 -0.6206 -0.5642
   39POPC  H15C 5188   2.143   2.545   6.233  1.9540 -0.7676 -1.1172
   39POPC   C11 5189   2.209   2.163   6.170  0.0614  0.2498  0.0027
   39POPC  H11A 5190   2.265   2.067   6.172  1.0241  0.7808 -0.8958
   39POPC  H11B 5191   2.248   2.219   6.083 -3.7100  2.1429 -0.6889
   39POPC     P 5192   1.989   2.017   6.167 -0.5018  0.0808  0.1223
   39POPC   O13 5193   2.062   1.914   6.088 -0.3124 -0.2958 -0.0751
   39POPC   O14 5194   1.848   2.031   6.140 -0.7340  0.0250  0.1239
   39POPC   O12 5195   2.067   2.153   6.151  0.1956 -0.6054 -0.1765
   39POPC   O11 5196   2.022   1.986   6.322 -0.0382 -0.8847  0.4271
   39POPC    C1 5197   2.029   1.850   6.365 -0.5512 -0.0282  0.6074
   39POPC    HA 5198   2.119   1.800   6.325 -0.1018 -0.5520  2.1995
   39POPC    HB 5199   1.940   1.791   6.334 -0.5136  0.0394  0.3718
   39POPC    C2 5200   2.055   1.844   6.513  0.5435 -0.1495  0.3584
   39POPC    HS 5201   2.043   1.735   6.529 -1.1733  0.1109  1.0664
   39POPC   O21 5202   1.953   1.915   6.588 -0.3524 -0.3709  0.1841
   39POPC   C21 5203   1.833   1.860   6.590 -0.1844 -0.1782  0.1550
   39POPC   O22 5204   1.797   1.757   6.539 -0.0209  0.5422  0.4190
   39POPC   C22 5205   1.744   1.948   6.671 -0.0232 -0.2707  1.1174
   39POPC   H2R 5206   1.644   1.900   6.677 -0.3351  0.5289  3.0006
   39POPC   H2S 5207   1.741   2.042   6.613 -1.5658 -1.0611 -0.1513
   39POPC    C3 5208   2.200   1.886   6.550  0.2684 -0.2240  0.7780
   39POPC    HX 5209   2.215   1.994   6.526 -1.8448 -0.1962 -0.6647
   39POPC    HY 5210   2.258   1.830   6.474  0.3546  0.1868  0.5394
   39POPC   O31 5211   2.243   1.842   6.680  0.1079  0.1686  0.1675
   39POPC   C31 5212   2.211   1.926   6.786 -0.6052 -0.7506  0.3813
   39POPC   O32 5213   2.163   2.037   6.784 -0.1279  0.6203  0.2686
   39POPC   C32 5214   2.230   1.838   6.912  0.0007 -0.2220  0.0699
   39POPC   H2X 5215   2.176   1.746   6.882 -0.9375 -0.1018  1.3148
   39POPC   H2Y 5216   2.337   1.807   6.913 -0.3930 -1.6520 -0.2290
   39POPC   C23 5217   1.786   1.965   6.817  0.0495  0.7710  1.4080
   39POPC   H3R 5218   1.706   2.018   6.871 -0.8008  0.4561  0.4838
   39POPC   H3S 5219   1.877   2.028   6.824  0.2897  0.5180  0.7051
   39POPC   C24 5220   1.827   1.848   6.909 -0.6071 -0.3575 -0.0097
   39POPC   H4R 5221   1.832   1.875   7.017 -3.2086 -0.4431  0.1923
   39POPC   H4S 5222   1.921   1.802   6.871  0.2041  1.3288 -0.1423
   39POPC   C25 5223   1.723   1.739   6.913  0.5640  0.8179 -0.4896
   39POPC   H5R 5224   1.710   1.700   6.810  1.1446  2.4425 -1.2152
   39POPC   H5S 5225   1.624   1.782   6.939 -2.5110 -4.7378 -1.5665
   39POPC   C26 5226   1.749   1.632   7.031  0.0700 -0.9984  0.3297
   39POPC   H6R 5227   1.656   1.572   7.040 -1.1337  0.5504 -1.2275
   39POPC   H6S 5228   1.776   1.676   7.129 -2.0906  2.3970 -0.4401
   39POPC   C27 5229   1.846   1.528   7.001 -0.6828  0.0850  0.0336
   39POPC   H7R 5230   1.936   1.570   6.952  0.2819 -2.0909 -0.2037
   39POPC   H7S 5231   1.804   1.463   6.921  0.5911  1.1459 -1.5686
   39POPC   C28 5232   1.887   1.453   7.125  0.0216  0.3744  0.5936
   39POPC   H8R 5233   1.797   1.407   7.170  1.2766 -1.5840  1.2730
   39POPC   H8S 5234   1.921   1.519   7.207 -0.5540  0.3311  0.8721
   39POPC   C29 5235   1.993   1.348   7.101  0.5730 -0.1975  0.3630
   39POPC   H91 5236   2.030   1.343   6.997 -2.9362  2.6149 -1.2639
   39POPC  C210 5237   2.029   1.263   7.199 -0.0563 -0.5876  0.3703
   39POPC  H101 5238   2.096   1.183   7.165 -0.0703  0.2089 -1.6717
   39POPC  C211 5239   1.975   1.263   7.335 -0.2288  0.5217 -0.5681
   39POPC  H11R 5240   1.914   1.352   7.359 -2.6969 -1.2897  0.3295
   39POPC  H11S 5241   2.055   1.247   7.410 -0.5047  2.3556  0.1631
   39POPC  C212 5242   1.886   1.132   7.360  0.1540  0.1058 -0.0740
   39POPC  H12R 5243   1.944   1.039   7.343  0.1496 -0.0587  0.7525
   39POPC  H12S 5244   1.798   1.137   7.292 -0.8707  1.3554  1.2883
   39POPC  C213 5245   1.825   1.134   7.498 -0.2762 -0.3305  0.9546
   39POPC  H13R 5246   1.766   1.042   7.516 -1.1832  0.3605  1.6515
   39POPC  H13S 5247   1.748   1.211   7.522 -0.9606 -0.8231  0.3692
   39POPC  C214 5248   1.919   1.138   7.617  0.4754  0.3126  0.7480
   39POPC  H14R 5249   1.960   1.241   7.621  0.5970  0.3867 -1.3201
   39POPC  H14S 5250   2.000   1.068   7.585  2.1859  2.3071  0.5007
   39POPC  C215 5251   1.853   1.095   7.745 -0.1013 -0.2205 -1.0961
   39POPC  H15R 5252   1.773   1.020   7.727 -1.4294  1.0670 -0.7950
   39POPC  H15S 5253   1.799   1.184   7.785 -1.6546 -1.7414  0.4207
   39POPC  C216 5254   1.952   1.039   7.850 -0.1817 -0.4556 -0.0564
   39POPC  H16R 5255   2.035   1.110   7.867  1.1202 -2.0077  0.3733
   39POPC  H16S 5256   1.995   0.939   7.826  0.6810  0.3138 -1.8758
   39POPC  C217 5257   1.871   1.034   7.983  0.5630  0.9816 -0.3912
   39POPC  H17R 5258   1.775   0.981   7.961  1.0153  0.7195 -1.8775
   39POPC  H17S 5259   1.851   1.134   8.025 -0.8372  0.9795 -0.9915
   39POPC  C218 5260   1.955   0.953   8.078 -0.2208 -0.2415  0.5667
   39POPC  H18R 5261   2.056   1.001   8.084 -1.1610  2.1285 -1.0760
   39POPC  H18S 5262   1.978   0.855   8.033  1.0229  0.7520 -1.0758
   39POPC  H18T 5263   1.909   0.947   8.179 -1.9565 -2.8603 -0.2842
   39POPC   C33 5264   2.161   1.899   7.035 -0.3001  0.2411 -0.6035
   39POPC   H3X 5265   2.055   1.919   7.010 -0.7421  0.6611  1.4563
   39POPC   H3Y 5266   2.201   1.993   7.080 -1.2884  0.4141 -0.0533
   39POPC   C34 5267   2.179   1.790   7.144  0.2644  0.0448  0.2680
   39POPC   H4X 5268   2.272   1.810   7.202 -1.2824 -0.5270  3.1196
   39POPC   H4Y 5269   2.166   1.689   7.099 -0.1207  1.0207 -1.9619
   39POPC   C35 5270   2.068   1.784   7.247  0.6328  1.0651 -0.8690
   39POPC   H5X 5271   1.978   1.762   7.186 -0.1855  1.3220  0.2250
   39POPC   H5Y 5272   2.048   1.885   7.289  2.1500  1.6474 -1.4724
   39POPC   C36 5273   2.089   1.679   7.364  0.1489  0.2118 -0.3124
   39POPC   H6X 5274   2.180   1.700   7.424  0.6813 -1.3466 -0.5394
   39POPC   H6Y 5275   2.114   1.578   7.324  0.8955  0.5341 -0.6921
   39POPC   C37 5276   1.963   1.675   7.453 -0.4275 -0.3412 -0.0642
   39POPC   H7X 5277   1.878   1.638   7.392 -0.8969  0.2102  0.2419
   39POPC   H7Y 5278   1.943   1.771   7.505  3.1027  0.9491 -0.7772
   39POPC   C38 5279   1.976   1.568   7.565 -0.2209 -0.2636 -0.0203
   39POPC   H8X 5280   2.044   1.491   7.524  1.8885  2.6031 -2.3396
   39POPC   H8Y 5281   1.881   1.521   7.599 -0.5699  1.3169  1.3132
   39POPC   C39 5282   2.051   1.614   7.685 -1.2393  0.0670 -0.2945
   39POPC   H9X 5283   1.991   1.689   7.741  0.8672 -0.4494  2.8690
   39POPC   H9Y 5284   2.145   1.667   7.659  0.4657 -1.9432  1.4106
   39POPC  C310 5285   2.078   1.493   7.774 -0.1371 -0.2887  0.3428
   39POPC  H10X 5286   2.089   1.398   7.718  0.7841 -2.0252  3.3100
   39POPC  H10Y 5287   1.997   1.490   7.850 -0.9307 -0.7670 -0.5018
   39POPC  C311 5288   2.213   1.517   7.838 -0.0100 -0.0771 -0.1723
   39POPC  H11X 5289   2.222   1.613   7.893  1.2708 -0.1373 -0.2441
   39POPC  H11Y 5290   2.290   1.517   7.758 -0.5978 -0.8843 -0.7483
   39POPC  C312 5291   2.245   1.410   7.944  0.1092  0.4604  0.3123
   39POPC  H12X 5292   2.220   1.319   7.884  1.3918  1.2495 -1.5069
   39POPC  H12Y 5293   2.189   1.415   8.039 -1.9339 -0.5841 -0.7657
   39POPC  C313 5294   2.396   1.408   7.964  0.1827  0.3823  0.5400
   39POPC  H13X 5295   2.445   1.466   7.883  0.4482 -0.8705 -0.2290
   39POPC  H13Y 5296   2.436   1.305   7.949 -1.4903 -0.0918 -1.0094
   39POPC  C314 5297   2.448   1.443   8.108  0.4460 -0.5019 -0.4277
   39POPC  H14X 5298   2.402   1.367   8.175  1.5843 -1.3002 -0.5264
   39POPC  H14Y 5299   2.407   1.544   8.131 -1.2168 -0.9788 -1.1541
   39POPC  C315 5300   2.593   1.417   8.106 -0.4087  0.0398  0.0907
   39POPC  H15X 5301   2.630   1.464   8.012 -0.6012 -0.1794 -0.0974
   39POPC  H15Y 5302   2.609   1.309   8.089 -0.3181  0.3709 -2.3210
   39POPC  C316 5303   2.673   1.453   8.230 -0.4253 -0.1351  0.1589
   39POPC  H16X 5304   2.772   1.405   8.218 -0.9621 -1.0200 -0.8754
   39POPC  H16Y 5305   2.625   1.414   8.322  1.6570 -0.2144  1.2710
   39POPC  H16Z 5306   2.691   1.563   8.221 -1.3814 -0.0924 -1.9553
   40POPC     N 5307   1.511   5.931   5.928 -0.0519  0.4708  0.2621
   40POPC   C12 5308   1.491   5.894   6.074 -0.1332 -0.0131  0.8037
   40POPC  H12A 5309   1.486   5.978   6.142  1.0767 -1.1345  2.3455
   40POPC  H12B 5310   1.569   5.828   6.108 -0.3056  0.4727  2.2343
   40POPC   C13 5311   1.639   6.013   5.912 -0.1463  1.0259 -0.1856
   40POPC  H13A 5312   1.632   6.107   5.964  1.5800  1.4415 -0.6293
   40POPC  H13B 5313   1.724   5.956   5.945  1.4946  1.3794 -3.3666
   40POPC  H13C 5314   1.652   6.041   5.808  1.7535 -0.3165 -0.3634
   40POPC   C14 5315   1.527   5.802   5.848  0.5889  0.1614 -0.2122
   40POPC  H14A 5316   1.437   5.743   5.845  1.1614 -0.8566  1.3897
   40POPC  H14B 5317   1.560   5.837   5.751  0.2695 -2.0259 -1.1514
   40POPC  H14C 5318   1.603   5.733   5.882 -1.1657 -1.3620  0.7801
   40POPC   C15 5319   1.400   6.007   5.865  0.0342 -0.0162  0.1112
   40POPC  H15A 5320   1.302   5.988   5.907 -1.1515  3.1072 -0.9442
   40POPC  H15B 5321   1.381   5.992   5.760  0.7787  0.3787 -0.0870
   40POPC  H15C 5322   1.423   6.113   5.862 -1.6262  0.4446 -4.1401
   40POPC   C11 5323   1.364   5.819   6.120 -0.5539 -0.2970 -0.1636
   40POPC  H11A 5324   1.361   5.784   6.226 -0.7305  2.6930  0.8984
   40POPC  H11B 5325   1.363   5.726   6.058 -1.1021 -1.5118  1.5740
   40POPC     P 5326   1.214   6.020   6.176  0.4192  0.1272  0.0305
   40POPC   O13 5327   1.142   6.109   6.088 -0.8609 -0.1540 -0.2255
   40POPC   O14 5328   1.335   6.074   6.243  0.1845 -0.1870  0.6012
   40POPC   O12 5329   1.241   5.887   6.090 -0.3573 -0.3326 -0.4784
   40POPC   O11 5330   1.108   5.982   6.287 -0.3681 -0.7057 -0.3056
   40POPC    C1 5331   1.101   5.867   6.363  0.1160  0.7912 -0.1577
   40POPC    HA 5332   1.157   5.784   6.315 -1.3167 -0.6960  0.6484
   40POPC    HB 5333   0.994   5.838   6.364  0.5729 -1.0331  1.0773
   40POPC    C2 5334   1.153   5.872   6.517  0.1947 -0.0856  0.0439
   40POPC    HS 5335   1.261   5.895   6.506  0.7048 -2.0992  0.3737
   40POPC   O21 5336   1.128   5.751   6.586 -0.0525 -0.5288 -0.2089
   40POPC   C21 5337   1.219   5.658   6.586  0.2218 -0.1343  0.2627
   40POPC   O22 5338   1.320   5.662   6.520  0.3164 -0.1343 -0.2327
   40POPC   C22 5339   1.176   5.545   6.680  0.5065 -0.3406  0.4489
   40POPC   H2R 5340   1.266   5.490   6.714  0.2179  1.1606  4.0800
   40POPC   H2S 5341   1.103   5.482   6.624 -0.0915  0.8282 -0.1457
   40POPC    C3 5342   1.093   5.991   6.594  1.2746  0.0673  0.0852
   40POPC    HX 5343   0.982   5.981   6.591  1.1876  1.0374 -1.9193
   40POPC    HY 5344   1.125   6.087   6.549  1.1990  0.1467  0.1988
   40POPC   O31 5345   1.131   5.982   6.733 -0.0252 -0.0992  0.4180
   40POPC   C31 5346   1.256   6.008   6.753 -0.2713  0.7974 -0.1438
   40POPC   O32 5347   1.340   6.057   6.677 -0.5166  0.6107  0.1192
   40POPC   C32 5348   1.299   5.963   6.895 -0.5400  0.5551 -0.4946
   40POPC   H2X 5349   1.384   5.894   6.885 -0.5770  0.5564 -0.8006
   40POPC   H2Y 5350   1.217   5.906   6.944 -0.1834  1.0855  0.7724
   40POPC   C23 5351   1.118   5.594   6.809  0.4918 -0.5102  0.1769
   40POPC   H3R 5352   1.036   5.666   6.787  1.2729  0.9797  1.8904
   40POPC   H3S 5353   1.191   5.639   6.879  0.1393 -1.1622  0.9735
   40POPC   C24 5354   1.037   5.484   6.878 -0.3183  0.3075  0.8042
   40POPC   H4R 5355   1.103   5.395   6.885  0.4052  0.7037 -0.5490
   40POPC   H4S 5356   0.951   5.459   6.813  2.6829 -0.0855 -3.3938
   40POPC   C25 5357   0.988   5.522   7.020  0.0123 -0.0515 -0.4656
   40POPC   H5R 5358   0.926   5.437   7.056  0.6249 -0.6126 -0.7262
   40POPC   H5S 5359   0.933   5.619   7.022  0.1455  0.0214 -0.2509
   40POPC   C26 5360   1.099   5.541   7.128 -0.3392  0.0773 -1.0956
   40POPC   H6R 5361   1.172   5.623   7.114 -0.8937  0.7555 -0.1280
   40POPC   H6S 5362   1.150   5.443   7.117 -2.0074 -0.8630 -0.8157
   40POPC   C27 5363   1.041   5.542   7.270  0.1036 -0.4598 -0.5785
   40POPC   H7R 5364   1.121   5.535   7.346 -1.0925 -1.5881  0.6289
   40POPC   H7S 5365   0.978   5.454   7.292  1.7847 -1.6123 -0.2064
   40POPC   C28 5366   0.964   5.673   7.299  0.1243  0.4557  0.7471
   40POPC   H8R 5367   0.947   5.685   7.408 -1.6019 -0.8651  0.6807
   40POPC   H8S 5368   0.863   5.660   7.254  0.4235  0.9544 -0.0865
   40POPC   C29 5369   1.015   5.806   7.239  0.0072  0.0782 -0.1594
   40POPC   H91 5370   1.038   5.797   7.132  0.0786 -3.7324  0.0225
   40POPC  C210 5371   1.034   5.923   7.301 -0.8535  0.9994 -0.3069
   40POPC  H101 5372   1.062   6.009   7.239 -2.0768 -0.7557 -3.5612
   40POPC  C211 5373   1.009   5.940   7.447  0.4588  0.6333 -0.0439
   40POPC  H11R 5374   0.925   5.875   7.480  0.5005 -0.3665 -1.8015
   40POPC  H11S 5375   0.984   6.048   7.451 -0.5056  0.4250 -0.0384
   40POPC  C212 5376   1.132   5.902   7.532  0.5013 -0.2656 -0.2704
   40POPC  H12R 5377   1.209   5.979   7.507  0.5761 -0.6703 -1.2883
   40POPC  H12S 5378   1.163   5.805   7.490 -0.5687 -1.6363  1.9000
   40POPC  C213 5379   1.106   5.882   7.680 -0.3735  0.2920  0.6587
   40POPC  H13R 5380   1.045   5.791   7.698 -0.5778 -0.3289 -2.5745
   40POPC  H13S 5381   1.055   5.968   7.730 -2.1584 -0.2017 -0.2130
   40POPC  C214 5382   1.237   5.857   7.758 -0.3995  0.1611  0.0445
   40POPC  H14R 5383   1.304   5.944   7.740 -0.6261  0.3484  0.0944
   40POPC  H14S 5384   1.281   5.766   7.712 -1.3709 -0.4097  0.2230
   40POPC  C215 5385   1.208   5.834   7.908  0.0076  0.2683  0.4480
   40POPC  H15R 5386   1.125   5.762   7.921  2.0143 -1.9748  1.4129
   40POPC  H15S 5387   1.168   5.919   7.968  0.1608 -0.9092  2.3099
   40POPC  C216 5388   1.334   5.806   7.992  0.1026 -0.5890  0.0892
   40POPC  H16R 5389   1.407   5.889   7.998 -0.9923  0.5257 -1.3278
   40POPC  H16S 5390   1.388   5.717   7.952  0.2344  0.4650 -2.2264
   40POPC  C217 5391   1.297   5.790   8.134 -0.1158  0.2091 -1.4079
   40POPC  H17R 5392   1.217   5.714   8.143 -0.5102  0.7221 -0.2787
   40POPC  H17S 5393   1.249   5.884   8.171 -0.6687 -0.8501  0.7593
   40POPC  C218 5394   1.420   5.759   8.232 -0.0356  0.2291 -0.1394
   40POPC  H18R 5395   1.447   5.657   8.197 -0.7805 -0.2479  0.6486
   40POPC  H18S 5396   1.386   5.745   8.337 -0.2626 -0.1161 -0.2550
   40POPC  H18T 5397   1.502   5.833   8.222 -1.7277  2.2501  0.2918
   40POPC   C33 5398   1.338   6.089   6.982 -0.3670  0.1435  0.5680
   40POPC   H3X 5399   1.434   6.124   6.938 -0.7482  0.0658 -0.3345
   40POPC   H3Y 5400   1.380   6.056   7.080 -0.7766 -0.9991  0.3748
   40POPC   C34 5401   1.234   6.200   6.978  0.1269 -0.0815 -0.3659
   40POPC   H4X 5402   1.132   6.165   7.003 -0.0770 -0.7009 -1.9452
   40POPC   H4Y 5403   1.229   6.243   6.876 -0.0426  1.8307  0.4067
   40POPC   C35 5404   1.262   6.320   7.071 -0.3411 -0.1803 -0.0973
   40POPC   H5X 5405   1.191   6.405   7.067 -0.7819 -0.5543 -0.3440
   40POPC   H5Y 5406   1.350   6.369   7.025 -0.2815  0.9952  1.2131
   40POPC   C36 5407   1.279   6.285   7.216 -0.4661  0.0429  0.2584
   40POPC   H6X 5408   1.374   6.230   7.231 -1.4078 -1.7190  0.0046
   40POPC   H6Y 5409   1.195   6.215   7.235 -0.5540  0.0657 -0.0525
   40POPC   C37 5410   1.267   6.398   7.323 -0.1843 -0.5130  0.8906
   40POPC   H7X 5411   1.172   6.449   7.299  0.6008 -0.1461 -1.7851
   40POPC   H7Y 5412   1.348   6.474   7.316 -2.1395  1.4931 -2.1487
   40POPC   C38 5413   1.242   6.344   7.463  0.2533  0.2619  0.0318
   40POPC   H8X 5414   1.160   6.269   7.460 -0.7382  1.3130  0.2622
   40POPC   H8Y 5415   1.214   6.434   7.521  0.6582  0.8052 -0.5903
   40POPC   C39 5416   1.359   6.279   7.522 -0.7229 -0.1303 -0.4111
   40POPC   H9X 5417   1.441   6.352   7.501 -0.2389  0.0878  1.9091
   40POPC   H9Y 5418   1.377   6.185   7.465  1.7161 -2.1857  3.3160
   40POPC  C310 5419   1.344   6.256   7.668 -0.0767 -0.1989 -0.5273
   40POPC  H10X 5420   1.254   6.191   7.678 -0.0207 -0.0722  1.2046
   40POPC  H10Y 5421   1.311   6.351   7.716 -1.6976 -1.0878  0.2171
   40POPC  C311 5422   1.476   6.211   7.732 -0.4084  0.0741 -0.2717
   40POPC  H11X 5423   1.565   6.269   7.699 -0.1323 -0.1867  0.0000
   40POPC  H11Y 5424   1.508   6.111   7.695 -0.0429  0.0301  0.1534
   40POPC  C312 5425   1.464   6.198   7.891 -0.7208  0.2427 -0.4752
   40POPC  H12X 5426   1.364   6.154   7.911 -0.4639  0.0591  0.4245
   40POPC  H12Y 5427   1.467   6.300   7.935  2.3752  0.9945 -2.1030
   40POPC  C313 5428   1.579   6.111   7.952 -0.5970  0.3120 -0.4058
   40POPC  H13X 5429   1.674   6.151   7.910  0.1564  1.2982  2.0965
   40POPC  H13Y 5430   1.566   6.005   7.922 -0.2166 -0.0369  0.6149
   40POPC  C314 5431   1.582   6.135   8.110  0.4357 -0.4884 -0.0200
   40POPC  H14X 5432   1.480   6.112   8.147  0.2320 -0.6823 -0.6833
   40POPC  H14Y 5433   1.609   6.242   8.122  0.9833 -0.4712 -1.2788
   40POPC  C315 5434   1.689   6.057   8.180 -0.3878  0.0129  0.6613
   40POPC  H15X 5435   1.786   6.110   8.166 -1.8445  2.3578 -1.3374
   40POPC  H15Y 5436   1.689   5.952   8.145 -0.8307  0.3440 -0.3813
   40POPC  C316 5437   1.661   6.058   8.335  1.0718  0.1256  0.1086
   40POPC  H16X 5438   1.661   6.162   8.373  1.7198  0.9475 -2.0115
   40POPC  H16Y 5439   1.738   5.995   8.385  2.2057 -0.7764 -2.5904
   40POPC  H16Z 5440   1.568   6.004   8.363  2.1770 -2.5136 -0.9663
   41CHL1    C3 5441   0.611   1.529  10.032  0.6513  0.0423 -0.4569
   41CHL1    H3 5442   0.719   1.555  10.028  1.0121 -1.4700 -1.8254
   41CHL1    O3 5443   0.582   1.470  10.160  0.4764 -0.0792 -0.1542
   41CHL1   H3' 5444   0.654   1.408  10.175 -0.0294 -0.7822 -0.5607
   41CHL1    C4 5445   0.524   1.656  10.017 -0.6740 -0.7686 -0.6617
   41CHL1   H4A 5446   0.420   1.625  10.039 -0.9164  0.2274 -0.3918
   41CHL1   H4B 5447   0.551   1.732  10.093  0.7059 -0.6337 -1.2605
   41CHL1    C5 5448   0.518   1.705   9.875  0.1418  0.2129 -0.1716
   41CHL1    C6 5449   0.540   1.834   9.840  0.6200 -0.1374  0.3354
   41CHL1    H6 5450   0.567   1.913   9.912 -1.1290 -0.3579  1.2827
   41CHL1    C7 5451   0.536   1.885   9.702  0.6547 -0.4061 -0.0798
   41CHL1   H7A 5452   0.464   1.968   9.686  0.7656 -0.5620 -1.5287
   41CHL1   H7B 5453   0.634   1.927   9.673  0.4202  0.1374 -0.0896
   41CHL1    C8 5454   0.495   1.788   9.592  0.0700 -0.2297  0.0697
   41CHL1    H8 5455   0.385   1.782   9.596  0.0442  0.5000  0.7419
   41CHL1   C14 5456   0.540   1.833   9.447 -0.4874  0.4266 -0.0125
   41CHL1   H14 5457   0.649   1.812   9.441 -0.7717 -0.9708 -0.7954
   41CHL1   C15 5458   0.534   1.984   9.421  0.6262 -0.1600  0.0416
   41CHL1  H15A 5459   0.429   2.013   9.439  0.0672 -1.3462 -1.1752
   41CHL1  H15B 5460   0.611   2.043   9.475 -0.1545 -0.7542  1.8877
   41CHL1   C16 5461   0.552   1.987   9.268  0.1281  0.8864  0.3379
   41CHL1  H16A 5462   0.465   2.040   9.222 -0.2457 -0.5353 -0.7071
   41CHL1  H16B 5463   0.649   2.035   9.243  0.1922  0.4769 -0.2226
   41CHL1   C17 5464   0.549   1.835   9.216  1.1048  0.0224  0.4355
   41CHL1   H17 5465   0.656   1.805   9.212  1.3527  0.9743 -0.3860
   41CHL1   C13 5466   0.481   1.755   9.330 -0.8660  0.1486  0.0454
   41CHL1   C18 5467   0.331   1.769   9.331  0.3887  0.0493  0.2540
   41CHL1  H18A 5468   0.285   1.757   9.431  0.6393 -1.9590  0.1622
   41CHL1  H18B 5469   0.288   1.852   9.271  0.5924  0.2273  0.3535
   41CHL1  H18C 5470   0.279   1.685   9.282 -2.7060  1.9928 -0.0714
   41CHL1   C12 5471   0.531   1.612   9.347 -0.1498  0.0310 -0.4644
   41CHL1  H12A 5472   0.486   1.537   9.279 -1.6251  0.2376  0.2420
   41CHL1  H12B 5473   0.641   1.615   9.329 -0.1814 -1.0180 -0.9009
   41CHL1   C11 5474   0.502   1.560   9.495 -0.3593 -0.2818 -0.1780
   41CHL1  H11A 5475   0.393   1.541   9.499 -0.2952 -0.4975  1.0397
   41CHL1  H11B 5476   0.554   1.462   9.503 -0.0269 -0.0185  1.1763
   41CHL1    C9 5477   0.546   1.651   9.620  0.1971  0.2110  0.0310
   41CHL1    H9 5478   0.657   1.660   9.614  0.1830 -0.2760 -1.3941
   41CHL1   C10 5479   0.509   1.595   9.763  0.2952  0.2343  0.0991
   41CHL1   C19 5480   0.364   1.556   9.764 -0.1570  0.1761 -0.2645
   41CHL1  H19A 5481   0.331   1.523   9.865 -0.4977  0.0678 -0.4102
   41CHL1  H19B 5482   0.310   1.646   9.727  0.2016  0.1300 -0.9121
   41CHL1  H19C 5483   0.346   1.472   9.694  0.4666  0.6526 -1.0082
   41CHL1    C1 5484   0.604   1.475   9.793 -0.3427  0.1063  0.6675
   41CHL1   H1A 5485   0.570   1.394   9.725 -0.8583 -0.6843  1.8449
   41CHL1   H1B 5486   0.708   1.494   9.758 -0.9356 -3.3980 -3.9660
   41CHL1    C2 5487   0.589   1.417   9.936 -0.2032 -0.4933 -0.2600
   41CHL1   H2A 5488   0.666   1.338   9.945  0.2981  0.1492  1.4801
   41CHL1   H2B 5489   0.492   1.362   9.938  0.5028 -1.7553  0.4572
   41CHL1   C20 5490   0.498   1.816   9.074 -1.1025  0.1636 -0.0235
   41CHL1   H20 5491   0.394   1.856   9.067 -0.5237  1.3631 -3.3067
   41CHL1   C21 5492   0.496   1.673   9.027 -0.1159  0.0138 -0.2184
   41CHL1  H21A 5493   0.460   1.665   8.922 -3.2073  1.7300  0.5619
   41CHL1  H21B 5494   0.431   1.602   9.083  1.8188 -2.5715 -1.0932
   41CHL1  H21C 5495   0.598   1.629   9.025 -0.6216 -1.2406  0.6496
   41CHL1   C22 5496   0.581   1.905   8.981 -0.3811  0.8277 -0.2230
   41CHL1  H22A 5497   0.541   2.006   9.002 -0.1553  0.9955 -0.5829
   41CHL1  H22B 5498   0.686   1.899   9.019 -0.7488 -2.6593  0.6260
   41CHL1   C23 5499   0.561   1.903   8.823  0.0867  0.1405 -0.5587
   41CHL1  H23A 5500   0.454   1.878   8.805  0.1418 -2.0258  1.4681
   41CHL1  H23B 5501   0.582   2.006   8.789  0.7819 -0.0419 -0.7034
   41CHL1   C24 5502   0.654   1.806   8.750  0.0992 -0.6017 -0.3104
   41CHL1  H24A 5503   0.761   1.825   8.771 -0.0053 -0.3343  0.0031
   41CHL1  H24B 5504   0.636   1.704   8.791  0.6496 -1.0530 -1.1659
   41CHL1   C25 5505   0.624   1.811   8.596 -0.1878 -1.0798 -0.1998
   41CHL1   H25 5506   0.607   1.918   8.571  1.0577 -0.6529  0.6404
   41CHL1   C26 5507   0.747   1.769   8.524  0.3928  0.4435  0.4226
   41CHL1  H26A 5508   0.840   1.825   8.549  1.0896 -0.0287 -0.9517
   41CHL1  H26B 5509   0.765   1.659   8.529  3.0554  0.8655  2.2381
   41CHL1  H26C 5510   0.742   1.790   8.415 -0.3466 -1.9332 -0.0695
   41CHL1   C27 5511   0.500   1.739   8.553 -0.1255 -0.0896  0.3817
   41CHL1  H27A 5512   0.503   1.634   8.589  0.2977  0.0073  0.6344
   41CHL1  H27B 5513   0.411   1.793   8.593 -0.1237  0.5804 -0.4833
   41CHL1  H27C 5514   0.497   1.723   8.443  0.3251  0.0194  0.3523
   42CHL1    C3 5515   1.386   0.823   9.808 -0.6328  0.2410  0.1932
   42CHL1    H3 5516   1.465   0.763   9.758 -1.2008 -0.8299  0.5428
   42CHL1    O3 5517   1.414   0.825   9.945  0.4613 -0.5073 -0.5122
   42CHL1   H3' 5518   1.484   0.890   9.952 -0.1312  0.2004 -0.9872
   42CHL1    C4 5519   1.384   0.972   9.756  0.0967  0.8482  1.1461
   42CHL1   H4A 5520   1.311   1.030   9.817 -1.2753  0.6534 -0.2282
   42CHL1   H4B 5521   1.488   1.006   9.775  1.2972 -1.3855 -0.9184
   42CHL1    C5 5522   1.354   0.983   9.606  0.6069  0.4255 -0.5702
   42CHL1    C6 5523   1.438   1.044   9.526  0.6070 -0.7079 -0.8947
   42CHL1    H6 5524   1.522   1.096   9.574  0.0992  0.3136 -1.0877
   42CHL1    C7 5525   1.423   1.070   9.378  0.6325 -0.2568 -0.7506
   42CHL1   H7A 5526   1.432   1.179   9.354  3.2663 -0.1638  0.3697
   42CHL1   H7B 5527   1.511   1.033   9.321 -0.0471  1.0079 -2.7595
   42CHL1    C8 5528   1.291   1.007   9.320  0.1954 -0.4617  0.0592
   42CHL1    H8 5529   1.208   1.080   9.332 -0.0923 -0.6999 -0.4633
   42CHL1   C14 5530   1.294   0.990   9.171  0.5924 -0.0345 -0.8320
   42CHL1   H14 5531   1.361   0.902   9.154  0.7476  0.3868 -2.6437
   42CHL1   C15 5532   1.349   1.098   9.082 -0.1197  0.0351  0.0559
   42CHL1  H15A 5533   1.319   1.200   9.113 -3.1438 -0.5121 -0.8015
   42CHL1  H15B 5534   1.458   1.082   9.097  0.2620  0.6732 -1.7898
   42CHL1   C16 5535   1.299   1.065   8.943  0.3410 -0.6204 -0.0714
   42CHL1  H16A 5536   1.231   1.143   8.902  0.4212 -0.4680  0.0855
   42CHL1  H16B 5537   1.374   1.049   8.864 -0.2647  0.3247 -0.8522
   42CHL1   C17 5538   1.208   0.931   8.957 -0.7997 -0.3159  0.7507
   42CHL1   H17 5539   1.280   0.847   8.951 -0.1420  0.1361  1.8821
   42CHL1   C13 5540   1.170   0.930   9.106 -0.0235 -0.4263 -0.2141
   42CHL1   C18 5541   1.052   1.021   9.114  0.3596  0.0374  0.1110
   42CHL1  H18A 5542   1.057   1.121   9.066 -0.5492  0.8108  1.5418
   42CHL1  H18B 5543   0.959   0.971   9.082  0.4978  0.0494 -0.3095
   42CHL1  H18C 5544   1.044   1.051   9.221  0.1560 -0.3369  0.2018
   42CHL1   C12 5545   1.147   0.789   9.172  0.0370 -0.3747 -0.4216
   42CHL1  H12A 5546   1.051   0.754   9.129 -2.1879  2.1981  2.0302
   42CHL1  H12B 5547   1.229   0.718   9.150 -1.1927 -2.2950  0.9034
   42CHL1   C11 5548   1.130   0.800   9.326 -0.1205  0.4373  0.9174
   42CHL1  H11A 5549   1.030   0.845   9.341 -1.0188 -1.2156  0.1375
   42CHL1  H11B 5550   1.115   0.696   9.362 -0.9081 -0.8113 -2.6068
   42CHL1    C9 5551   1.250   0.878   9.395  0.1140  0.0851  0.4869
   42CHL1    H9 5552   1.338   0.815   9.373 -1.2987 -1.5770 -0.6955
   42CHL1   C10 5553   1.238   0.899   9.552  0.4060  0.9006 -0.1861
   42CHL1   C19 5554   1.102   0.969   9.575  0.5438  0.6306  0.2397
   42CHL1  H19A 5555   1.079   0.967   9.684 -0.6134  0.3845  0.0062
   42CHL1  H19B 5556   1.094   1.068   9.527  1.3056  0.3548 -0.4739
   42CHL1  H19C 5557   1.023   0.899   9.538  0.5785 -0.4978  2.1583
   42CHL1    C1 5558   1.240   0.753   9.613 -0.5951 -0.8685 -0.1161
   42CHL1   H1A 5559   1.143   0.704   9.592 -1.7323  1.1501  0.0857
   42CHL1   H1B 5560   1.329   0.703   9.572  2.4075  3.5447  0.2918
   42CHL1    C2 5561   1.255   0.756   9.770  0.5287  0.0918 -0.2071
   42CHL1   H2A 5562   1.252   0.652   9.811 -0.1452  1.5653  4.0159
   42CHL1   H2B 5563   1.173   0.819   9.810  0.1430  0.3288 -1.3468
   42CHL1   C20 5564   1.105   0.910   8.847 -0.6337 -0.2076 -0.2457
   42CHL1   H20 5565   1.025   0.987   8.849 -0.6214 -0.1231 -1.6013
   42CHL1   C21 5566   1.020   0.779   8.877  0.0770  0.5124  0.6900
   42CHL1  H21A 5567   1.077   0.684   8.889 -3.9342 -2.0578  1.5314
   42CHL1  H21B 5568   0.949   0.762   8.793  0.7349  4.0721 -0.7556
   42CHL1  H21C 5569   0.955   0.800   8.965 -2.0032 -1.8537 -0.1386
   42CHL1   C22 5570   1.167   0.923   8.704  0.1335 -0.4939 -0.4427
   42CHL1  H22A 5571   1.237   1.009   8.700  1.0787 -1.1732  0.6647
   42CHL1  H22B 5572   1.222   0.827   8.692  1.0278 -0.1085  0.4119
   42CHL1   C23 5573   1.065   0.938   8.585 -0.6848  0.5040  0.0970
   42CHL1  H23A 5574   1.000   0.848   8.584  0.1239 -0.1732  2.5039
   42CHL1  H23B 5575   0.992   1.017   8.613 -0.7711  0.3420  0.3245
   42CHL1   C24 5576   1.138   0.981   8.452 -0.4163 -0.1808 -0.1686
   42CHL1  H24A 5577   1.200   1.071   8.466  2.9368 -2.1832 -1.0232
   42CHL1  H24B 5578   1.214   0.907   8.420 -1.5101 -1.4106 -0.0328
   42CHL1   C25 5579   1.040   1.008   8.329 -0.5155 -0.1596 -0.4876
   42CHL1   H25 5580   0.993   1.105   8.353  1.2705  0.3842  0.9995
   42CHL1   C26 5581   1.120   1.025   8.192  0.4484 -0.2595 -0.4391
   42CHL1  H26A 5582   1.055   0.993   8.109 -0.3221  0.8804 -0.2936
   42CHL1  H26B 5583   1.154   1.130   8.176  0.8783 -0.2903  0.1990
   42CHL1  H26C 5584   1.208   0.959   8.204  0.1504 -0.3704  1.6549
   42CHL1   C27 5585   0.937   0.901   8.323  0.2910 -0.1805  0.0269
   42CHL1  H27A 5586   0.863   0.906   8.406  0.4853 -1.0603  0.2601
   42CHL1  H27B 5587   0.884   0.900   8.225  2.4072  1.7706 -1.2351
   42CHL1  H27C 5588   0.994   0.808   8.342  0.0060 -0.6615 -1.3890
   43CHL1    C3 5589   1.083   1.729   9.906  0.6606 -0.5348  0.0065
   43CHL1    H3 5590   1.128   1.634   9.868 -1.0836 -1.0467 -0.8624
   43CHL1    O3 5591   1.080   1.738  10.047  0.0926  0.3903 -0.0766
   43CHL1   H3' 5592   1.032   1.821  10.056  0.8413  0.9456 -1.0654
   43CHL1    C4 5593   1.164   1.852   9.856 -0.3910 -0.7473  0.8704
   43CHL1   H4A 5594   1.104   1.935   9.899 -1.5596 -1.6147  0.9642
   43CHL1   H4B 5595   1.259   1.850   9.914 -0.3053 -1.7885  0.7168
   43CHL1    C5 5596   1.171   1.871   9.701  0.0962 -0.6059 -0.5973
   43CHL1    C6 5597   1.285   1.887   9.632  0.4093 -0.0053 -0.3292
   43CHL1    H6 5598   1.388   1.886   9.671  0.7754 -1.7276 -1.2035
   43CHL1    C7 5599   1.292   1.922   9.488  0.4379  0.0980 -0.1104
   43CHL1   H7A 5600   1.340   2.018   9.460 -1.0688  0.0266 -3.4144
   43CHL1   H7B 5601   1.344   1.836   9.442 -2.5795 -2.2539  0.4987
   43CHL1    C8 5602   1.151   1.943   9.421 -1.0029  0.0100  0.3229
   43CHL1    H8 5603   1.122   2.049   9.437  0.8184  0.2119  2.6990
   43CHL1   C14 5604   1.173   1.923   9.268  0.5918 -0.4285  0.2686
   43CHL1   H14 5605   1.192   1.814   9.264  1.4112 -0.2807 -0.0765
   43CHL1   C15 5606   1.288   1.988   9.192 -0.5785  0.9786  0.6719
   43CHL1  H15A 5607   1.306   2.091   9.231  2.7191  1.5979 -2.0061
   43CHL1  H15B 5608   1.387   1.938   9.192 -0.8725  0.3864  0.0346
   43CHL1   C16 5609   1.241   1.977   9.042  0.3617  0.2991  0.2602
   43CHL1  H16A 5610   1.246   2.085   9.019 -0.5503  0.4273  0.6096
   43CHL1  H16B 5611   1.311   1.913   8.984 -2.0431 -3.3666  1.0493
   43CHL1   C17 5612   1.098   1.912   9.044  0.2509  0.7492 -0.2991
   43CHL1   H17 5613   1.114   1.802   9.057  0.6447  0.6539 -1.4339
   43CHL1   C13 5614   1.048   1.946   9.185 -0.3884  0.1642  0.2224
   43CHL1   C18 5615   0.994   2.094   9.190 -0.1139 -1.2123  0.1047
   43CHL1  H18A 5616   0.975   2.133   9.292  0.5098  2.7215 -1.1014
   43CHL1  H18B 5617   1.067   2.163   9.142 -1.2784  0.6188  0.8469
   43CHL1  H18C 5618   0.896   2.107   9.138  0.3674  0.4517 -0.4861
   43CHL1   C12 5619   0.940   1.847   9.243 -0.0438  0.0569 -0.0110
   43CHL1  H12A 5620   0.847   1.868   9.187 -0.8447 -3.0812  0.0039
   43CHL1  H12B 5621   0.979   1.745   9.222  0.8790  0.4237 -0.1419
   43CHL1   C11 5622   0.914   1.867   9.393 -0.1084 -0.0616 -0.2574
   43CHL1  H11A 5623   0.882   1.973   9.408  1.7458  0.3261  1.3073
   43CHL1  H11B 5624   0.838   1.791   9.422 -0.5160  0.1787 -0.6746
   43CHL1    C9 5625   1.043   1.851   9.473  0.0557 -0.0930  0.3702
   43CHL1    H9 5626   1.078   1.747   9.454  2.3106  0.4135  1.4664
   43CHL1   C10 5627   1.038   1.864   9.632 -0.5898  0.1586 -0.0430
   43CHL1   C19 5628   0.967   1.995   9.659  0.2499 -0.2895 -0.4737
   43CHL1  H19A 5629   1.016   2.092   9.639 -2.7228  1.1500 -1.4082
   43CHL1  H19B 5630   0.874   1.997   9.597  0.6283  0.1610 -1.0374
   43CHL1  H19C 5631   0.925   1.987   9.762 -1.7135  0.8713 -1.1314
   43CHL1    C1 5632   0.948   1.742   9.692 -0.2371 -0.3263 -0.1922
   43CHL1   H1A 5633   0.846   1.755   9.650 -1.1690 -2.0127  1.3977
   43CHL1   H1B 5634   0.998   1.657   9.642 -0.4372 -0.9963  0.7139
   43CHL1    C2 5635   0.940   1.736   9.847 -0.1246 -0.0806 -0.1018
   43CHL1   H2A 5636   0.889   1.643   9.882 -0.9525  0.1962 -0.5452
   43CHL1   H2B 5637   0.886   1.820   9.895 -1.0041 -0.0098 -1.1910
   43CHL1   C20 5638   1.002   1.933   8.930 -0.2800  1.2996 -0.1624
   43CHL1   H20 5639   0.902   1.921   8.976 -0.1395  0.1423 -0.1268
   43CHL1   C21 5640   1.039   1.827   8.821 -0.1860  0.0273  0.7560
   43CHL1  H21A 5641   1.136   1.848   8.770  0.7109 -1.0083  1.9672
   43CHL1  H21B 5642   0.957   1.829   8.746  1.0483  1.5942 -0.6358
   43CHL1  H21C 5643   1.060   1.727   8.865  0.3853  0.0252  0.4880
   43CHL1   C22 5644   1.015   2.071   8.857  0.1072 -0.1675 -0.0347
   43CHL1  H22A 5645   0.987   2.149   8.930  0.6023  0.0180 -0.0404
   43CHL1  H22B 5646   1.119   2.102   8.833 -0.3634  1.8741  0.4314
   43CHL1   C23 5647   0.930   2.095   8.738  0.1188 -0.1913  0.3749
   43CHL1  H23A 5648   0.984   2.058   8.648  0.0147  0.1147  0.1874
   43CHL1  H23B 5649   0.837   2.035   8.752 -0.8155  1.6055  2.2190
   43CHL1   C24 5650   0.893   2.245   8.729  0.3624  0.3543 -0.0823
   43CHL1  H24A 5651   0.820   2.277   8.806 -0.3040  0.4174 -0.7208
   43CHL1  H24B 5652   0.983   2.308   8.741 -1.3238  2.6495  1.0829
   43CHL1   C25 5653   0.836   2.282   8.591  0.3534  0.1236 -0.1099
   43CHL1   H25 5654   0.790   2.192   8.545  0.6528  0.4390 -1.0655
   43CHL1   C26 5655   0.716   2.389   8.602 -0.0545  0.8399 -0.1764
   43CHL1  H26A 5656   0.643   2.344   8.673  0.4170  1.8058  0.9481
   43CHL1  H26B 5657   0.762   2.479   8.648 -1.1991  1.5159 -0.3198
   43CHL1  H26C 5658   0.680   2.408   8.498  1.7313 -1.9400 -1.4418
   43CHL1   C27 5659   0.950   2.330   8.497  0.3193  0.0002 -1.0296
   43CHL1  H27A 5660   1.027   2.250   8.495  2.0532  1.4846  1.3498
   43CHL1  H27B 5661   0.907   2.366   8.401 -2.3579  2.3366  0.8492
   43CHL1  H27C 5662   0.994   2.425   8.534 -0.8098 -0.1525  0.8248
   44CHL1    C3 5663   1.469   3.050  10.104 -0.8758  0.2135  0.0585
   44CHL1    H3 5664   1.544   3.127  10.075 -0.6641  0.2298  0.6408
   44CHL1    O3 5665   1.450   3.051  10.241 -0.1806 -0.5485 -0.4387
   44CHL1   H3' 5666   1.532   3.079  10.283 -1.3050 -1.9967  3.0785
   44CHL1    C4 5667   1.337   3.083  10.034  0.3774 -0.9086  0.5553
   44CHL1   H4A 5668   1.251   3.028  10.075  0.4245 -0.5643  1.1321
   44CHL1   H4B 5669   1.328   3.191  10.061 -0.7566  0.1977 -3.5123
   44CHL1    C5 5670   1.342   3.073   9.881 -0.3263  0.2953  1.0748
   44CHL1    C6 5671   1.325   3.184   9.807 -0.1837  0.1826  0.2123
   44CHL1    H6 5672   1.297   3.268   9.872 -1.3299 -1.1428  1.5115
   44CHL1    C7 5673   1.334   3.197   9.659 -0.7977 -0.3167  0.0815
   44CHL1   H7A 5674   1.241   3.254   9.638 -0.8250 -0.8511 -1.3986
   44CHL1   H7B 5675   1.426   3.251   9.625 -0.4620 -0.5480  0.6135
   44CHL1    C8 5676   1.331   3.053   9.596  0.4936  0.9130 -0.5109
   44CHL1    H8 5677   1.230   3.008   9.599  0.4849  0.9576 -0.0320
   44CHL1   C14 5678   1.372   3.059   9.459  0.3455  0.0763  0.0789
   44CHL1   H14 5679   1.480   3.087   9.458 -0.0412  1.6753 -0.8926
   44CHL1   C15 5680   1.294   3.162   9.369 -0.8273 -0.0076  0.1013
   44CHL1  H15A 5681   1.183   3.155   9.377 -1.0155  1.1499 -1.2513
   44CHL1  H15B 5682   1.319   3.269   9.384 -0.2026 -0.2993  1.3241
   44CHL1   C16 5683   1.343   3.134   9.226  0.0612 -0.3404 -0.7380
   44CHL1  H16A 5684   1.259   3.134   9.154 -2.2080 -0.6895  1.7783
   44CHL1  H16B 5685   1.407   3.219   9.192 -1.5540  1.5335  0.6845
   44CHL1   C17 5686   1.418   2.997   9.235  0.9167 -0.0392 -0.6420
   44CHL1   H17 5687   1.527   3.009   9.251  1.8322 -5.2031 -1.2269
   44CHL1   C13 5688   1.372   2.935   9.369  0.2497  0.2747 -0.0089
   44CHL1   C18 5689   1.231   2.879   9.353 -0.0976 -0.4630  1.2585
   44CHL1  H18A 5690   1.166   2.889   9.442  0.9210  0.1953  1.9493
   44CHL1  H18B 5691   1.177   2.941   9.278  0.1584  0.5163  1.8666
   44CHL1  H18C 5692   1.236   2.773   9.319  0.4537 -0.5512  1.6069
   44CHL1   C12 5693   1.468   2.831   9.441  0.0276 -0.5425  0.5485
   44CHL1  H12A 5694   1.481   2.735   9.387 -4.6709 -1.1221  0.1074
   44CHL1  H12B 5695   1.566   2.885   9.437 -0.2941 -0.0190 -0.4912
   44CHL1   C11 5696   1.430   2.824   9.594 -0.3147 -0.3049 -0.4767
   44CHL1  H11A 5697   1.330   2.775   9.599 -0.2464 -0.5354 -1.2127
   44CHL1  H11B 5698   1.496   2.746   9.637  1.5584  1.4947  0.0419
   44CHL1    C9 5699   1.423   2.957   9.675 -0.3857  0.2166  0.1773
   44CHL1    H9 5700   1.528   2.992   9.662 -0.5966  0.6857 -0.3040
   44CHL1   C10 5701   1.395   2.944   9.826 -0.8126  0.3679  0.6482
   44CHL1   C19 5702   1.298   2.833   9.852 -0.6794  1.0891 -0.3444
   44CHL1  H19A 5703   1.252   2.843   9.953 -1.5212 -1.2997 -0.4297
   44CHL1  H19B 5704   1.215   2.838   9.779 -0.8837 -0.5714 -0.2546
   44CHL1  H19C 5705   1.338   2.730   9.842 -0.1821  1.3387 -1.0024
   44CHL1    C1 5706   1.528   2.916   9.899 -0.6288  0.2749  0.1403
   44CHL1   H1A 5707   1.552   2.811   9.873 -1.3003 -0.4094  2.0740
   44CHL1   H1B 5708   1.598   2.989   9.853 -1.6253  1.4963  0.5029
   44CHL1    C2 5709   1.520   2.912  10.048  0.1080  0.2423  0.1870
   44CHL1   H2A 5710   1.623   2.890  10.083  0.2167 -0.9091 -0.7754
   44CHL1   H2B 5711   1.458   2.829  10.089 -1.5212  1.3382  0.0131
   44CHL1   C20 5712   1.403   2.913   9.110 -0.0713  0.7099 -0.9731
   44CHL1   H20 5713   1.299   2.882   9.086 -0.1408 -0.0430  0.1762
   44CHL1   C21 5714   1.499   2.787   9.116  0.3567  0.0882 -0.6711
   44CHL1  H21A 5715   1.588   2.821   9.173  0.4823 -0.4037 -0.5688
   44CHL1  H21B 5716   1.532   2.745   9.018 -0.1551 -0.4680 -0.6113
   44CHL1  H21C 5717   1.453   2.705   9.175 -0.2604  0.3088 -0.8372
   44CHL1   C22 5718   1.447   3.002   8.989 -0.0304  0.3549  0.2597
   44CHL1  H22A 5719   1.394   3.098   8.969  0.8920  0.1180 -4.5793
   44CHL1  H22B 5720   1.556   3.019   9.005  0.0288 -1.3418  1.9740
   44CHL1   C23 5721   1.431   2.943   8.851  0.2251  0.4865  0.8168
   44CHL1  H23A 5722   1.467   2.839   8.836  0.7571  0.9061 -1.0387
   44CHL1  H23B 5723   1.324   2.943   8.823  1.0933  3.3224 -3.3911
   44CHL1   C24 5724   1.501   3.024   8.741 -0.6519  0.2388  0.9170
   44CHL1  H24A 5725   1.452   3.124   8.747 -1.9619 -0.1844 -1.6293
   44CHL1  H24B 5726   1.610   3.030   8.757 -0.0902 -0.5548 -2.1144
   44CHL1   C25 5727   1.477   2.967   8.601  0.0093  0.0445 -0.2406
   44CHL1   H25 5728   1.370   2.940   8.616  0.4005 -0.6455  1.4785
   44CHL1   C26 5729   1.511   3.071   8.500  0.7803 -1.0090 -1.1578
   44CHL1  H26A 5730   1.490   3.040   8.396 -1.7724 -1.3435 -0.6287
   44CHL1  H26B 5731   1.452   3.163   8.522 -0.0829 -1.4697 -1.5030
   44CHL1  H26C 5732   1.616   3.104   8.513  0.6467 -1.0897  0.3611
   44CHL1   C27 5733   1.565   2.845   8.568  0.6139 -0.2092 -0.4693
   44CHL1  H27A 5734   1.666   2.881   8.538  1.0330  1.2514  2.2737
   44CHL1  H27B 5735   1.581   2.782   8.659  0.9934 -0.7887 -0.9292
   44CHL1  H27C 5736   1.522   2.773   8.495  0.6451 -2.8991  1.9673
   45CHL1    C3 5737   4.692   1.452  10.056  0.3474 -0.1643  0.4684
   45CHL1    H3 5738   4.625   1.537  10.083  0.3249  0.2271 -0.7124
   45CHL1    O3 5739   4.678   1.361  10.160  0.3508  0.3468 -0.1383
   45CHL1   H3' 5740   4.763   1.359  10.205  0.0718 -1.3191  0.3729
   45CHL1    C4 5741   4.650   1.383   9.923 -0.0257 -0.6826  0.2696
   45CHL1   H4A 5742   4.697   1.284   9.903  0.8584 -0.1922 -0.1625
   45CHL1   H4B 5743   4.542   1.368   9.946  0.2610  2.1611  4.4112
   45CHL1    C5 5744   4.678   1.477   9.808 -0.3390 -0.0773 -0.1040
   45CHL1    C6 5745   4.583   1.516   9.728  0.4517  0.7557  0.3804
   45CHL1    H6 5746   4.480   1.479   9.744  0.7583  0.5711  2.0989
   45CHL1    C7 5747   4.598   1.601   9.602  0.2134  0.1286  0.6692
   45CHL1   H7A 5748   4.543   1.556   9.517  0.7731  2.6658 -1.1393
   45CHL1   H7B 5749   4.544   1.697   9.621  0.4818  0.2722  0.7175
   45CHL1    C8 5750   4.743   1.635   9.564 -0.4204  0.1941 -0.2624
   45CHL1    H8 5751   4.734   1.739   9.525 -2.2755  0.0304 -0.3458
   45CHL1   C14 5752   4.808   1.564   9.440  0.4977  0.5028 -0.2882
   45CHL1   H14 5753   4.811   1.455   9.463 -0.5463  0.4522 -0.3142
   45CHL1   C15 5754   4.724   1.592   9.320  0.0623  0.2144 -0.4319
   45CHL1  H15A 5755   4.730   1.509   9.246  2.0693 -0.4374  0.3733
   45CHL1  H15B 5756   4.618   1.612   9.345 -0.3092 -0.9265 -1.0229
   45CHL1   C16 5757   4.790   1.713   9.252  0.2308 -0.4666  0.0813
   45CHL1  H16A 5758   4.800   1.697   9.143  0.1203  2.7602 -0.5186
   45CHL1  H16B 5759   4.734   1.809   9.262  0.8226  0.1094 -1.7691
   45CHL1   C17 5760   4.923   1.730   9.322 -0.0093 -0.8744  0.1291
   45CHL1   H17 5761   4.908   1.809   9.399 -1.4693 -1.9311  0.9704
   45CHL1   C13 5762   4.947   1.602   9.410  0.2820  0.4892  0.7292
   45CHL1   C18 5763   5.009   1.489   9.316 -0.3962  0.1546  0.4900
   45CHL1  H18A 5764   5.120   1.486   9.317 -0.3559  0.3258  2.7552
   45CHL1  H18B 5765   4.986   1.392   9.364  0.6909  0.4040  1.5824
   45CHL1  H18C 5766   4.964   1.494   9.215  0.4639  0.2462  0.1016
   45CHL1   C12 5767   5.034   1.619   9.534 -0.2812  0.5876 -0.5147
   45CHL1  H12A 5768   5.057   1.517   9.571  0.5898  1.3381  1.1451
   45CHL1  H12B 5769   5.134   1.666   9.516  1.7252 -2.2568  2.1697
   45CHL1   C11 5770   4.971   1.695   9.650 -0.3080 -0.4794 -0.3014
   45CHL1  H11A 5771   5.043   1.684   9.734 -0.7946 -2.9849 -0.1241
   45CHL1  H11B 5772   4.972   1.801   9.617 -5.1532  0.0988  0.6619
   45CHL1    C9 5773   4.832   1.642   9.686 -0.7198 -0.4446 -0.1595
   45CHL1    H9 5774   4.781   1.719   9.747 -1.7569 -0.6472 -0.7555
   45CHL1   C10 5775   4.827   1.527   9.792 -0.6519  0.3807 -0.0013
   45CHL1   C19 5776   4.920   1.406   9.768  0.2465 -0.1743  0.3976
   45CHL1  H19A 5777   4.911   1.336   9.853  1.6849  2.2560  2.7151
   45CHL1  H19B 5778   4.895   1.354   9.673  1.7473 -1.2703  0.5774
   45CHL1  H19C 5779   5.027   1.435   9.759  0.2361 -0.6372 -1.8383
   45CHL1    C1 5780   4.860   1.592   9.931 -0.5516  0.3911  0.8440
   45CHL1   H1A 5781   4.962   1.635   9.924 -0.4814  0.1726  0.4424
   45CHL1   H1B 5782   4.794   1.680   9.945 -2.7838 -0.9377 -0.5991
   45CHL1    C2 5783   4.836   1.496  10.056 -0.0588 -0.1498  0.4400
   45CHL1   H2A 5784   4.865   1.547  10.150  0.8063 -1.8120  1.1098
   45CHL1   H2B 5785   4.897   1.403  10.052 -2.5479 -1.9124  1.2656
   45CHL1   C20 5786   5.038   1.768   9.229  0.0249  0.4067 -0.4038
   45CHL1   H20 5787   5.049   1.684   9.158  1.0355 -0.8519  1.1877
   45CHL1   C21 5788   5.175   1.789   9.300 -0.1937 -0.5053  0.1861
   45CHL1  H21A 5789   5.253   1.822   9.227 -0.5907  0.1376  0.0427
   45CHL1  H21B 5790   5.220   1.695   9.339  0.9062  0.7042  1.9658
   45CHL1  H21C 5791   5.166   1.865   9.381 -1.2296 -1.8376  1.3663
   45CHL1   C22 5792   5.005   1.895   9.143 -0.1851 -0.0731  0.2836
   45CHL1  H22A 5793   5.087   1.913   9.070  0.5273 -0.5454  0.9610
   45CHL1  H22B 5794   4.917   1.882   9.076  0.9951 -1.4580 -1.0882
   45CHL1   C23 5795   4.983   2.025   9.218 -0.5876  0.0650 -0.5206
   45CHL1  H23A 5796   4.898   2.019   9.289 -0.3752  0.6341 -0.2136
   45CHL1  H23B 5797   5.063   2.050   9.291  0.0071 -0.8040 -0.8569
   45CHL1   C24 5798   4.964   2.143   9.120  0.4265  1.3725  0.0170
   45CHL1  H24A 5799   5.055   2.148   9.057  1.5464  0.5413  1.5015
   45CHL1  H24B 5800   4.881   2.118   9.050  0.3949 -1.5259  0.9736
   45CHL1   C25 5801   4.956   2.288   9.185  0.0375  0.1696 -0.2518
   45CHL1   H25 5802   5.048   2.305   9.244 -0.1098 -1.8552  0.6456
   45CHL1   C26 5803   4.945   2.387   9.074  0.6176  0.4940  0.3797
   45CHL1  H26A 5804   5.029   2.379   9.002  0.4663  1.4046  0.0978
   45CHL1  H26B 5805   4.850   2.377   9.016  1.7615 -1.1705 -1.3175
   45CHL1  H26C 5806   4.943   2.487   9.121  0.4087  1.5955 -1.8529
   45CHL1   C27 5807   4.839   2.305   9.275  0.3544 -0.0641 -0.4299
   45CHL1  H27A 5808   4.825   2.221   9.346 -1.7038  1.0896  0.6113
   45CHL1  H27B 5809   4.853   2.403   9.325  1.3766 -1.3950  2.0805
   45CHL1  H27C 5810   4.743   2.314   9.220 -0.6872 -1.7133  1.0048
   46CHL1    C3 5811   0.405   5.447   9.992  0.3238 -0.6598  0.2501
   46CHL1    H3 5812   0.359   5.350   9.964  0.3420 -0.3090 -1.0970
   46CHL1    O3 5813   0.398   5.462  10.129 -0.5635 -0.2578  0.0045
   46CHL1   H3' 5814   0.312   5.500  10.148 -1.5273 -2.3125  0.0531
   46CHL1    C4 5815   0.545   5.438   9.936  0.3808  0.2354  0.4332
   46CHL1   H4A 5816   0.606   5.524   9.973  1.7562 -1.3620  2.0443
   46CHL1   H4B 5817   0.596   5.351   9.982  1.8512  0.9372  0.1923
   46CHL1    C5 5818   0.534   5.437   9.784 -0.5651  0.1334 -0.6920
   46CHL1    C6 5819   0.579   5.334   9.713  0.5018 -0.1358  0.0788
   46CHL1    H6 5820   0.627   5.257   9.775  0.5489  2.1473  3.1185
   46CHL1    C7 5821   0.590   5.330   9.564 -0.3386 -0.2800  0.2027
   46CHL1   H7A 5822   0.690   5.294   9.533  0.7380  0.7519  2.2370
   46CHL1   H7B 5823   0.516   5.251   9.539 -2.3735  1.5714  0.0617
   46CHL1    C8 5824   0.562   5.465   9.493 -0.2533 -0.0037 -0.2937
   46CHL1    H8 5825   0.658   5.520   9.491  0.5750 -1.3841  0.3513
   46CHL1   C14 5826   0.511   5.441   9.351 -0.4398  0.4918 -0.2621
   46CHL1   H14 5827   0.409   5.397   9.353 -1.2699  2.3197  0.1030
   46CHL1   C15 5828   0.592   5.342   9.267 -0.5725  0.1149 -0.2170
   46CHL1  H15A 5829   0.701   5.344   9.251 -0.3105  0.7466  1.4592
   46CHL1  H15B 5830   0.572   5.235   9.291 -1.8279  0.4502  0.3602
   46CHL1   C16 5831   0.549   5.384   9.125 -0.0662 -0.6911  0.3437
   46CHL1  H16A 5832   0.640   5.408   9.066 -0.1273 -1.3396 -0.0284
   46CHL1  H16B 5833   0.500   5.299   9.071 -0.2450  0.5690 -1.5942
   46CHL1   C17 5834   0.458   5.505   9.132  0.3555  0.0463  0.1231
   46CHL1   H17 5835   0.357   5.459   9.136 -1.0081  2.8939  2.9034
   46CHL1   C13 5836   0.493   5.565   9.264  0.7902 -0.3113 -0.3676
   46CHL1   C18 5837   0.625   5.647   9.252 -0.5944 -0.5915  0.3047
   46CHL1  H18A 5838   0.587   5.734   9.194 -3.6416 -2.4552 -0.7438
   46CHL1  H18B 5839   0.671   5.686   9.346 -0.7947  0.9322 -0.2016
   46CHL1  H18C 5840   0.704   5.604   9.188 -1.5194  0.8649 -1.9579
   46CHL1   C12 5841   0.375   5.638   9.341  0.5012 -0.1657  0.5518
   46CHL1  H12A 5842   0.353   5.733   9.289  0.8680 -0.8482 -0.8997
   46CHL1  H12B 5843   0.280   5.579   9.337  1.4342 -2.1709  3.7074
   46CHL1   C11 5844   0.404   5.668   9.489 -0.3283  0.5838  0.5483
   46CHL1  H11A 5845   0.495   5.729   9.476  0.1630 -0.4375 -1.1248
   46CHL1  H11B 5846   0.328   5.721   9.550 -2.1074 -1.2715  0.0887
   46CHL1    C9 5847   0.447   5.535   9.567  0.1031 -0.3749  0.6421
   46CHL1    H9 5848   0.363   5.463   9.565  0.5615 -0.9021 -0.0932
   46CHL1   C10 5849   0.472   5.556   9.722 -0.6301 -0.7828  0.4706
   46CHL1   C19 5850   0.548   5.685   9.741 -0.4547 -0.8276 -0.2293
   46CHL1  H19A 5851   0.648   5.674   9.693 -0.8384 -1.4328 -0.9134
   46CHL1  H19B 5852   0.483   5.766   9.701 -1.9493 -1.8553  0.0313
   46CHL1  H19C 5853   0.555   5.704   9.850  0.8891  0.2339 -0.4565
   46CHL1    C1 5854   0.332   5.562   9.784 -0.2610  0.4638 -0.0352
   46CHL1   H1A 5855   0.272   5.654   9.768  1.1575  1.6120  0.9561
   46CHL1   H1B 5856   0.260   5.479   9.764 -1.4954  1.5354 -0.1779
   46CHL1    C2 5857   0.335   5.570   9.939 -0.0246 -0.8228 -0.3615
   46CHL1   H2A 5858   0.232   5.588   9.977  1.0667  1.3515  1.8377
   46CHL1   H2B 5859   0.390   5.661   9.971  0.2915 -0.3432 -2.1224
   46CHL1   C20 5860   0.479   5.593   9.005 -0.0820  0.5875  0.1856
   46CHL1   H20 5861   0.578   5.641   8.991  0.1250 -0.1384 -1.0683
   46CHL1   C21 5862   0.375   5.706   9.017  0.6274 -0.2380 -0.1934
   46CHL1  H21A 5863   0.410   5.768   9.102 -0.6590  2.6455 -1.6400
   46CHL1  H21B 5864   0.269   5.673   9.016  0.4505  0.3014 -1.3835
   46CHL1  H21C 5865   0.390   5.784   8.939  0.7074 -0.4258 -0.3692
   46CHL1   C22 5866   0.463   5.518   8.865 -0.7411 -0.7419 -0.2157
   46CHL1  H22A 5867   0.553   5.455   8.855 -0.5778 -0.1642 -3.1917
   46CHL1  H22B 5868   0.382   5.442   8.873 -0.4482 -0.9810  0.6333
   46CHL1   C23 5869   0.460   5.607   8.731 -0.2804  0.1399 -0.2039
   46CHL1  H23A 5870   0.440   5.527   8.656 -1.9729 -2.8299  3.1270
   46CHL1  H23B 5871   0.375   5.679   8.728 -0.2463  0.1621 -2.2587
   46CHL1   C24 5872   0.601   5.655   8.701 -0.3831 -0.5695 -0.8103
   46CHL1  H24A 5873   0.623   5.749   8.756  1.0537 -0.8393 -0.8727
   46CHL1  H24B 5874   0.670   5.569   8.720 -0.0753 -0.8899 -3.0325
   46CHL1   C25 5875   0.616   5.688   8.548  0.2022 -0.4202  0.1233
   46CHL1   H25 5876   0.580   5.601   8.489 -2.4487 -1.1385  2.5344
   46CHL1   C26 5877   0.534   5.817   8.513 -0.6873 -0.1193 -0.4739
   46CHL1  H26A 5878   0.563   5.900   8.581  0.8475  0.2108 -1.4806
   46CHL1  H26B 5879   0.572   5.844   8.413  0.2694 -0.1355 -0.1262
   46CHL1  H26C 5880   0.429   5.780   8.516 -0.8403  0.2457 -1.1682
   46CHL1   C27 5881   0.771   5.711   8.522 -0.1606 -0.5127  0.6292
   46CHL1  H27A 5882   0.832   5.629   8.565  1.1862  0.2924  0.3238
   46CHL1  H27B 5883   0.793   5.722   8.414  1.0715  0.1396  0.9282
   46CHL1  H27C 5884   0.802   5.805   8.573  3.1795 -2.7187  2.9710
   47CHL1    C3 5885   3.477   2.425  10.075 -0.4693 -0.4277 -0.1649
   47CHL1    H3 5886   3.514   2.322  10.054  1.9267 -0.0224  1.7248
   47CHL1    O3 5887   3.531   2.444  10.203  0.0358 -0.2380 -0.5453
   47CHL1   H3' 5888   3.512   2.536  10.224  0.0511 -0.8682  2.9086
   47CHL1    C4 5889   3.528   2.531   9.982  0.0802  1.3996  0.3798
   47CHL1   H4A 5890   3.479   2.623  10.021  0.6448  2.6441 -1.7037
   47CHL1   H4B 5891   3.637   2.540  10.001  0.5437 -0.2996 -1.1752
   47CHL1    C5 5892   3.484   2.501   9.838 -0.5259 -0.6928  0.1204
   47CHL1    C6 5893   3.566   2.490   9.731 -0.3084  0.3935  0.3737
   47CHL1    H6 5894   3.675   2.503   9.739 -0.0923 -1.5185  1.0665
   47CHL1    C7 5895   3.518   2.470   9.591  1.0646 -0.4215 -0.2074
   47CHL1   H7A 5896   3.572   2.538   9.522 -0.1903  0.7987 -0.0203
   47CHL1   H7B 5897   3.538   2.366   9.557  1.3219 -0.3642 -0.2387
   47CHL1    C8 5898   3.365   2.496   9.578 -0.8855  0.3233 -1.1659
   47CHL1    H8 5899   3.350   2.605   9.592 -1.9782  0.0246  0.1404
   47CHL1   C14 5900   3.322   2.448   9.443 -0.2803 -0.4483  0.3691
   47CHL1   H14 5901   3.336   2.338   9.437 -0.5085 -0.7095  3.1921
   47CHL1   C15 5902   3.402   2.505   9.324  0.7859  0.4261 -0.4336
   47CHL1  H15A 5903   3.435   2.608   9.350  1.4456  0.2742 -0.6501
   47CHL1  H15B 5904   3.502   2.459   9.309  1.7224  1.6959  1.4052
   47CHL1   C16 5905   3.306   2.496   9.210 -0.8088  0.0590 -0.1669
   47CHL1  H16A 5906   3.286   2.599   9.172 -2.4238 -0.2531 -0.2392
   47CHL1  H16B 5907   3.360   2.437   9.133  1.0290  0.4329  0.7780
   47CHL1   C17 5908   3.178   2.430   9.260 -0.7101 -0.5918  0.3151
   47CHL1   H17 5909   3.189   2.319   9.258 -1.7363 -0.6954 -0.0809
   47CHL1   C13 5910   3.177   2.473   9.407  0.1319 -0.5176 -0.7938
   47CHL1   C18 5911   3.138   2.618   9.431 -0.4862 -0.5287 -0.0328
   47CHL1  H18A 5912   3.152   2.651   9.536  0.1185 -1.1106  0.0727
   47CHL1  H18B 5913   3.203   2.685   9.372  2.9940 -1.0581  2.8623
   47CHL1  H18C 5914   3.032   2.634   9.401 -0.5939  0.6312  0.8961
   47CHL1   C12 5915   3.107   2.372   9.508 -0.6198 -0.3568 -0.2869
   47CHL1  H12A 5916   2.996   2.384   9.502 -0.4476  1.3905 -0.4928
   47CHL1  H12B 5917   3.133   2.269   9.475  0.7238 -0.7271  1.7735
   47CHL1   C11 5918   3.142   2.396   9.658 -0.8143  0.0180 -0.0551
   47CHL1  H11A 5919   3.101   2.492   9.696  2.7871  1.8605 -0.3695
   47CHL1  H11B 5920   3.098   2.311   9.714 -2.5110 -0.2320 -1.6828
   47CHL1    C9 5921   3.296   2.415   9.688  0.4438 -0.5133  0.8145
   47CHL1    H9 5922   3.341   2.313   9.687  0.5732 -0.4783 -1.1577
   47CHL1   C10 5923   3.330   2.482   9.826  0.2434  0.3762  0.3031
   47CHL1   C19 5924   3.267   2.619   9.842  0.7882 -0.2057 -0.0484
   47CHL1  H19A 5925   3.298   2.669   9.936  0.6887  1.0218 -0.6483
   47CHL1  H19B 5926   3.283   2.692   9.760 -2.4411 -0.2879 -0.8638
   47CHL1  H19C 5927   3.158   2.600   9.847  0.8402 -0.4629  0.1431
   47CHL1    C1 5928   3.280   2.383   9.941 -0.4011  0.7684  0.4395
   47CHL1   H1A 5929   3.169   2.390   9.951 -0.6649  1.0846 -1.9316
   47CHL1   H1B 5930   3.298   2.275   9.919 -2.2010  0.9068 -2.3853
   47CHL1    C2 5931   3.326   2.421  10.079  0.8146  0.7841  0.6993
   47CHL1   H2A 5932   3.293   2.345  10.154  1.3447 -0.8079 -0.6139
   47CHL1   H2B 5933   3.283   2.515  10.120  2.5453  0.8602  2.5306
   47CHL1   C20 5934   3.052   2.466   9.176  0.0748 -0.8523 -0.1735
   47CHL1   H20 5935   3.007   2.561   9.213 -0.8400 -1.9362  1.6526
   47CHL1   C21 5936   2.942   2.362   9.222 -0.2296 -0.0569  0.4412
   47CHL1  H21A 5937   2.902   2.383   9.324  0.2264 -1.0052  0.8239
   47CHL1  H21B 5938   2.983   2.260   9.215  1.6988  0.7941 -2.7617
   47CHL1  H21C 5939   2.850   2.354   9.160  0.2739  1.3664 -0.5426
   47CHL1   C22 5940   3.071   2.470   9.026 -0.0312  0.3116 -0.2232
   47CHL1  H22A 5941   2.970   2.504   8.997  0.7358  2.6147 -0.3834
   47CHL1  H22B 5942   3.139   2.554   8.999  0.7223 -0.5793 -1.2086
   47CHL1   C23 5943   3.107   2.339   8.968  0.6155  0.0013  0.6589
   47CHL1  H23A 5944   3.211   2.320   9.003 -0.0033 -0.5496  2.3138
   47CHL1  H23B 5945   3.040   2.264   9.016 -0.9611 -0.0532 -1.4583
   47CHL1   C24 5946   3.080   2.324   8.817 -0.3420 -0.0295  0.5245
   47CHL1  H24A 5947   2.973   2.353   8.803  0.0966  0.9378 -0.9117
   47CHL1  H24B 5948   3.136   2.398   8.756  0.2578 -1.3162 -0.5365
   47CHL1   C25 5949   3.111   2.180   8.766  0.8341 -0.0907 -0.1178
   47CHL1   H25 5950   3.058   2.112   8.836  0.9563 -0.5302 -0.4469
   47CHL1   C26 5951   3.046   2.153   8.631  0.4674  0.4928 -0.2368
   47CHL1  H26A 5952   3.025   2.044   8.627  2.2957  0.0833  0.4047
   47CHL1  H26B 5953   3.108   2.188   8.546 -0.6361  0.1520 -1.2128
   47CHL1  H26C 5954   2.944   2.193   8.613  0.8615  1.4018 -0.5132
   47CHL1   C27 5955   3.263   2.149   8.763  0.3460  0.0610 -0.1251
   47CHL1  H27A 5956   3.296   2.241   8.710 -1.6603  0.1684 -1.3244
   47CHL1  H27B 5957   3.303   2.136   8.865 -0.3149  0.5478  0.2064
   47CHL1  H27C 5958   3.285   2.063   8.696 -0.6601  0.2459 -0.7270
   48CHL1    C3 5959   2.072   2.155   9.979  0.0849  0.3260 -0.0025
   48CHL1    H3 5960   2.055   2.048   9.955 -0.6791  1.0187 -3.0805
   48CHL1    O3 5961   2.014   2.189  10.108  0.3745 -0.0881  0.9300
   48CHL1   H3' 5962   2.034   2.281  10.125 -0.2995 -0.2334  2.6459
   48CHL1    C4 5963   2.218   2.181   9.983 -0.5400 -0.4947 -0.4932
   48CHL1   H4A 5964   2.230   2.290  10.004  1.4430 -0.6729 -0.5909
   48CHL1   H4B 5965   2.269   2.120  10.060 -0.2354 -0.2673 -0.5134
   48CHL1    C5 5966   2.280   2.159   9.852 -0.3050  0.1132 -0.3717
   48CHL1    C6 5967   2.387   2.078   9.845 -0.9959  0.8956  0.0565
   48CHL1    H6 5968   2.428   2.031   9.935  0.2403 -0.2840 -1.0930
   48CHL1    C7 5969   2.458   2.047   9.712  0.6264 -0.6228  0.1159
   48CHL1   H7A 5970   2.566   2.069   9.723  1.2215 -2.7834 -0.7909
   48CHL1   H7B 5971   2.442   1.937   9.704 -1.6396 -0.3273 -0.3355
   48CHL1    C8 5972   2.400   2.116   9.591  0.4274 -0.0625  0.0913
   48CHL1    H8 5973   2.451   2.215   9.591  0.4229 -0.0582 -0.2952
   48CHL1   C14 5974   2.416   2.024   9.465 -0.4430 -0.3775 -0.1198
   48CHL1   H14 5975   2.344   1.941   9.455  0.0672 -0.6582 -1.6455
   48CHL1   C15 5976   2.548   1.945   9.457  0.3354  0.3543 -0.2535
   48CHL1  H15A 5977   2.634   2.012   9.478  1.5453 -0.8985 -1.0612
   48CHL1  H15B 5978   2.551   1.848   9.512 -2.4444  0.0976 -0.4391
   48CHL1   C16 5979   2.564   1.906   9.309 -0.2168  0.0927  0.0191
   48CHL1  H16A 5980   2.661   1.933   9.264 -0.1542 -1.5022 -0.8689
   48CHL1  H16B 5981   2.539   1.798   9.300 -0.2669  0.0603  0.5083
   48CHL1   C17 5982   2.445   1.982   9.244  0.4143 -1.0613 -0.1187
   48CHL1   H17 5983   2.360   1.910   9.244 -0.5249  0.0028  1.2666
   48CHL1   C13 5984   2.399   2.097   9.334 -0.1628 -0.1228 -0.6134
   48CHL1   C18 5985   2.496   2.219   9.319 -0.2543 -0.0636  0.7275
   48CHL1  H18A 5986   2.462   2.307   9.379 -0.6183  2.2898 -2.6727
   48CHL1  H18B 5987   2.600   2.190   9.347 -0.0663  1.5295  1.8256
   48CHL1  H18C 5988   2.491   2.262   9.217 -0.9638  4.1129  2.2924
   48CHL1   C12 5989   2.246   2.140   9.331  0.4945  0.0630  0.0846
   48CHL1  H12A 5990   2.236   2.210   9.246 -2.0250  0.2086  0.4165
   48CHL1  H12B 5991   2.187   2.049   9.311 -0.8431  1.0912 -0.8241
   48CHL1   C11 5992   2.206   2.209   9.462  0.3751 -0.6001 -0.6081
   48CHL1  H11A 5993   2.263   2.305   9.459  1.5944 -1.3222 -1.7217
   48CHL1  H11B 5994   2.100   2.238   9.447 -0.3503 -2.7042  0.1783
   48CHL1    C9 5995   2.255   2.149   9.598 -0.3318 -0.0679  0.4989
   48CHL1    H9 5996   2.212   2.046   9.600 -0.4691 -0.0056  0.9246
   48CHL1   C10 5997   2.223   2.223   9.727 -0.5472  0.5112  0.8571
   48CHL1   C19 5998   2.265   2.368   9.722 -0.5695 -0.3033 -0.1656
   48CHL1  H19A 5999   2.220   2.422   9.637 -0.2703  0.1661 -0.0310
   48CHL1  H19B 6000   2.243   2.422   9.817 -2.0070  0.9556 -1.1800
   48CHL1  H19C 6001   2.375   2.361   9.706 -0.5670 -0.8090  0.0503
   48CHL1    C1 6002   2.068   2.218   9.737  0.0195 -0.0437  0.0253
   48CHL1   H1A 6003   2.026   2.296   9.669  0.3271 -0.3461 -0.5174
   48CHL1   H1B 6004   2.037   2.122   9.690 -2.4797  0.0460  1.3220
   48CHL1    C2 6005   2.000   2.238   9.871 -0.0602 -0.1054 -1.2137
   48CHL1   H2A 6006   1.891   2.215   9.876  0.0252 -0.2205  1.5540
   48CHL1   H2B 6007   2.030   2.341   9.899  1.1671 -0.9404  0.7421
   48CHL1   C20 6008   2.481   2.012   9.101 -0.1520  0.3737 -0.0466
   48CHL1   H20 6009   2.560   2.090   9.095 -0.5749  0.7365 -1.2981
   48CHL1   C21 6010   2.366   2.074   9.016 -0.0615 -0.1198 -0.2051
   48CHL1  H21A 6011   2.292   1.997   8.985 -2.7474  2.0192  0.4545
   48CHL1  H21B 6012   2.404   2.114   8.920 -0.1890  1.1908  0.2705
   48CHL1  H21C 6013   2.320   2.163   9.064  2.5167 -0.2821  2.9021
   48CHL1   C22 6014   2.521   1.883   9.020 -0.1051 -0.0565  0.2427
   48CHL1  H22A 6015   2.602   1.828   9.073 -0.2876 -1.7444 -1.1373
   48CHL1  H22B 6016   2.431   1.819   9.028 -1.1780  1.5977  4.0798
   48CHL1   C23 6017   2.568   1.893   8.871 -0.2857 -0.0279  0.4245
   48CHL1  H23A 6018   2.506   1.965   8.812 -0.5417  0.8252  1.6797
   48CHL1  H23B 6019   2.673   1.930   8.870 -0.2012 -0.1837 -2.1583
   48CHL1   C24 6020   2.581   1.755   8.806 -0.0876  0.2582 -0.2291
   48CHL1  H24A 6021   2.648   1.688   8.864 -0.0250 -0.0587 -0.6630
   48CHL1  H24B 6022   2.479   1.711   8.796 -0.1697  0.4012 -0.0181
   48CHL1   C25 6023   2.652   1.764   8.662 -0.4335 -0.1705  0.5187
   48CHL1   H25 6024   2.598   1.840   8.601 -1.1957 -1.4894 -0.4832
   48CHL1   C26 6025   2.800   1.802   8.661 -0.1272 -0.9199  0.1038
   48CHL1  H26A 6026   2.823   1.894   8.720  1.2501 -1.6326  0.7234
   48CHL1  H26B 6027   2.869   1.728   8.707  0.0571 -2.0602 -1.9270
   48CHL1  H26C 6028   2.827   1.822   8.555 -0.6667  2.5326  0.4895
   48CHL1   C27 6029   2.631   1.631   8.585 -0.3045  0.8847 -0.5105
   48CHL1  H27A 6030   2.539   1.578   8.616  0.6640 -1.2809 -1.1600
   48CHL1  H27B 6031   2.650   1.636   8.475 -1.1481  1.2700 -0.6450
   48CHL1  H27C 6032   2.706   1.566   8.636 -1.1778 -1.5465 -2.1228
   49CHL1    C3 6033   6.778   5.619   9.908  0.3728  0.3566  0.0666
   49CHL1    H3 6034   6.889   5.620   9.911  0.7301 -3.1344 -3.7235
   49CHL1    O3 6035   6.728   5.591  10.038 -1.0368  0.4221  0.0422
   49CHL1   H3' 6036   6.704   5.499  10.044 -0.8169  0.3848  0.3724
   49CHL1    C4 6037   6.717   5.749   9.859  1.0909  0.1621 -0.8269
   49CHL1   H4A 6038   6.607   5.743   9.872  0.9714  1.9808 -0.6952
   49CHL1   H4B 6039   6.768   5.826   9.921  0.9193 -0.1146 -0.3331
   49CHL1    C5 6040   6.755   5.773   9.717  0.6519  0.0762  0.1389
   49CHL1    C6 6041   6.832   5.871   9.680  0.1803 -0.1423 -0.1662
   49CHL1    H6 6042   6.858   5.942   9.759 -1.3481  0.4977 -0.2067
   49CHL1    C7 6043   6.868   5.903   9.536 -0.0421 -0.8871 -0.0146
   49CHL1   H7A 6044   6.864   6.014   9.528  1.6386 -0.7563  0.5317
   49CHL1   H7B 6045   6.975   5.876   9.530  0.5502  1.3570 -0.4372
   49CHL1    C8 6046   6.773   5.831   9.437 -0.4436 -0.0630 -0.9878
   49CHL1    H8 6047   6.672   5.878   9.446 -0.6297 -0.7649  1.3974
   49CHL1   C14 6048   6.819   5.846   9.294 -0.1276  0.1230 -0.0596
   49CHL1   H14 6049   6.919   5.798   9.286  0.6227  1.8433 -1.6149
   49CHL1   C15 6050   6.826   5.990   9.246 -0.0259 -0.5006  0.5609
   49CHL1  H15A 6051   6.735   6.044   9.278  0.1170 -0.0402  0.2027
   49CHL1  H15B 6052   6.918   6.042   9.280 -0.5345 -0.4198  1.8469
   49CHL1   C16 6053   6.836   5.981   9.093 -0.6370  0.4357 -0.1168
   49CHL1  H16A 6054   6.774   6.056   9.040 -0.7133  0.1292 -0.4697
   49CHL1  H16B 6055   6.932   5.997   9.039 -0.0231 -1.4329  0.3409
   49CHL1   C17 6056   6.801   5.831   9.059  0.0545 -0.5833  0.2668
   49CHL1   H17 6057   6.898   5.779   9.050  2.0701  2.2426  3.5456
   49CHL1   C13 6058   6.740   5.766   9.189  0.2421 -0.0478 -0.2748
   49CHL1   C18 6059   6.589   5.792   9.199 -0.9101 -0.2851  0.5638
   49CHL1  H18A 6060   6.528   5.729   9.130 -0.1569 -0.0276 -0.3663
   49CHL1  H18B 6061   6.559   5.789   9.306  1.8129  0.7185  1.4454
   49CHL1  H18C 6062   6.576   5.900   9.175 -1.4356 -0.3289  0.6402
   49CHL1   C12 6063   6.767   5.612   9.222 -0.1253  0.5123 -0.3353
   49CHL1  H12A 6064   6.712   5.540   9.158 -1.5069  0.4803  0.8213
   49CHL1  H12B 6065   6.873   5.582   9.209  0.2259  1.4474  0.2197
   49CHL1   C11 6066   6.709   5.588   9.369 -0.2822 -0.0261  0.6066
   49CHL1  H11A 6067   6.600   5.567   9.364 -0.1532 -0.4244 -1.3076
   49CHL1  H11B 6068   6.755   5.491   9.397  0.7020  0.0219 -0.7452
   49CHL1    C9 6069   6.753   5.689   9.479 -0.0028  0.6976  0.4481
   49CHL1    H9 6070   6.857   5.651   9.477 -0.3876 -0.5036  1.7640
   49CHL1   C10 6071   6.700   5.658   9.624 -0.0586 -1.0345 -0.5024
   49CHL1   C19 6072   6.546   5.674   9.614  0.6918  0.1329 -0.5771
   49CHL1  H19A 6073   6.495   5.640   9.707 -0.2251  0.0996 -1.0746
   49CHL1  H19B 6074   6.500   5.773   9.593 -1.1295 -0.4615  0.4104
   49CHL1  H19C 6075   6.503   5.612   9.532  0.4672 -1.0036  0.3763
   49CHL1    C1 6076   6.762   5.522   9.684  1.0680 -0.1192  0.0107
   49CHL1   H1A 6077   6.710   5.444   9.626  0.9839  0.0737 -0.1749
   49CHL1   H1B 6078   6.869   5.506   9.658  0.3292 -1.6864 -2.3018
   49CHL1    C2 6079   6.723   5.501   9.824 -0.1711  0.0421 -0.4904
   49CHL1   H2A 6080   6.764   5.407   9.864  0.9333 -0.0723 -1.7896
   49CHL1   H2B 6081   6.613   5.489   9.831 -0.0365 -0.5579  0.7526
   49CHL1   C20 6082   6.720   5.821   8.928 -0.3662 -0.0791 -0.6789
   49CHL1   H20 6083   6.620   5.868   8.936 -1.0688 -1.5311 -0.7032
   49CHL1   C21 6084   6.683   5.674   8.903  0.8065  0.3461  0.1565
   49CHL1  H21A 6085   6.766   5.600   8.909 -1.9394 -3.2319 -1.6657
   49CHL1  H21B 6086   6.650   5.668   8.797  1.6036  0.9666 -0.1428
   49CHL1  H21C 6087   6.598   5.639   8.965 -0.1727 -2.6862 -2.5925
   49CHL1   C22 6088   6.787   5.889   8.808 -0.8844  0.1971 -0.9329
   49CHL1  H22A 6089   6.710   5.907   8.729 -0.6427  3.4337 -0.5805
   49CHL1  H22B 6090   6.811   5.996   8.828  0.6263  0.1486 -2.2920
   49CHL1   C23 6091   6.913   5.813   8.758  0.2307  0.2586  0.0307
   49CHL1  H23A 6092   6.971   5.786   8.849 -1.7934  1.3046  1.7226
   49CHL1  H23B 6093   6.876   5.718   8.716 -2.5553  0.1226  2.4947
   49CHL1   C24 6094   6.996   5.887   8.645 -0.3186  0.0219  0.2660
   49CHL1  H24A 6095   6.999   5.996   8.666 -0.7468  0.1220 -0.1653
   49CHL1  H24B 6096   7.103   5.863   8.631  0.0982  2.1057 -0.5528
   49CHL1   C25 6097   6.927   5.873   8.509 -0.2147 -0.2454  0.3552
   49CHL1   H25 6098   6.820   5.893   8.533  0.3478  0.2150  2.7572
   49CHL1   C26 6099   6.988   5.976   8.412  1.3790  0.1354  0.2219
   49CHL1  H26A 6100   7.089   5.944   8.380  0.9226 -3.0321  1.5757
   49CHL1  H26B 6101   6.934   5.959   8.316  1.0352 -1.3561  0.6446
   49CHL1  H26C 6102   6.966   6.082   8.436  1.3462  0.5572 -1.5167
   49CHL1   C27 6103   6.944   5.737   8.439  0.1760  0.3401 -0.0114
   49CHL1  H27A 6104   6.887   5.731   8.344  1.5736  3.0933 -1.1271
   49CHL1  H27B 6105   7.050   5.710   8.424  1.1859  3.5262  0.5787
   49CHL1  H27C 6106   6.908   5.658   8.508 -1.0525  0.4404 -0.5111
   50CHL1    C3 6107   5.952   0.435  10.167 -0.1245 -0.2315 -0.0237
   50CHL1    H3 6108   5.961   0.337  10.117  1.9092  0.2736 -0.7614
   50CHL1    O3 6109   5.914   0.428  10.305  0.4264  0.1250 -0.1512
   50CHL1   H3' 6110   5.838   0.369  10.307  0.8131 -0.3891  1.7966
   50CHL1    C4 6111   6.081   0.518  10.159 -0.0692 -0.1763  0.9405
   50CHL1   H4A 6112   6.058   0.616  10.206 -0.5591 -0.4497  1.2854
   50CHL1   H4B 6113   6.164   0.466  10.212  0.7967  0.1307 -0.0919
   50CHL1    C5 6114   6.126   0.539  10.019 -0.0459  0.2258  0.4295
   50CHL1    C6 6115   6.245   0.492   9.965  0.0574  0.2936  0.8444
   50CHL1    H6 6116   6.325   0.446  10.024  0.0156 -2.3615 -0.9660
   50CHL1    C7 6117   6.279   0.525   9.819  0.2074  1.0822 -0.0815
   50CHL1   H7A 6118   6.390   0.529   9.817  0.3742 -0.2743  2.1573
   50CHL1   H7B 6119   6.267   0.426   9.770  1.3444  0.6630  0.4478
   50CHL1    C8 6120   6.199   0.630   9.747  0.8444 -0.0082 -0.4766
   50CHL1    H8 6121   6.226   0.733   9.779  1.0343 -0.0475 -0.5109
   50CHL1   C14 6122   6.220   0.628   9.600 -0.8300  0.0367  0.7207
   50CHL1   H14 6123   6.205   0.524   9.565  3.5359 -0.1011 -1.5055
   50CHL1   C15 6124   6.367   0.649   9.558 -0.2144 -0.1151 -0.6835
   50CHL1  H15A 6125   6.416   0.727   9.618  0.3680 -2.3577  1.9502
   50CHL1  H15B 6126   6.425   0.555   9.573  0.6984  0.5733  0.1708
   50CHL1   C16 6127   6.357   0.691   9.406  0.3817  0.5024 -0.9005
   50CHL1  H16A 6128   6.400   0.793   9.401  0.3889  0.6866  1.5788
   50CHL1  H16B 6129   6.403   0.613   9.342 -2.3595 -1.0598 -1.0988
   50CHL1   C17 6130   6.203   0.694   9.379 -0.6897 -0.0867  0.1628
   50CHL1   H17 6131   6.178   0.590   9.349  1.6573 -0.5446 -0.3838
   50CHL1   C13 6132   6.146   0.724   9.515  0.1040  0.0138 -0.2546
   50CHL1   C18 6133   6.168   0.870   9.544  0.2892  0.1979 -0.1749
   50CHL1  H18A 6134   6.161   0.888   9.654 -0.1315  1.4672 -0.3920
   50CHL1  H18B 6135   6.270   0.905   9.517  1.4006 -1.1896  1.8687
   50CHL1  H18C 6136   6.080   0.919   9.498 -1.1079 -1.1344  0.9663
   50CHL1   C12 6137   5.995   0.690   9.540 -0.5575  0.1247  0.2552
   50CHL1  H12A 6138   5.929   0.760   9.484 -0.1350 -1.2059 -2.0184
   50CHL1  H12B 6139   5.973   0.586   9.508 -1.7538  0.5202 -0.2480
   50CHL1   C11 6140   5.961   0.703   9.689  0.6765  0.3497 -0.3999
   50CHL1  H11A 6141   5.981   0.808   9.721 -1.9857  0.6248  0.5847
   50CHL1  H11B 6142   5.854   0.678   9.705  1.5364 -3.4491  0.2323
   50CHL1    C9 6143   6.048   0.603   9.773  0.4679 -0.7593 -0.3174
   50CHL1    H9 6144   6.021   0.503   9.733 -0.2042 -0.6355 -0.1807
   50CHL1   C10 6145   6.016   0.614   9.931 -0.3858  0.2459 -0.1693
   50CHL1   C19 6146   6.015   0.763   9.977  0.3616 -0.2044  0.0894
   50CHL1  H19A 6147   6.111   0.815   9.959 -1.2029  3.1965  0.7777
   50CHL1  H19B 6148   5.932   0.825   9.939 -1.9926 -2.0231  1.9160
   50CHL1  H19C 6149   5.989   0.759  10.085 -0.4311 -0.1495 -0.0917
   50CHL1    C1 6150   5.879   0.545   9.957 -0.2612 -0.0640  0.0770
   50CHL1   H1A 6151   5.793   0.594   9.907 -0.6140 -2.0584 -1.3890
   50CHL1   H1B 6152   5.892   0.447   9.905  0.9295 -1.2238  2.4207
   50CHL1    C2 6153   5.840   0.514  10.101  0.4299  0.1026 -0.1824
   50CHL1   H2A 6154   5.741   0.464  10.107  0.7371 -0.4791  0.1518
   50CHL1   H2B 6155   5.831   0.614  10.147 -4.2944  0.4868 -1.4375
   50CHL1   C20 6156   6.169   0.780   9.259  0.3720 -0.7393  0.4234
   50CHL1   H20 6157   6.203   0.885   9.274  1.2633 -0.5031 -2.5162
   50CHL1   C21 6158   6.021   0.763   9.218  0.4822  0.7332 -0.6116
   50CHL1  H21A 6159   6.007   0.657   9.186  0.5053  0.8629 -1.0527
   50CHL1  H21B 6160   6.000   0.822   9.127  0.9460  0.1791 -1.0851
   50CHL1  H21C 6161   5.957   0.794   9.303  1.5186 -3.8068  2.1877
   50CHL1   C22 6162   6.248   0.725   9.137  0.0678  0.0050 -0.2865
   50CHL1  H22A 6163   6.357   0.729   9.155 -0.2998  3.1862  2.1228
   50CHL1  H22B 6164   6.210   0.624   9.111  1.0251 -1.3164  2.9067
   50CHL1   C23 6165   6.237   0.803   9.009  0.6059  0.7104  0.2570
   50CHL1  H23A 6166   6.131   0.802   8.975  0.1458  1.2433  1.5832
   50CHL1  H23B 6167   6.270   0.907   9.032 -0.7435  0.9926  1.0194
   50CHL1   C24 6168   6.323   0.740   8.896  0.2982 -0.6542  0.6129
   50CHL1  H24A 6169   6.428   0.732   8.931 -0.1692  0.1356  2.2705
   50CHL1  H24B 6170   6.293   0.635   8.879  0.2700 -0.2327 -2.7097
   50CHL1   C25 6171   6.321   0.809   8.764  0.2279 -0.2729  0.1796
   50CHL1   H25 6172   6.215   0.830   8.742 -0.2132  0.8508  2.9735
   50CHL1   C26 6173   6.379   0.953   8.769  0.1995  0.6659  0.2102
   50CHL1  H26A 6174   6.489   0.941   8.781  0.1530 -2.5661 -1.5048
   50CHL1  H26B 6175   6.333   0.995   8.677  0.3132 -0.7898 -0.5284
   50CHL1  H26C 6176   6.339   1.021   8.848 -0.8393 -0.9896  1.1662
   50CHL1   C27 6177   6.387   0.731   8.649  0.1021  0.3951 -0.0124
   50CHL1  H27A 6178   6.386   0.781   8.550  3.3869 -1.1013 -0.9462
   50CHL1  H27B 6179   6.491   0.696   8.670 -0.2905 -0.5491  0.4228
   50CHL1  H27C 6180   6.335   0.635   8.628  0.5212 -0.0502  0.9064
   51CHL1    C3 6181   4.693   3.362  10.305 -0.4923  0.5620 -0.0652
   51CHL1    H3 6182   4.681   3.471  10.287  0.2586  0.6549 -0.0274
   51CHL1    O3 6183   4.686   3.323  10.444  0.0221 -0.3537  0.1800
   51CHL1   H3' 6184   4.779   3.315  10.467  0.5792 -0.1261 -1.7880
   51CHL1    C4 6185   4.570   3.303  10.229 -0.8365 -0.9508  0.7543
   51CHL1   H4A 6186   4.550   3.198  10.258 -0.8454 -1.1168  0.1596
   51CHL1   H4B 6187   4.480   3.354  10.270  0.9742  1.0514  2.5575
   51CHL1    C5 6188   4.579   3.314  10.073 -0.5398  0.1367 -0.5285
   51CHL1    C6 6189   4.484   3.374   9.996  0.1765  0.5430 -1.2523
   51CHL1    H6 6190   4.389   3.413  10.036  0.3868 -0.5585  0.4080
   51CHL1    C7 6191   4.486   3.372   9.842 -0.0125 -0.2919 -0.4605
   51CHL1   H7A 6192   4.396   3.318   9.804 -0.3295  0.8223 -1.3314
   51CHL1   H7B 6193   4.487   3.476   9.804  0.2964 -0.3578 -0.6358
   51CHL1    C8 6194   4.603   3.296   9.777 -0.2051 -0.2222 -0.9540
   51CHL1    H8 6195   4.586   3.186   9.783  1.2640 -0.4282 -0.0756
   51CHL1   C14 6196   4.623   3.341   9.635  0.2279 -0.1707  0.4604
   51CHL1   H14 6197   4.639   3.451   9.642 -0.7986  0.0876 -0.8933
   51CHL1   C15 6198   4.506   3.309   9.548  0.2450  0.4032  0.2385
   51CHL1  H15A 6199   4.453   3.212   9.560 -0.9189  1.2779  3.0241
   51CHL1  H15B 6200   4.413   3.366   9.572  0.0716  0.0864  0.3259
   51CHL1   C16 6201   4.559   3.346   9.405  0.0365  0.4526  0.5120
   51CHL1  H16A 6202   4.535   3.257   9.343  1.8066 -0.6014  1.2566
   51CHL1  H16B 6203   4.501   3.429   9.360  0.0283 -0.1562 -0.6192
   51CHL1   C17 6204   4.721   3.353   9.423  0.3206 -0.6791  0.2892
   51CHL1   H17 6205   4.737   3.462   9.436  0.4562 -0.7179  0.4460
   51CHL1   C13 6206   4.742   3.284   9.561 -0.6106 -0.5195  0.2141
   51CHL1   C18 6207   4.727   3.130   9.537 -0.3490 -0.6735 -0.1170
   51CHL1  H18A 6208   4.700   3.085   9.635  0.1147 -0.0139  0.3198
   51CHL1  H18B 6209   4.648   3.116   9.460 -0.0850  1.6587 -0.9102
   51CHL1  H18C 6210   4.819   3.082   9.497  1.1077  1.4308  0.5271
   51CHL1   C12 6211   4.865   3.320   9.639 -0.0433  0.3558  0.3763
   51CHL1  H12A 6212   4.949   3.260   9.599 -0.2074 -1.7768  2.9467
   51CHL1  H12B 6213   4.885   3.429   9.642  0.8238  0.1857  1.5731
   51CHL1   C11 6214   4.856   3.273   9.785 -0.3247  0.2131 -0.3700
   51CHL1  H11A 6215   4.858   3.162   9.781  2.1949  0.1788 -0.1600
   51CHL1  H11B 6216   4.951   3.294   9.839  0.5957 -1.3796 -1.2886
   51CHL1    C9 6217   4.731   3.324   9.862 -0.2621 -0.3844  1.0530
   51CHL1    H9 6218   4.746   3.434   9.872  0.7279 -0.4041 -0.1014
   51CHL1   C10 6219   4.718   3.275  10.005 -0.9193  0.4435 -0.2646
   51CHL1   C19 6220   4.730   3.121  10.010  0.0049 -0.8520  0.1798
   51CHL1  H19A 6221   4.824   3.077   9.970  0.1522 -0.1907 -0.2045
   51CHL1  H19B 6222   4.704   3.096  10.115 -1.3297  1.9064  0.5927
   51CHL1  H19C 6223   4.651   3.076   9.945 -0.0537  0.5553 -0.7593
   51CHL1    C1 6224   4.830   3.333  10.098 -0.1653  0.8385 -0.4677
   51CHL1   H1A 6225   4.930   3.294  10.070 -0.6998  0.0981 -1.4396
   51CHL1   H1B 6226   4.839   3.441  10.073 -0.2233  0.5685 -1.7217
   51CHL1    C2 6227   4.827   3.311  10.251 -0.1869  0.1544  0.0336
   51CHL1   H2A 6228   4.898   3.381  10.299 -0.8945 -0.1434  1.5467
   51CHL1   H2B 6229   4.838   3.201  10.265  1.3542 -0.0593 -2.2314
   51CHL1   C20 6230   4.793   3.305   9.298 -0.0451 -0.1519 -0.0265
   51CHL1   H20 6231   4.768   3.198   9.286 -0.4370 -0.1347  0.6227
   51CHL1   C21 6232   4.935   3.320   9.329  0.1185  0.3136  0.0599
   51CHL1  H21A 6233   4.999   3.318   9.238  0.9475 -0.6102  0.6307
   51CHL1  H21B 6234   4.969   3.234   9.391 -0.3910  0.8431  1.0908
   51CHL1  H21C 6235   4.958   3.419   9.373 -0.1631  0.6405 -0.5185
   51CHL1   C22 6236   4.749   3.373   9.169 -0.7451  0.1401  0.0768
   51CHL1  H22A 6237   4.640   3.364   9.154 -0.2827 -3.9382 -2.3303
   51CHL1  H22B 6238   4.775   3.481   9.170 -2.8585  0.6896  0.8393
   51CHL1   C23 6239   4.808   3.318   9.044 -0.1487  0.7193 -0.8351
   51CHL1  H23A 6240   4.919   3.326   9.049  0.3516 -2.1559 -3.8380
   51CHL1  H23B 6241   4.781   3.212   9.024  1.6882  0.2178 -0.8667
   51CHL1   C24 6242   4.774   3.409   8.933 -0.1758 -0.0784  0.6955
   51CHL1  H24A 6243   4.677   3.459   8.953 -0.4020 -0.1838 -0.1331
   51CHL1  H24B 6244   4.840   3.497   8.941  0.2759 -0.0013 -2.5327
   51CHL1   C25 6245   4.801   3.346   8.798  0.3564  0.9245 -0.0370
   51CHL1   H25 6246   4.907   3.315   8.782  0.1066 -0.4893  0.8915
   51CHL1   C26 6247   4.715   3.225   8.764  0.0747  0.1589 -0.3544
   51CHL1  H26A 6248   4.739   3.138   8.829 -2.6978 -0.7487 -0.4088
   51CHL1  H26B 6249   4.615   3.253   8.803 -0.1789 -2.3144  0.9272
   51CHL1  H26C 6250   4.716   3.196   8.656  1.7356 -0.7106 -0.1242
   51CHL1   C27 6251   4.752   3.457   8.699 -0.1887  0.5512  0.4039
   51CHL1  H27A 6252   4.651   3.499   8.720  0.0459  0.7885  1.1051
   51CHL1  H27B 6253   4.819   3.547   8.698 -0.5505  0.8225  0.5019
   51CHL1  H27C 6254   4.749   3.404   8.601 -1.2778  1.3900 -0.0403
   52CHL1    C3 6255   2.667   0.248   9.928  0.3011 -0.2656  0.1446
   52CHL1    H3 6256   2.746   0.315   9.888 -0.2414 -0.6501 -1.6596
   52CHL1    O3 6257   2.624   0.314  10.043  0.2200  0.2149 -0.2289
   52CHL1   H3' 6258   2.584   0.242  10.093  4.1432 -1.5233  0.7879
   52CHL1    C4 6259   2.553   0.231   9.829 -0.4305  0.0770 -0.3402
   52CHL1   H4A 6260   2.472   0.168   9.870 -0.8350  0.9253  0.2073
   52CHL1   H4B 6261   2.507   0.331   9.810  1.7145  1.3798  0.8287
   52CHL1    C5 6262   2.614   0.170   9.700 -0.6227  0.2829 -1.4017
   52CHL1    C6 6263   2.616   0.245   9.585  0.2718 -0.2009 -0.5041
   52CHL1    H6 6264   2.568   0.343   9.593 -4.8855 -2.5268  2.1447
   52CHL1    C7 6265   2.660   0.187   9.454  0.0311  0.4706 -0.0072
   52CHL1   H7A 6266   2.590   0.208   9.371  1.4137  0.5769 -1.1878
   52CHL1   H7B 6267   2.750   0.248   9.429  0.4342  1.7539  3.8781
   52CHL1    C8 6268   2.677   0.035   9.459  0.2961  0.7304  0.2264
   52CHL1    H8 6269   2.579  -0.016   9.449  2.0098 -2.6911 -0.8386
   52CHL1   C14 6270   2.755  -0.015   9.337 -0.2792  0.4720  0.1423
   52CHL1   H14 6271   2.858   0.024   9.349  0.9799 -2.5693  0.0960
   52CHL1   C15 6272   2.708   0.033   9.203  0.6310 -0.8275 -0.1890
   52CHL1  H15A 6273   2.598   0.017   9.205  0.5139 -0.0128  2.1035
   52CHL1  H15B 6274   2.731   0.139   9.179 -1.0122 -0.5796 -0.8688
   52CHL1   C16 6275   2.780  -0.057   9.116  0.0986 -0.5185  0.9566
   52CHL1  H16A 6276   2.708  -0.099   9.043  2.6305 -1.7351 -0.9880
   52CHL1  H16B 6277   2.851  -0.003   9.050 -2.2941  0.3489 -1.0552
   52CHL1   C17 6278   2.847  -0.175   9.188  0.3057  0.4022 -0.3194
   52CHL1   H17 6279   2.956  -0.160   9.200  0.3246 -0.7541  1.3575
   52CHL1   C13 6280   2.773  -0.171   9.327  0.0918  0.3151 -0.0727
   52CHL1   C18 6281   2.640  -0.247   9.310 -0.2208  0.2237 -0.4136
   52CHL1  H18A 6282   2.575  -0.231   9.399 -0.3182  0.5527 -0.5425
   52CHL1  H18B 6283   2.584  -0.203   9.225  1.0912  0.9448 -0.9260
   52CHL1  H18C 6284   2.648  -0.358   9.300  1.4833  0.2026  0.7936
   52CHL1   C12 6285   2.858  -0.204   9.447 -0.2227  0.4875 -0.0966
   52CHL1  H12A 6286   2.871  -0.314   9.456  0.7898  0.6619  0.7594
   52CHL1  H12B 6287   2.960  -0.163   9.428 -0.7765  1.0521 -2.0547
   52CHL1   C11 6288   2.788  -0.170   9.580  0.3165 -0.3306 -0.0680
   52CHL1  H11A 6289   2.692  -0.226   9.585  0.3602 -0.4775 -0.7548
   52CHL1  H11B 6290   2.851  -0.198   9.667 -0.2370  1.1529  0.8293
   52CHL1    C9 6291   2.744  -0.016   9.592 -1.0593 -0.0588  0.6197
   52CHL1    H9 6292   2.840   0.040   9.591 -1.3050  0.3643 -0.3730
   52CHL1   C10 6293   2.670   0.028   9.717 -0.4198 -0.5868 -0.2229
   52CHL1   C19 6294   2.565  -0.073   9.750  0.2631  0.3686 -0.5274
   52CHL1  H19A 6295   2.616  -0.169   9.773 -1.2166 -0.0520  1.3146
   52CHL1  H19B 6296   2.496  -0.042   9.831 -0.4203  0.7596 -1.2462
   52CHL1  H19C 6297   2.498  -0.095   9.664  0.8230  1.3239 -1.2250
   52CHL1    C1 6298   2.774   0.038   9.828 -0.1871  0.0930  0.2407
   52CHL1   H1A 6299   2.811  -0.064   9.851 -0.4939 -0.3005 -0.9522
   52CHL1   H1B 6300   2.861   0.093   9.787 -0.9394  0.9786 -0.2084
   52CHL1    C2 6301   2.731   0.115   9.957  0.4268  0.6326 -0.1488
   52CHL1   H2A 6302   2.813   0.141  10.026 -0.8321  2.6878  0.6565
   52CHL1   H2B 6303   2.649   0.057  10.006  0.5502 -0.6598 -1.3924
   52CHL1   C20 6304   2.849  -0.306   9.116 -0.1261 -0.3564  0.3766
   52CHL1   H20 6305   2.746  -0.339   9.088 -0.1190 -1.5861  1.6939
   52CHL1   C21 6306   2.898  -0.422   9.202 -0.5064 -0.3647 -0.0063
   52CHL1  H21A 6307   2.909  -0.515   9.142 -0.3296 -1.1514  1.2035
   52CHL1  H21B 6308   2.833  -0.458   9.285 -0.0999  1.0140  0.9390
   52CHL1  H21C 6309   2.998  -0.394   9.243  1.0856 -3.4213 -1.4733
   52CHL1   C22 6310   2.945  -0.304   8.994 -0.3623  0.0473  0.9003
   52CHL1  H22A 6311   3.040  -0.251   9.014 -1.4990  1.6524  2.2978
   52CHL1  H22B 6312   2.965  -0.412   8.976 -1.0632 -0.0480  0.6490
   52CHL1   C23 6313   2.897  -0.248   8.862 -0.6911 -0.2736  0.1502
   52CHL1  H23A 6314   2.856  -0.338   8.811 -0.1041 -1.3016  1.4375
   52CHL1  H23B 6315   2.820  -0.171   8.883  0.1221  1.3538 -2.4351
   52CHL1   C24 6316   3.007  -0.183   8.771  0.1059  0.0527 -0.2072
   52CHL1  H24A 6317   3.072  -0.105   8.816  1.7943 -0.2356 -2.0031
   52CHL1  H24B 6318   3.070  -0.273   8.753  0.6889  0.6421 -1.1606
   52CHL1   C25 6319   2.961  -0.111   8.638 -0.0155  1.6170  0.0609
   52CHL1   H25 6320   3.049  -0.074   8.580  0.5621 -0.2468 -0.3220
   52CHL1   C26 6321   2.901  -0.233   8.547 -0.1940 -0.5128 -0.1607
   52CHL1  H26A 6322   2.825  -0.295   8.599 -0.6640  1.7827  2.0725
   52CHL1  H26B 6323   2.848  -0.177   8.466  1.4820 -0.1460 -1.0490
   52CHL1  H26C 6324   2.976  -0.302   8.503 -0.6962 -0.5136 -1.0424
   52CHL1   C27 6325   2.865   0.001   8.679 -0.9675 -0.2294 -0.2848
   52CHL1  H27A 6326   2.867   0.070   8.592  1.8798 -0.6180 -0.6363
   52CHL1  H27B 6327   2.763  -0.037   8.701 -0.9426  0.5706  1.3272
   52CHL1  H27C 6328   2.905   0.070   8.756  1.6333  0.2696 -1.9640
   53CHL1    C3 6329   2.603   6.547  10.080 -0.7860  0.4510 -0.6127
   53CHL1    H3 6330   2.599   6.640  10.019 -1.4333  0.3122 -0.7891
   53CHL1    O3 6331   2.608   6.589  10.218  0.1073  0.4276  0.1714
   53CHL1   H3' 6332   2.525   6.635  10.233 -0.9371 -1.3836  0.2332
   53CHL1    C4 6333   2.482   6.458  10.051  0.5561  0.0523  0.1591
   53CHL1   H4A 6334   2.489   6.373  10.123 -2.0854 -0.8531 -0.5251
   53CHL1   H4B 6335   2.391   6.512  10.084  0.2791 -0.3196  0.0193
   53CHL1    C5 6336   2.474   6.414   9.909  1.1677 -0.2417  0.4604
   53CHL1    C6 6337   2.371   6.440   9.830 -0.3990  0.5917  0.2061
   53CHL1    H6 6338   2.291   6.506   9.868  0.1578  0.5697  1.4848
   53CHL1    C7 6339   2.364   6.383   9.694 -0.3520  0.0336  0.2493
   53CHL1   H7A 6340   2.262   6.357   9.659  0.5374 -3.8534  0.1227
   53CHL1   H7B 6341   2.393   6.467   9.627 -1.7150 -0.7417 -1.3864
   53CHL1    C8 6342   2.470   6.263   9.663 -0.0359 -0.0914 -0.1478
   53CHL1    H8 6343   2.434   6.164   9.699 -0.2731  0.3800  0.9520
   53CHL1   C14 6344   2.478   6.257   9.510 -0.1720 -0.6917  0.3440
   53CHL1   H14 6345   2.516   6.352   9.467 -0.1407  0.2501  2.3580
   53CHL1   C15 6346   2.353   6.233   9.431  0.6941 -0.7821  0.6390
   53CHL1  H15A 6347   2.304   6.150   9.486 -1.2897 -0.4445 -0.5175
   53CHL1  H15B 6348   2.290   6.323   9.414  0.4963 -1.2233 -1.2327
   53CHL1   C16 6349   2.400   6.185   9.293  0.2502  0.0402 -0.2527
   53CHL1  H16A 6350   2.345   6.096   9.257  1.6867 -2.5168  3.2278
   53CHL1  H16B 6351   2.404   6.268   9.220  0.6425  0.4264  0.1964
   53CHL1   C17 6352   2.555   6.161   9.301 -0.0695  0.5276 -0.2639
   53CHL1   H17 6353   2.603   6.253   9.263 -2.3963  1.4130 -1.2649
   53CHL1   C13 6354   2.581   6.162   9.453  0.3387  0.7217  0.0754
   53CHL1   C18 6355   2.552   6.014   9.500  0.1473  0.4964 -0.2058
   53CHL1  H18A 6356   2.560   6.015   9.610  1.4213  1.6706 -0.2733
   53CHL1  H18B 6357   2.448   5.982   9.479  0.5439  0.2384 -1.9417
   53CHL1  H18C 6358   2.618   5.941   9.448  0.1269  1.9350 -2.4404
   53CHL1   C12 6359   2.717   6.206   9.504  0.4742  0.4641 -0.5130
   53CHL1  H12A 6360   2.800   6.138   9.474  1.2439  0.3756  1.6685
   53CHL1  H12B 6361   2.752   6.306   9.471  1.1574  0.0306 -1.1421
   53CHL1   C11 6362   2.717   6.214   9.658 -0.4544 -0.6457 -0.2728
   53CHL1  H11A 6363   2.699   6.109   9.692 -1.0899 -0.3471  0.3272
   53CHL1  H11B 6364   2.819   6.239   9.694 -0.4684 -2.2139  0.9670
   53CHL1    C9 6365   2.602   6.303   9.719  0.0518  0.0301  0.0912
   53CHL1    H9 6366   2.624   6.397   9.665  0.5446 -0.6133 -0.8580
   53CHL1   C10 6367   2.602   6.333   9.865 -0.8091  0.4785  0.3525
   53CHL1   C19 6368   2.611   6.201   9.949  0.1934  0.3911 -0.6781
   53CHL1  H19A 6369   2.517   6.144   9.932 -0.5130  1.3039  0.1046
   53CHL1  H19B 6370   2.705   6.143   9.933  0.2036 -0.2641  1.4349
   53CHL1  H19C 6371   2.603   6.221  10.058  1.2974 -4.5998  0.5804
   53CHL1    C1 6372   2.730   6.424   9.899 -0.5315  0.7571  0.3678
   53CHL1   H1A 6373   2.815   6.353   9.895 -0.6678  0.5573  0.9349
   53CHL1   H1B 6374   2.755   6.492   9.815  1.2518  1.8394  1.6908
   53CHL1    C2 6375   2.731   6.482  10.043  0.1539 -0.4559 -0.9437
   53CHL1   H2A 6376   2.818   6.550  10.054 -1.3251  1.9049 -2.9231
   53CHL1   H2B 6377   2.760   6.396  10.107  0.6767 -1.0972 -2.0061
   53CHL1   C20 6378   2.624   6.056   9.207 -0.4040 -0.2914 -0.6110
   53CHL1   H20 6379   2.574   5.961   9.234  0.7716 -0.0088  3.1587
   53CHL1   C21 6380   2.772   6.030   9.226 -0.5235 -0.6092 -0.5316
   53CHL1  H21A 6381   2.824   6.116   9.178  0.8125 -0.6110  0.8271
   53CHL1  H21B 6382   2.805   5.937   9.175 -1.1415 -1.0397 -0.1568
   53CHL1  H21C 6383   2.801   6.017   9.332 -3.1141 -0.3514  0.2794
   53CHL1   C22 6384   2.588   6.094   9.064 -0.1054  0.4522  0.3876
   53CHL1  H22A 6385   2.478   6.105   9.070 -0.1170  0.4550  0.1888
   53CHL1  H22B 6386   2.636   6.191   9.039  2.1513 -1.2061 -2.2967
   53CHL1   C23 6387   2.634   5.973   8.974  0.5090 -0.2681  0.3377
   53CHL1  H23A 6388   2.744   5.976   8.959  0.4980  0.0654  0.3121
   53CHL1  H23B 6389   2.614   5.879   9.031 -0.0353 -0.6209 -0.4235
   53CHL1   C24 6390   2.566   5.977   8.835 -0.8267  0.0998  0.2830
   53CHL1  H24A 6391   2.471   6.031   8.850 -1.0400 -0.3658  0.6211
   53CHL1  H24B 6392   2.629   6.051   8.781 -3.1061  0.1631 -2.5180
   53CHL1   C25 6393   2.557   5.846   8.755 -0.7130 -0.5076 -0.4029
   53CHL1   H25 6394   2.472   5.793   8.804 -1.0904  1.4186  1.1977
   53CHL1   C26 6395   2.527   5.869   8.601  0.6686 -1.1218 -0.1659
   53CHL1  H26A 6396   2.600   5.937   8.553  0.3665 -1.1412 -0.6657
   53CHL1  H26B 6397   2.528   5.769   8.553 -3.6997 -1.5357  0.1575
   53CHL1  H26C 6398   2.424   5.911   8.591  1.5811  2.4135  3.0616
   53CHL1   C27 6399   2.682   5.763   8.772 -0.2569 -0.1336 -0.0497
   53CHL1  H27A 6400   2.700   5.749   8.880 -0.5111  1.2691  0.1895
   53CHL1  H27B 6401   2.666   5.662   8.729  0.1553  0.6663 -2.2090
   53CHL1  H27C 6402   2.771   5.802   8.718  0.0348 -1.9739 -0.9992
   54CHL1    C3 6403   1.730   1.974  10.000  0.3056 -0.6536 -0.1694
   54CHL1    H3 6404   1.778   2.074   9.994 -1.0155 -0.0545 -1.2800
   54CHL1    O3 6405   1.700   1.940  10.131 -0.1910 -0.3094 -0.3632
   54CHL1   H3' 6406   1.639   2.006  10.167  2.6138  1.4491  1.6116
   54CHL1    C4 6407   1.608   1.976   9.903 -0.1379 -0.5637  0.3063
   54CHL1   H4A 6408   1.550   1.883   9.921  2.3880 -2.0453  1.2495
   54CHL1   H4B 6409   1.549   2.066   9.932 -0.9756 -1.0696  0.1914
   54CHL1    C5 6410   1.656   1.992   9.755  0.1429 -0.1881 -0.1933
   54CHL1    C6 6411   1.628   2.101   9.687  0.6619 -0.4590  0.0542
   54CHL1    H6 6412   1.567   2.183   9.728  1.7609  0.9183 -0.9663
   54CHL1    C7 6413   1.679   2.122   9.553  0.4687  0.2400 -0.2466
   54CHL1   H7A 6414   1.607   2.171   9.483  2.0845  0.9157 -1.5178
   54CHL1   H7B 6415   1.761   2.196   9.568  0.2803  0.3997 -0.0053
   54CHL1    C8 6416   1.718   1.990   9.486  0.4789  0.8645 -0.3886
   54CHL1    H8 6417   1.626   1.931   9.469  0.7036  1.0380 -2.4926
   54CHL1   C14 6418   1.785   2.022   9.352 -0.3392 -0.0263 -0.2046
   54CHL1   H14 6419   1.873   2.083   9.383 -0.8831  0.7853 -0.2114
   54CHL1   C15 6420   1.706   2.109   9.250  0.8127  0.0142 -0.4658
   54CHL1  H15A 6421   1.605   2.064   9.243  1.2647 -1.0523 -0.3835
   54CHL1  H15B 6422   1.695   2.217   9.273 -0.8060 -0.2842  0.2443
   54CHL1   C16 6423   1.774   2.077   9.115  0.4639  0.4680  0.0811
   54CHL1  H16A 6424   1.689   2.044   9.053  1.5310  0.7546 -1.5962
   54CHL1  H16B 6425   1.818   2.174   9.084 -2.1931  1.5356 -0.6363
   54CHL1   C17 6426   1.885   1.975   9.144  0.0250 -0.4215 -0.7314
   54CHL1   H17 6427   1.974   2.029   9.183  0.3966 -1.5267 -0.0017
   54CHL1   C13 6428   1.834   1.902   9.268  0.3825 -0.0847 -0.6910
   54CHL1   C18 6429   1.728   1.804   9.224  0.1467  0.5331  0.0216
   54CHL1  H18A 6430   1.670   1.759   9.307  1.5610 -1.9358 -0.2416
   54CHL1  H18B 6431   1.659   1.846   9.147  1.0104 -0.4694 -1.3478
   54CHL1  H18C 6432   1.777   1.721   9.169 -0.4357 -1.0275  1.7651
   54CHL1   C12 6433   1.935   1.821   9.372  0.4250  0.5222 -0.3006
   54CHL1  H12A 6434   1.974   1.732   9.318  3.2215  1.6462 -0.3323
   54CHL1  H12B 6435   2.025   1.880   9.402  0.5654  0.7630 -1.1539
   54CHL1   C11 6436   1.866   1.780   9.503 -0.2799  0.2601  0.0336
   54CHL1  H11A 6437   1.782   1.709   9.483 -0.6084  1.3551 -2.9304
   54CHL1  H11B 6438   1.936   1.726   9.570  0.8286  1.8956  0.2643
   54CHL1    C9 6439   1.805   1.910   9.575 -1.0362  0.8139  0.5568
   54CHL1    H9 6440   1.897   1.971   9.591  0.1267 -0.4968 -0.7496
   54CHL1   C10 6441   1.745   1.874   9.711 -0.0602 -0.7539 -0.4525
   54CHL1   C19 6442   1.650   1.747   9.698  0.4608  0.0945 -0.1788
   54CHL1  H19A 6443   1.593   1.748   9.603  0.4643  2.8395 -0.2325
   54CHL1  H19B 6444   1.714   1.657   9.693  0.0510 -0.1852 -0.4272
   54CHL1  H19C 6445   1.593   1.729   9.791  0.0344  1.9313 -0.0410
   54CHL1    C1 6446   1.859   1.856   9.813  0.5856 -0.3627 -0.1376
   54CHL1   H1A 6447   1.906   1.756   9.800 -2.0886 -2.4733  3.9911
   54CHL1   H1B 6448   1.936   1.935   9.809 -1.6707  1.9669 -0.5677
   54CHL1    C2 6449   1.828   1.860   9.960 -0.0597  0.3594  0.5977
   54CHL1   H2A 6450   1.919   1.865  10.024  0.1125 -2.0167  0.6039
   54CHL1   H2B 6451   1.778   1.764   9.982  1.8097 -1.4650 -2.4502
   54CHL1   C20 6452   1.936   1.892   9.022  0.5112 -0.4031 -0.9980
   54CHL1   H20 6453   1.845   1.835   8.992 -0.7613 -0.0787  1.9002
   54CHL1   C21 6454   2.040   1.794   9.073  0.1388 -0.4286 -0.6773
   54CHL1  H21A 6455   2.103   1.841   9.152  0.1784 -0.7784 -0.4991
   54CHL1  H21B 6456   2.108   1.759   8.993 -0.2841 -2.7340 -0.0995
   54CHL1  H21C 6457   1.988   1.708   9.120 -0.7015  1.0747  1.3475
   54CHL1   C22 6458   1.986   1.985   8.914  0.3183 -0.2472  0.0266
   54CHL1  H22A 6459   1.904   2.051   8.877 -1.4980 -1.1556  2.2259
   54CHL1  H22B 6460   2.066   2.054   8.948  0.4491 -1.1752  1.6893
   54CHL1   C23 6461   2.050   1.913   8.791 -0.5089  0.7070 -0.5308
   54CHL1  H23A 6462   2.144   1.866   8.826 -0.7105  0.9704  0.3884
   54CHL1  H23B 6463   1.972   1.851   8.742 -1.2481 -0.0481  1.5050
   54CHL1   C24 6464   2.095   2.006   8.682  0.7519 -0.2612 -0.4852
   54CHL1  H24A 6465   2.016   2.062   8.627  0.2980 -2.4177 -2.1216
   54CHL1  H24B 6466   2.166   2.079   8.727 -0.3861  0.4192  0.2770
   54CHL1   C25 6467   2.164   1.937   8.562  0.7520 -0.1362  0.2913
   54CHL1   H25 6468   2.087   1.877   8.510 -1.9874  0.9537  2.8441
   54CHL1   C26 6469   2.199   2.056   8.467 -0.3166  0.1389 -0.1508
   54CHL1  H26A 6470   2.113   2.124   8.447 -0.8087 -0.3309  0.3163
   54CHL1  H26B 6471   2.285   2.104   8.517  1.0573  0.2131 -2.4522
   54CHL1  H26C 6472   2.234   2.023   8.367  1.1720 -0.1109  0.4363
   54CHL1   C27 6473   2.283   1.847   8.597 -0.0719 -0.4775 -0.2037
   54CHL1  H27A 6474   2.322   1.810   8.499 -0.1990 -1.4398  0.1020
   54CHL1  H27B 6475   2.366   1.910   8.637  0.6062 -0.9318 -0.8729
   54CHL1  H27C 6476   2.251   1.766   8.665 -1.4334  1.3332  1.4104
   55CHL1    C3 6477   3.894   6.260   9.892 -0.1728  1.2091  0.6047
   55CHL1    H3 6478   3.995   6.305   9.901  1.1446 -1.5384  0.4115
   55CHL1    O3 6479   3.839   6.288  10.015 -0.3903  0.1811  0.1786
   55CHL1   H3' 6480   3.897   6.242  10.075 -0.7296  1.7430  1.7962
   55CHL1    C4 6481   3.815   6.336   9.782  0.3638  0.2669  0.0069
   55CHL1   H4A 6482   3.705   6.319   9.782  0.3504  0.2826  1.3406
   55CHL1   H4B 6483   3.822   6.443   9.812  1.7788 -0.2132  1.5140
   55CHL1    C5 6484   3.860   6.294   9.642 -0.2390 -0.3828 -0.1190
   55CHL1    C6 6485   3.896   6.388   9.553 -0.4903 -0.4299 -0.1042
   55CHL1    H6 6486   3.884   6.495   9.575  2.2585  0.0862 -0.7378
   55CHL1    C7 6487   3.954   6.349   9.420 -0.4764  0.1869  0.0342
   55CHL1   H7A 6488   3.916   6.424   9.348 -0.7264  1.5540  1.5177
   55CHL1   H7B 6489   4.063   6.367   9.431 -0.9260  1.8739  2.6201
   55CHL1    C8 6490   3.917   6.207   9.371 -0.0163 -0.1037 -0.3088
   55CHL1    H8 6491   3.807   6.195   9.361 -0.1628 -4.8864  3.4857
   55CHL1   C14 6492   3.999   6.167   9.247  0.3574 -0.0843  0.3377
   55CHL1   H14 6493   4.100   6.160   9.291  0.1591  1.0131  1.0060
   55CHL1   C15 6494   4.021   6.271   9.135  0.6894 -0.7120  0.1013
   55CHL1  H15A 6495   3.920   6.297   9.097  1.1537  1.2983  0.1223
   55CHL1  H15B 6496   4.065   6.371   9.155 -0.1063 -0.0174 -1.4778
   55CHL1   C16 6497   4.100   6.192   9.034  0.2394 -0.0245 -0.3048
   55CHL1  H16A 6498   4.067   6.210   8.930  2.6646  1.6935 -0.8449
   55CHL1  H16B 6499   4.204   6.231   9.023  0.7286 -0.5627  1.7961
   55CHL1   C17 6500   4.098   6.038   9.083  0.7345 -0.0935 -0.1936
   55CHL1   H17 6501   4.201   6.018   9.120  0.9952  2.7763  0.9508
   55CHL1   C13 6502   3.986   6.029   9.190 -0.3889 -0.3972  0.6921
   55CHL1   C18 6503   3.846   6.039   9.119 -0.1838  0.0304 -0.4070
   55CHL1  H18A 6504   3.768   6.064   9.195 -0.4407  2.8391 -1.4705
   55CHL1  H18B 6505   3.843   6.116   9.039  1.6462  0.1240 -0.4351
   55CHL1  H18C 6506   3.840   5.935   9.081  0.3843  0.4830 -1.7957
   55CHL1   C12 6507   3.995   5.927   9.312 -0.1876 -0.3939  0.1556
   55CHL1  H12A 6508   3.962   5.824   9.288  0.0825 -0.5525  0.4528
   55CHL1  H12B 6509   4.101   5.916   9.343 -0.6867  0.0097  2.1139
   55CHL1   C11 6510   3.902   5.962   9.431  0.5000 -0.1571 -0.0748
   55CHL1  H11A 6511   3.796   5.963   9.398 -0.0384  0.3256  1.5276
   55CHL1  H11B 6512   3.917   5.881   9.506  0.3756 -0.2953 -0.1993
   55CHL1    C9 6513   3.944   6.103   9.482  0.0463  0.1478  0.5163
   55CHL1    H9 6514   4.052   6.106   9.508  0.3104  1.1757 -0.5943
   55CHL1   C10 6515   3.874   6.140   9.612  0.1924 -0.3249  0.6492
   55CHL1   C19 6516   3.729   6.075   9.620 -0.3464  0.7681  0.2456
   55CHL1  H19A 6517   3.667   6.079   9.529 -0.1126 -2.1977 -0.1426
   55CHL1  H19B 6518   3.738   5.967   9.645 -0.1115  0.4017 -1.3243
   55CHL1  H19C 6519   3.678   6.115   9.710  1.4848 -2.8293  3.1491
   55CHL1    C1 6520   3.970   6.087   9.721  0.0034 -0.0705  0.0285
   55CHL1   H1A 6521   3.994   5.980   9.705  1.3203  0.5132 -2.3016
   55CHL1   H1B 6522   4.070   6.134   9.717  0.5680 -1.3262 -2.4695
   55CHL1    C2 6523   3.913   6.109   9.863 -0.2525 -0.0733  0.5187
   55CHL1   H2A 6524   3.986   6.071   9.937  0.2439  1.8991  1.1065
   55CHL1   H2B 6525   3.814   6.059   9.879  0.0217 -0.7285  0.1945
   55CHL1   C20 6526   4.091   5.947   8.957  0.2916 -0.2804 -0.6821
   55CHL1   H20 6527   3.996   5.975   8.907  0.3164  0.6057 -0.2476
   55CHL1   C21 6528   4.084   5.802   9.013  0.3882  0.5477  0.6532
   55CHL1  H21A 6529   3.985   5.777   9.057  0.7925 -1.0111  0.7513
   55CHL1  H21B 6530   4.164   5.798   9.089  1.0154  2.2011  0.1080
   55CHL1  H21C 6531   4.106   5.724   8.937  0.1569 -0.4381  1.5723
   55CHL1   C22 6532   4.210   5.959   8.849  0.4530  0.3996  0.0945
   55CHL1  H22A 6533   4.217   6.069   8.833 -3.3605  0.5574 -1.6259
   55CHL1  H22B 6534   4.299   5.911   8.895  1.2062  0.2295 -1.4603
   55CHL1   C23 6535   4.191   5.907   8.706  0.6170  0.1241  0.1925
   55CHL1  H23A 6536   4.176   5.798   8.720 -1.5289  0.2790 -0.4999
   55CHL1  H23B 6537   4.095   5.940   8.661  0.8788 -0.4021 -0.7839
   55CHL1   C24 6538   4.304   5.939   8.603  0.4905 -0.3470  0.5204
   55CHL1  H24A 6539   4.336   6.045   8.591  5.1341 -1.4938  0.8389
   55CHL1  H24B 6540   4.397   5.887   8.634  0.9348  0.2003  0.1397
   55CHL1   C25 6541   4.265   5.898   8.460 -0.2982  0.0662  0.0447
   55CHL1   H25 6542   4.191   5.971   8.421  0.8470 -0.3765 -3.3003
   55CHL1   C26 6543   4.386   5.916   8.367 -0.3832  0.6848  0.3885
   55CHL1  H26A 6544   4.408   6.025   8.359  1.5215  0.2382 -1.5268
   55CHL1  H26B 6545   4.473   5.854   8.397 -0.1834  0.6759 -0.1889
   55CHL1  H26C 6546   4.348   5.886   8.267 -2.1838  0.7251  1.0254
   55CHL1   C27 6547   4.218   5.755   8.447  0.1789  0.6455 -0.9629
   55CHL1  H27A 6548   4.120   5.736   8.496 -0.1002  0.9629 -1.3955
   55CHL1  H27B 6549   4.197   5.723   8.343 -0.9435  1.9661 -1.1757
   55CHL1  H27C 6550   4.303   5.692   8.482  0.5672  2.8829  2.6536
   56CHL1    C3 6551   0.646   4.267   9.967  0.0046  0.3929 -0.0399
   56CHL1    H3 6552   0.547   4.274   9.916 -0.3567  4.0271  0.8817
   56CHL1    O3 6553   0.642   4.174  10.079  0.0473 -0.0521 -0.2791
   56CHL1   H3' 6554   0.553   4.158  10.110 -0.0311 -0.1702 -0.5606
   56CHL1    C4 6555   0.749   4.218   9.868  0.0835  0.2129  0.0923
   56CHL1   H4A 6556   0.849   4.218   9.917 -0.2304  3.1727  0.9505
   56CHL1   H4B 6557   0.731   4.117   9.826  2.9625 -1.3972  2.3758
   56CHL1    C5 6558   0.751   4.318   9.751 -0.4774  0.5453  0.0183
   56CHL1    C6 6559   0.719   4.275   9.627 -0.6016  0.0002 -0.6283
   56CHL1    H6 6560   0.697   4.170   9.605  1.6985 -0.2770 -1.8613
   56CHL1    C7 6561   0.719   4.366   9.510 -0.0770 -0.1262 -0.4754
   56CHL1   H7A 6562   0.758   4.332   9.411 -0.0831  1.5553 -1.1075
   56CHL1   H7B 6563   0.611   4.388   9.495 -0.2918  0.9039  2.1672
   56CHL1    C8 6564   0.796   4.498   9.528 -0.7257 -0.3122  0.0691
   56CHL1    H8 6565   0.907   4.489   9.528 -0.7108 -0.4231 -1.3453
   56CHL1   C14 6566   0.756   4.605   9.421 -0.5061 -0.0432 -0.0542
   56CHL1   H14 6567   0.650   4.637   9.435 -0.5623 -0.8707  1.5891
   56CHL1   C15 6568   0.767   4.567   9.273 -0.5038  0.2119 -0.2242
   56CHL1  H15A 6569   0.872   4.533   9.259  0.4730  2.9290 -0.1634
   56CHL1  H15B 6570   0.706   4.479   9.242 -2.3139  0.3937  2.4953
   56CHL1   C16 6571   0.757   4.701   9.200  0.6035 -0.4951 -0.8205
   56CHL1  H16A 6572   0.830   4.710   9.117 -2.1607 -2.1124 -3.6142
   56CHL1  H16B 6573   0.654   4.704   9.161 -0.2545 -0.1319  1.3040
   56CHL1   C17 6574   0.775   4.813   9.304  0.6196  0.1681 -0.3175
   56CHL1   H17 6575   0.672   4.845   9.330  1.1220  2.1524 -0.6593
   56CHL1   C13 6576   0.829   4.736   9.434 -0.4192 -0.3839  0.5869
   56CHL1   C18 6577   0.979   4.719   9.414  0.4848 -0.2165  0.1791
   56CHL1  H18A 6578   1.020   4.822   9.422  0.1035 -0.1728  1.8845
   56CHL1  H18B 6579   1.024   4.662   9.497  1.1167  0.6756  0.4635
   56CHL1  H18C 6580   1.004   4.668   9.318  0.2229  0.1699 -0.0994
   56CHL1   C12 6581   0.792   4.799   9.569 -0.3788  0.4981 -0.5143
   56CHL1  H12A 6582   0.860   4.885   9.588 -0.4543  0.4467  0.0132
   56CHL1  H12B 6583   0.685   4.829   9.578  0.2460  2.2476  2.0527
   56CHL1   C11 6584   0.819   4.701   9.688 -0.4044 -0.1652 -0.5724
   56CHL1  H11A 6585   0.930   4.689   9.698 -0.4461  0.8028  1.5015
   56CHL1  H11B 6586   0.794   4.747   9.785  0.9240  0.6126 -0.5645
   56CHL1    C9 6587   0.754   4.555   9.668  0.2216 -0.4027 -0.4886
   56CHL1    H9 6588   0.645   4.572   9.664  0.2634 -0.3431 -1.9422
   56CHL1   C10 6589   0.782   4.460   9.786 -0.0491 -0.8797 -0.5653
   56CHL1   C19 6590   0.929   4.476   9.836 -0.1189 -0.9541 -0.0386
   56CHL1  H19A 6591   0.953   4.578   9.871 -1.3457 -0.1020 -1.5711
   56CHL1  H19B 6592   0.957   4.413   9.924  0.5976  1.1115  1.2825
   56CHL1  H19C 6593   0.997   4.453   9.752  0.1727  1.1886 -0.4400
   56CHL1    C1 6594   0.689   4.508   9.903  0.0273 -0.1461 -0.2616
   56CHL1   H1A 6595   0.726   4.605   9.942  1.4557 -0.9838  0.5610
   56CHL1   H1B 6596   0.584   4.536   9.881 -0.1049 -0.6469 -0.2927
   56CHL1    C2 6597   0.687   4.402  10.018 -0.1162 -0.4036 -0.6339
   56CHL1   H2A 6598   0.618   4.425  10.102 -0.2310  0.8351 -1.0586
   56CHL1   H2B 6599   0.791   4.389  10.056  0.9802  0.9831 -2.9574
   56CHL1   C20 6600   0.853   4.933   9.253 -1.2060 -0.4975  0.5175
   56CHL1   H20 6601   0.956   4.907   9.222 -0.7649  3.0227 -1.5338
   56CHL1   C21 6602   0.858   5.045   9.360  0.9612  0.1209 -0.6228
   56CHL1  H21A 6603   0.893   5.144   9.325 -0.0791  0.4021 -0.9012
   56CHL1  H21B 6604   0.926   5.010   9.440 -0.4653 -0.3750  0.4179
   56CHL1  H21C 6605   0.764   5.061   9.418  1.6341 -0.6667  0.7405
   56CHL1   C22 6606   0.795   4.986   9.113  0.1290  0.0979 -0.2031
   56CHL1  H22A 6607   0.792   4.903   9.039  0.0249  1.1654 -1.4273
   56CHL1  H22B 6608   0.689   5.017   9.125  0.4453  1.0334  0.1964
   56CHL1   C23 6609   0.873   5.096   9.041 -0.9823 -0.5065  0.6412
   56CHL1  H23A 6610   0.864   5.191   9.098  4.7008  2.3244 -2.3679
   56CHL1  H23B 6611   0.982   5.073   9.043 -1.1035 -1.2381 -0.2669
   56CHL1   C24 6612   0.840   5.109   8.892  0.9040  0.5668 -0.9225
   56CHL1  H24A 6613   0.915   5.180   8.849  2.5240 -0.5692 -0.1073
   56CHL1  H24B 6614   0.849   5.011   8.840 -1.1947 -0.3251  0.3068
   56CHL1   C25 6615   0.706   5.178   8.853  0.1313  0.1637  0.1509
   56CHL1   H25 6616   0.682   5.258   8.926 -0.3221  0.4761 -0.3330
   56CHL1   C26 6617   0.719   5.265   8.722  0.1806 -0.1653 -0.8951
   56CHL1  H26A 6618   0.770   5.195   8.653 -1.3526 -2.5271  0.2085
   56CHL1  H26B 6619   0.619   5.301   8.689 -1.3948  0.0537  3.3880
   56CHL1  H26C 6620   0.790   5.349   8.734 -0.0808 -0.2180  1.6410
   56CHL1   C27 6621   0.595   5.077   8.832 -1.4400 -0.8464 -0.2563
   56CHL1  H27A 6622   0.502   5.133   8.812 -0.4782  0.4375 -1.2713
   56CHL1  H27B 6623   0.611   5.029   8.733 -1.4486 -3.3005  0.8604
   56CHL1  H27C 6624   0.589   4.990   8.902  2.2955 -2.5062 -1.6932
   57CHL1    C3 6625   4.587   0.313  10.203  0.0240 -0.1617 -0.3913
   57CHL1    H3 6626   4.645   0.224  10.174  0.2707 -0.5679  1.2252
   57CHL1    O3 6627   4.589   0.319  10.340  0.2415 -0.0192 -0.1395
   57CHL1   H3' 6628   4.556   0.405  10.365  2.3570  0.3659  1.6569
   57CHL1    C4 6629   4.650   0.445  10.146 -1.0882  0.4190 -0.2897
   57CHL1   H4A 6630   4.586   0.527  10.186 -0.1891  1.1482 -0.3176
   57CHL1   H4B 6631   4.750   0.451  10.195 -1.2640 -0.2290  0.1764
   57CHL1    C5 6632   4.664   0.439   9.992  1.4645  0.4962 -0.5344
   57CHL1    C6 6633   4.780   0.455   9.928 -0.4360 -0.0371  0.2933
   57CHL1    H6 6634   4.879   0.467   9.975  0.4768 -0.3619 -1.4385
   57CHL1    C7 6635   4.783   0.457   9.774  0.3763 -0.4446  0.5938
   57CHL1   H7A 6636   4.850   0.537   9.736  0.8605 -0.9170  0.4435
   57CHL1   H7B 6637   4.821   0.363   9.729 -2.1216 -0.1183 -2.5480
   57CHL1    C8 6638   4.646   0.482   9.703 -0.3728  0.4181 -0.1798
   57CHL1    H8 6639   4.626   0.590   9.714  2.2837  0.9634  0.1010
   57CHL1   C14 6640   4.649   0.458   9.557 -0.1393 -0.0493  0.2066
   57CHL1   H14 6641   4.672   0.351   9.542  1.0658  0.2707 -0.3730
   57CHL1   C15 6642   4.758   0.522   9.463  0.0968  0.1702  0.1633
   57CHL1  H15A 6643   4.771   0.632   9.477 -2.3222  1.0023 -2.8832
   57CHL1  H15B 6644   4.858   0.476   9.479 -0.3626 -0.6824  0.6082
   57CHL1   C16 6645   4.711   0.488   9.323 -0.3128 -0.0717 -0.4360
   57CHL1  H16A 6646   4.719   0.570   9.249 -0.5564  1.2671  0.9670
   57CHL1  H16B 6647   4.762   0.394   9.293 -1.2247 -0.9574  0.7004
   57CHL1   C17 6648   4.555   0.451   9.336 -0.5076  0.2988 -0.7753
   57CHL1   H17 6649   4.544   0.342   9.321 -3.1901  0.2587  0.8887
   57CHL1   C13 6650   4.513   0.478   9.483  0.4455  0.2234  0.1468
   57CHL1   C18 6651   4.475   0.628   9.495  0.1252 -0.1015  0.9568
   57CHL1  H18A 6652   4.392   0.660   9.427 -0.7367  0.2374  2.1449
   57CHL1  H18B 6653   4.443   0.659   9.596 -0.9080  1.0247  0.3190
   57CHL1  H18C 6654   4.564   0.689   9.468  0.1057 -0.7371 -0.7070
   57CHL1   C12 6655   4.415   0.377   9.541 -0.1802 -0.0693 -0.3443
   57CHL1  H12A 6656   4.314   0.393   9.499  0.0752 -1.1315 -1.3916
   57CHL1  H12B 6657   4.451   0.273   9.526 -2.1566 -0.6433 -1.5178
   57CHL1   C11 6658   4.409   0.385   9.698 -0.1254 -0.0290  0.1165
   57CHL1  H11A 6659   4.346   0.473   9.720 -0.2852 -0.5985  2.1425
   57CHL1  H11B 6660   4.350   0.296   9.728 -0.1644 -0.2413 -0.5796
   57CHL1    C9 6661   4.544   0.391   9.772  0.5199 -0.0297 -0.0371
   57CHL1    H9 6662   4.592   0.291   9.760 -0.4582 -0.3490 -1.6327
   57CHL1   C10 6663   4.521   0.419   9.927 -0.5843  0.1280 -0.1606
   57CHL1   C19 6664   4.432   0.544   9.945 -0.2243 -0.0625  0.2651
   57CHL1  H19A 6665   4.434   0.587  10.048 -0.5859  0.5457  0.0242
   57CHL1  H19B 6666   4.455   0.628   9.875  0.8590 -0.6378 -0.0968
   57CHL1  H19C 6667   4.326   0.516   9.928  0.3828 -1.6288 -1.1027
   57CHL1    C1 6668   4.447   0.298   9.997  0.6221  0.0019  0.6685
   57CHL1   H1A 6669   4.341   0.309   9.963 -0.0022  0.1923  2.5548
   57CHL1   H1B 6670   4.473   0.198   9.957  2.7489  1.2124 -1.1655
   57CHL1    C2 6671   4.446   0.299  10.147  0.5912 -0.3372  0.5591
   57CHL1   H2A 6672   4.404   0.201  10.176 -1.6292  0.5095  0.4319
   57CHL1   H2B 6673   4.377   0.381  10.179  2.5841  1.5444  0.3137
   57CHL1   C20 6674   4.468   0.507   9.219 -0.0341  0.4924  0.5251
   57CHL1   H20 6675   4.459   0.617   9.225  2.2722  0.7050  1.1211
   57CHL1   C21 6676   4.331   0.439   9.234  0.4415 -1.0260  0.5858
   57CHL1  H21A 6677   4.269   0.479   9.317 -1.5346 -0.7207 -0.9682
   57CHL1  H21B 6678   4.338   0.329   9.248 -0.8786 -1.0965  0.8446
   57CHL1  H21C 6679   4.271   0.448   9.141  0.6616 -0.8262  0.4618
   57CHL1   C22 6680   4.529   0.478   9.073  0.3811 -0.4556 -0.4856
   57CHL1  H22A 6681   4.618   0.544   9.061 -0.8619  1.0170 -2.0580
   57CHL1  H22B 6682   4.554   0.370   9.068 -0.9316 -0.8017  0.1786
   57CHL1   C23 6683   4.439   0.523   8.947 -0.6032 -0.0300 -1.0057
   57CHL1  H23A 6684   4.361   0.445   8.936 -1.4068  0.1484  2.2060
   57CHL1  H23B 6685   4.384   0.612   8.984 -0.1338 -0.2883  0.3803
   57CHL1   C24 6686   4.522   0.545   8.822 -0.7814 -0.5212  0.9615
   57CHL1  H24A 6687   4.585   0.636   8.832 -0.7029  0.2230 -3.9189
   57CHL1  H24B 6688   4.583   0.452   8.815  1.2472  0.8350 -0.3950
   57CHL1   C25 6689   4.430   0.566   8.701  0.0118  0.4087 -0.0461
   57CHL1   H25 6690   4.368   0.474   8.699  4.3200 -2.8121  0.3704
   57CHL1   C26 6691   4.342   0.688   8.720  0.3557  0.9126  0.0861
   57CHL1  H26A 6692   4.269   0.670   8.802 -0.0964  0.3425 -0.4334
   57CHL1  H26B 6693   4.402   0.781   8.723  0.2344  1.0406 -1.2002
   57CHL1  H26C 6694   4.270   0.699   8.637 -0.4687  2.9007  1.0082
   57CHL1   C27 6695   4.504   0.565   8.569  0.1562 -0.4221 -0.7148
   57CHL1  H27A 6696   4.579   0.483   8.557  1.4889  0.9381 -2.0006
   57CHL1  H27B 6697   4.441   0.563   8.478 -0.7022  0.0979 -0.1418
   57CHL1  H27C 6698   4.570   0.654   8.569  1.8896 -1.4694  3.2145
   58CHL1    C3 6699   6.737   6.534   9.970  0.1499 -0.4269  0.6684
   58CHL1    H3 6700   6.629   6.531   9.944  0.1226  2.2331  0.2808
   58CHL1    O3 6701   6.763   6.533  10.109 -0.5017  0.8959  0.0468
   58CHL1   H3' 6702   6.854   6.504  10.112 -0.8063 -0.0459  0.7229
   58CHL1    C4 6703   6.818   6.418   9.890 -0.4918  0.2502 -0.0779
   58CHL1   H4A 6704   6.922   6.417   9.929 -0.1529 -0.8543 -0.9502
   58CHL1   H4B 6705   6.782   6.319   9.923 -0.7775 -0.0136 -1.1290
   58CHL1    C5 6706   6.812   6.419   9.737  0.3659 -0.4572 -0.3570
   58CHL1    C6 6707   6.776   6.320   9.656  0.4337 -0.2810  0.6798
   58CHL1    H6 6708   6.750   6.223   9.702  0.2524 -0.6730 -0.2240
   58CHL1    C7 6709   6.787   6.325   9.507 -0.3303  0.0668 -0.1333
   58CHL1   H7A 6710   6.851   6.239   9.476  0.9098  0.0277  2.2939
   58CHL1   H7B 6711   6.688   6.337   9.459  0.3634  0.7509 -1.4610
   58CHL1    C8 6712   6.852   6.461   9.457 -0.3171 -0.5648  0.2618
   58CHL1    H8 6713   6.963   6.450   9.463 -0.3156 -2.5899 -1.9654
   58CHL1   C14 6714   6.797   6.477   9.316 -0.2207 -0.4588  0.1070
   58CHL1   H14 6715   6.686   6.480   9.315 -0.2161  2.1081  0.9700
   58CHL1   C15 6716   6.827   6.355   9.231  0.0698 -0.4101  0.2565
   58CHL1  H15A 6717   6.925   6.304   9.245  0.0104 -0.2358  1.3947
   58CHL1  H15B 6718   6.752   6.274   9.245 -0.9993  0.2538 -1.3498
   58CHL1   C16 6719   6.817   6.407   9.086 -0.1970  0.3418  0.4651
   58CHL1  H16A 6720   6.905   6.365   9.032 -1.5951 -2.0970 -0.0882
   58CHL1  H16B 6721   6.725   6.368   9.037 -0.3408  2.0244 -0.6798
   58CHL1   C17 6722   6.810   6.567   9.095  0.9554  0.2734 -0.2114
   58CHL1   H17 6723   6.700   6.584   9.096  0.9829  1.0336  3.1966
   58CHL1   C13 6724   6.859   6.595   9.241 -0.7921 -0.9481 -0.2386
   58CHL1   C18 6725   7.012   6.596   9.235 -0.4438  0.4890  0.1463
   58CHL1  H18A 6726   7.049   6.676   9.167  0.0936 -0.5158 -0.7622
   58CHL1  H18B 6727   7.065   6.614   9.331  2.8151  2.2266 -1.7959
   58CHL1  H18C 6728   7.052   6.499   9.200 -2.2986 -0.3139  0.1413
   58CHL1   C12 6729   6.798   6.715   9.303 -0.2881  0.9888  0.1439
   58CHL1  H12A 6730   6.830   6.813   9.261 -0.0393  0.3970 -1.0807
   58CHL1  H12B 6731   6.688   6.708   9.288 -0.1041  0.4681 -1.0677
   58CHL1   C11 6732   6.825   6.713   9.457 -1.0117  0.3712 -0.3593
   58CHL1  H11A 6733   6.932   6.742   9.466 -0.8229 -0.7606  1.5912
   58CHL1  H11B 6734   6.767   6.787   9.517 -1.0696 -0.0747  0.1470
   58CHL1    C9 6735   6.803   6.578   9.531 -0.0475 -0.4796 -0.3128
   58CHL1    H9 6736   6.693   6.563   9.537 -0.6301  3.3575  0.7789
   58CHL1   C10 6737   6.847   6.566   9.681  0.4357  0.3188  0.3308
   58CHL1   C19 6738   6.995   6.584   9.685 -0.3152 -0.1782  0.3145
   58CHL1  H19A 6739   7.039   6.595   9.786  1.7428 -0.9119 -0.4478
   58CHL1  H19B 6740   7.047   6.492   9.650  0.9376  0.4374  0.5095
   58CHL1  H19C 6741   7.030   6.661   9.613 -0.3750 -1.1271 -0.7665
   58CHL1    C1 6742   6.780   6.680   9.761 -0.0869 -0.5887 -0.3730
   58CHL1   H1A 6743   6.824   6.776   9.726  0.7182 -0.3763  1.1264
   58CHL1   H1B 6744   6.671   6.684   9.744 -0.4205 -0.7966  1.5012
   58CHL1    C2 6745   6.780   6.666   9.910  0.3969 -0.0438 -0.4626
   58CHL1   H2A 6746   6.710   6.743   9.949 -1.3504 -1.9050  0.2565
   58CHL1   H2B 6747   6.879   6.692   9.954 -0.4211 -1.9401  2.8815
   58CHL1   C20 6748   6.878   6.630   8.974 -0.1248 -0.8944 -0.3549
   58CHL1   H20 6749   6.988   6.611   8.976  0.4594  2.1165  0.7753
   58CHL1   C21 6750   6.855   6.785   8.980  0.2792 -1.0619 -0.0217
   58CHL1  H21A 6751   6.893   6.836   8.890  0.8126 -2.2765 -0.5069
   58CHL1  H21B 6752   6.918   6.829   9.060  1.0042 -1.3488 -0.4302
   58CHL1  H21C 6753   6.749   6.804   9.008 -0.0326  0.4575 -2.0636
   58CHL1   C22 6754   6.813   6.575   8.843  0.4449  0.2394 -0.4165
   58CHL1  H22A 6755   6.842   6.468   8.835 -2.6759 -0.6671 -0.8241
   58CHL1  H22B 6756   6.703   6.583   8.853  0.3967  0.8313 -1.3708
   58CHL1   C23 6757   6.854   6.640   8.710  0.8269  0.0763  0.1242
   58CHL1  H23A 6758   6.794   6.733   8.710 -0.2064 -0.5667  0.9647
   58CHL1  H23B 6759   6.965   6.649   8.705  0.7693  1.6347  0.9853
   58CHL1   C24 6760   6.817   6.549   8.596  0.6193 -0.0409 -0.0300
   58CHL1  H24A 6761   6.825   6.610   8.504 -0.5894 -0.3558 -0.3633
   58CHL1  H24B 6762   6.885   6.462   8.600  0.6145 -0.1025 -1.1377
   58CHL1   C25 6763   6.665   6.500   8.596 -0.8438  0.5702 -0.0435
   58CHL1   H25 6764   6.649   6.436   8.686 -1.0225  0.8282  0.1087
   58CHL1   C26 6765   6.564   6.614   8.598  0.6334  0.5689 -0.6591
   58CHL1  H26A 6766   6.574   6.676   8.689 -2.2496 -2.6576  2.1727
   58CHL1  H26B 6767   6.597   6.684   8.519 -0.7717  2.1884  0.1167
   58CHL1  H26C 6768   6.461   6.579   8.574  0.5356  0.7636 -0.5246
   58CHL1   C27 6769   6.635   6.405   8.477  0.1648 -0.2097 -0.2790
   58CHL1  H27A 6770   6.525   6.392   8.485  0.0987  0.6225  0.3030
   58CHL1  H27B 6771   6.647   6.468   8.386  0.3828 -0.4753 -0.4359
   58CHL1  H27C 6772   6.697   6.315   8.464 -1.6126 -1.3934 -0.9932
   59CHL1    C3 6773   4.558   6.198  10.310 -0.4957 -0.3452 -0.2544
   59CHL1    H3 6774   4.560   6.308  10.322  0.1009 -0.2635 -1.0351
   59CHL1    O3 6775   4.548   6.155  10.444 -0.2424  0.1958 -0.1529
   59CHL1   H3' 6776   4.566   6.061  10.446 -0.9821 -0.1740  5.5060
   59CHL1    C4 6777   4.436   6.143  10.241  0.4460 -0.2222  0.4030
   59CHL1   H4A 6778   4.432   6.032  10.238 -0.0909 -0.1938 -1.7290
   59CHL1   H4B 6779   4.344   6.179  10.291 -0.0552 -2.8479  1.4970
   59CHL1    C5 6780   4.433   6.203  10.106 -0.9552  0.3735  0.2647
   59CHL1    C6 6781   4.334   6.281  10.060 -1.1286  0.1805  0.1199
   59CHL1    H6 6782   4.254   6.314  10.128 -0.6994 -0.1280  0.7820
   59CHL1    C7 6783   4.317   6.333   9.917  0.3859  0.0127 -0.2079
   59CHL1   H7A 6784   4.214   6.316   9.880  1.2543 -1.5102 -2.1000
   59CHL1   H7B 6785   4.342   6.441   9.903  2.4807 -0.7253 -3.0341
   59CHL1    C8 6786   4.409   6.257   9.814  0.0376  0.7350  0.5182
   59CHL1    H8 6787   4.363   6.156   9.806  0.8103  0.0546  3.5047
   59CHL1   C14 6788   4.416   6.329   9.676  0.1863  0.1503 -0.4551
   59CHL1   H14 6789   4.450   6.429   9.710 -1.1128  0.1516  0.9431
   59CHL1   C15 6790   4.289   6.344   9.600 -0.3968 -1.0205  0.4941
   59CHL1  H15A 6791   4.247   6.245   9.574  0.1749 -1.0165 -0.5061
   59CHL1  H15B 6792   4.214   6.412   9.645  1.4612  0.6912  1.1446
   59CHL1   C16 6793   4.334   6.390   9.455  0.3530  0.6847  0.2108
   59CHL1  H16A 6794   4.283   6.326   9.379 -0.5910  1.9615 -0.2842
   59CHL1  H16B 6795   4.296   6.488   9.417 -2.8981  0.2046  1.8158
   59CHL1   C17 6796   4.492   6.385   9.456  0.2294  0.3320  0.6390
   59CHL1   H17 6797   4.533   6.483   9.488 -2.1434  0.0566  5.3960
   59CHL1   C13 6798   4.522   6.291   9.571  0.2727  0.0124  0.0968
   59CHL1   C18 6799   4.486   6.144   9.522 -0.4395  0.0235  0.3527
   59CHL1  H18A 6800   4.501   6.069   9.602 -1.4924 -0.4001  0.1731
   59CHL1  H18B 6801   4.385   6.119   9.484 -1.0588  3.7015 -0.8227
   59CHL1  H18C 6802   4.565   6.111   9.452  1.5317  3.4526  0.7035
   59CHL1   C12 6803   4.654   6.303   9.643  0.7281 -0.4978  0.8107
   59CHL1  H12A 6804   4.735   6.264   9.578 -0.2880  0.5351 -1.1597
   59CHL1  H12B 6805   4.679   6.409   9.668  0.7468 -0.1870 -0.4403
   59CHL1   C11 6806   4.663   6.218   9.770 -0.3196 -0.3869  0.6303
   59CHL1  H11A 6807   4.657   6.113   9.736  0.2050 -0.3794  0.4995
   59CHL1  H11B 6808   4.770   6.223   9.799  0.1674 -0.3709 -1.0441
   59CHL1    C9 6809   4.553   6.250   9.874 -0.0449 -0.1455 -0.2840
   59CHL1    H9 6810   4.584   6.349   9.912 -0.7379 -0.6194  1.6623
   59CHL1   C10 6811   4.559   6.167  10.007  0.5915  0.1528 -0.4861
   59CHL1   C19 6812   4.571   6.023   9.971  0.2964  0.3241  0.2058
   59CHL1  H19A 6813   4.665   6.012   9.911 -0.9988  1.4281 -2.1829
   59CHL1  H19B 6814   4.588   5.957  10.059  0.6145 -0.2029 -0.2425
   59CHL1  H19C 6815   4.493   5.974   9.910 -0.6001  2.0032 -0.0621
   59CHL1    C1 6816   4.684   6.219  10.087 -0.3175 -0.0904 -0.5640
   59CHL1   H1A 6817   4.780   6.213  10.032 -0.7147  3.5072 -1.9347
   59CHL1   H1B 6818   4.672   6.328  10.104 -2.1054 -0.2296 -0.7170
   59CHL1    C2 6819   4.684   6.154  10.229  0.5779 -0.3024  0.1555
   59CHL1   H2A 6820   4.773   6.197  10.281 -0.2388  1.7842 -0.0847
   59CHL1   H2B 6821   4.696   6.044  10.242  2.3503 -0.3833 -1.6372
   59CHL1   C20 6822   4.550   6.352   9.322  0.6513  0.6768  0.2829
   59CHL1   H20 6823   4.511   6.257   9.280 -0.0886  1.7575 -1.6122
   59CHL1   C21 6824   4.708   6.345   9.316  0.2961  0.0263 -0.4753
   59CHL1  H21A 6825   4.746   6.446   9.341 -1.9520  0.7331  0.3455
   59CHL1  H21B 6826   4.731   6.320   9.211 -1.3082 -3.1249 -0.2009
   59CHL1  H21C 6827   4.747   6.259   9.375  2.7563  2.1243  1.1859
   59CHL1   C22 6828   4.517   6.468   9.221  0.4184 -0.0978 -0.3661
   59CHL1  H22A 6829   4.412   6.502   9.236  0.1923 -0.8624 -0.1693
   59CHL1  H22B 6830   4.584   6.556   9.231  0.1447  0.0141  0.5592
   59CHL1   C23 6831   4.537   6.416   9.079 -0.1802  0.0622 -0.0156
   59CHL1  H23A 6832   4.646   6.423   9.058 -0.4019 -0.1119 -1.3002
   59CHL1  H23B 6833   4.514   6.308   9.077 -1.0065  0.1954  1.1120
   59CHL1   C24 6834   4.449   6.483   8.979 -0.5135 -0.0577 -1.3425
   59CHL1  H24A 6835   4.347   6.476   9.021  0.9965 -1.9397  2.4823
   59CHL1  H24B 6836   4.474   6.591   8.989  0.3935 -0.3849  0.3715
   59CHL1   C25 6837   4.466   6.425   8.839  0.2230  0.0800 -0.0551
   59CHL1   H25 6838   4.465   6.314   8.851  1.0476 -0.0845 -1.3913
   59CHL1   C26 6839   4.359   6.468   8.734 -0.1768  0.0680  0.5520
   59CHL1  H26A 6840   4.345   6.578   8.730 -2.2562 -0.1446 -3.5548
   59CHL1  H26B 6841   4.381   6.436   8.630  1.1895  0.3543  0.7350
   59CHL1  H26C 6842   4.268   6.412   8.765  0.9274 -2.0502  0.1141
   59CHL1   C27 6843   4.603   6.468   8.774  0.7502  0.2868 -0.3635
   59CHL1  H27A 6844   4.600   6.579   8.782  0.1476  0.2554 -0.1422
   59CHL1  H27B 6845   4.692   6.427   8.826  2.3143  0.1595 -2.9686
   59CHL1  H27C 6846   4.605   6.436   8.667  1.8311  0.9153 -0.5391
   60CHL1    C3 6847   0.287   3.185  10.239  0.1456  0.1607 -0.2413
   60CHL1    H3 6848   0.307   3.083  10.201  1.4360  0.3795 -0.1733
   60CHL1    O3 6849   0.288   3.179  10.384 -0.6197 -0.3409 -0.1360
   60CHL1   H3' 6850   0.279   3.271  10.409  1.9452  0.2249 -0.9584
   60CHL1    C4 6851   0.408   3.275  10.202  0.4783  0.4728 -0.3223
   60CHL1   H4A 6852   0.394   3.377  10.244  0.2706  1.1309 -1.8921
   60CHL1   H4B 6853   0.499   3.231  10.247  1.0981  0.7529 -1.2603
   60CHL1    C5 6854   0.417   3.279  10.046  0.1432  0.0614 -0.7238
   60CHL1    C6 6855   0.534   3.239   9.979  0.0604 -0.1405 -0.2751
   60CHL1    H6 6856   0.619   3.192  10.030 -0.2633  0.5979  0.9810
   60CHL1    C7 6857   0.548   3.258   9.830  0.4989 -0.2130 -0.1437
   60CHL1   H7A 6858   0.647   3.303   9.807  0.1466  0.8344  0.2812
   60CHL1   H7B 6859   0.532   3.158   9.786  3.1074 -0.7645  0.0134
   60CHL1    C8 6860   0.443   3.342   9.768 -0.5302 -0.7079  0.0247
   60CHL1    H8 6861   0.475   3.445   9.793  3.0205 -1.8479  0.7815
   60CHL1   C14 6862   0.441   3.326   9.613 -0.0631  0.1756 -0.1150
   60CHL1   H14 6863   0.406   3.222   9.593  1.3353 -0.6425  1.4611
   60CHL1   C15 6864   0.572   3.333   9.542 -0.1655 -0.0258 -0.0901
   60CHL1  H15A 6865   0.626   3.423   9.579 -1.3164  1.6303 -2.1907
   60CHL1  H15B 6866   0.643   3.249   9.561  0.0375  0.1033 -0.2807
   60CHL1   C16 6867   0.545   3.361   9.392  0.0085  0.1220 -0.0233
   60CHL1  H16A 6868   0.579   3.464   9.365  2.2592 -0.1893  1.3829
   60CHL1  H16B 6869   0.587   3.289   9.318  2.7563  1.1806  0.3762
   60CHL1   C17 6870   0.391   3.367   9.392 -0.1713  0.3501  0.8855
   60CHL1   H17 6871   0.371   3.258   9.380 -0.2281  0.2738  1.6350
   60CHL1   C13 6872   0.346   3.410   9.533 -0.2035  0.3314 -1.1160
   60CHL1   C18 6873   0.385   3.560   9.551 -0.1524 -0.4101  0.0661
   60CHL1  H18A 6874   0.314   3.624   9.494  0.0683 -0.8730 -0.7343
   60CHL1  H18B 6875   0.380   3.595   9.657 -0.7231 -0.2232 -0.0158
   60CHL1  H18C 6876   0.491   3.577   9.523 -0.1005  0.5407  0.7786
   60CHL1   C12 6877   0.204   3.377   9.586 -0.2237 -0.2703  0.2938
   60CHL1  H12A 6878   0.131   3.451   9.546  0.3577  0.1758  0.0335
   60CHL1  H12B 6879   0.174   3.272   9.563 -0.5985 -0.3978  1.3364
   60CHL1   C11 6880   0.200   3.396   9.739 -0.1076 -0.1169  0.3437
   60CHL1  H11A 6881   0.224   3.500   9.766  0.8510  0.1230 -1.3272
   60CHL1  H11B 6882   0.103   3.356   9.778  0.1639  0.3860  1.5635
   60CHL1    C9 6883   0.297   3.314   9.825 -0.6593 -0.1273  0.5940
   60CHL1    H9 6884   0.287   3.207   9.796 -1.8253  0.1472 -0.0984
   60CHL1   C10 6885   0.293   3.337   9.978 -0.3476  0.2250  0.5105
   60CHL1   C19 6886   0.268   3.487  10.016 -0.1118  0.0445 -0.2269
   60CHL1  H19A 6887   0.352   3.549   9.980 -0.9207  1.5019  0.3206
   60CHL1  H19B 6888   0.171   3.514   9.970  0.2618  0.2296 -0.9118
   60CHL1  H19C 6889   0.254   3.499  10.126  0.0343 -2.0399  0.0663
   60CHL1    C1 6890   0.174   3.249  10.027  0.1830 -0.4790 -0.2663
   60CHL1   H1A 6891   0.090   3.303   9.978  0.1564  1.9649  2.2788
   60CHL1   H1B 6892   0.182   3.147   9.984 -3.3693 -0.1663 -2.1248
   60CHL1    C2 6893   0.160   3.237  10.180 -0.2181  0.0343  0.7209
   60CHL1   H2A 6894   0.079   3.163  10.200 -0.9149 -0.0492 -2.1020
   60CHL1   H2B 6895   0.136   3.335  10.226 -0.6665 -0.0414  0.6535
   60CHL1   C20 6896   0.319   3.436   9.271 -0.6773 -0.3910  0.2611
   60CHL1   H20 6897   0.240   3.502   9.314 -0.1944  2.3275 -2.6295
   60CHL1   C21 6898   0.232   3.335   9.189 -0.4144  1.3785  0.7339
   60CHL1  H21A 6899   0.157   3.390   9.129 -1.8124 -1.5959 -0.3964
   60CHL1  H21B 6900   0.179   3.271   9.262 -1.3814  1.5132  0.1618
   60CHL1  H21C 6901   0.295   3.280   9.116 -1.3666  1.6435 -0.3007
   60CHL1   C22 6902   0.415   3.522   9.177 -0.5425 -0.0035  0.3843
   60CHL1  H22A 6903   0.459   3.608   9.232 -0.8081  0.1114  0.4196
   60CHL1  H22B 6904   0.498   3.453   9.152 -0.4839  0.2479 -0.1373
   60CHL1   C23 6905   0.360   3.566   9.047  0.4069  0.6297 -0.3379
   60CHL1  H23A 6906   0.334   3.484   8.978 -1.9724 -0.1500  1.3462
   60CHL1  H23B 6907   0.259   3.607   9.071  0.4854 -0.2165  1.6125
   60CHL1   C24 6908   0.450   3.672   8.989 -0.2746 -0.1643  0.4398
   60CHL1  H24A 6909   0.476   3.743   9.070  0.1541  0.5418 -0.2884
   60CHL1  H24B 6910   0.544   3.623   8.955 -0.5894 -1.3693  1.2393
   60CHL1   C25 6911   0.391   3.757   8.878 -0.6253 -0.6829  0.3382
   60CHL1   H25 6912   0.296   3.794   8.922 -0.7123 -1.0850  0.5024
   60CHL1   C26 6913   0.487   3.877   8.851  0.0383 -0.2615  0.2559
   60CHL1  H26A 6914   0.574   3.846   8.789 -0.6380  0.0188 -0.8486
   60CHL1  H26B 6915   0.433   3.947   8.784  2.0960  1.4523  0.2519
   60CHL1  H26C 6916   0.523   3.933   8.940  0.4194  1.2702 -0.8111
   60CHL1   C27 6917   0.360   3.692   8.738 -0.2842  1.0668 -0.0451
   60CHL1  H27A 6918   0.333   3.587   8.766  0.0713  1.2002  0.8383
   60CHL1  H27B 6919   0.275   3.748   8.694 -1.0369  0.7866  1.0001
   60CHL1  H27C 6920   0.442   3.674   8.665 -1.1654 -0.2361 -0.7576
   61CHL1    C3 6921   1.631   4.834  10.174 -0.2109 -0.1463  0.0485
   61CHL1    H3 6922   1.542   4.771  10.155 -0.0061 -0.6517  0.7265
   61CHL1    O3 6923   1.648   4.862  10.309  0.4015  0.4468 -0.0577
   61CHL1   H3' 6924   1.675   4.773  10.335 -1.0313 -0.4281 -1.4108
   61CHL1    C4 6925   1.752   4.767  10.116 -0.1307 -0.2282 -0.1593
   61CHL1   H4A 6926   1.842   4.808  10.167  0.2743 -0.7377 -0.4556
   61CHL1   H4B 6927   1.743   4.661  10.145  0.4541  0.1971  1.7216
   61CHL1    C5 6928   1.780   4.769   9.966  0.2405  0.3020  0.1181
   61CHL1    C6 6929   1.806   4.656   9.895 -0.3675 -0.3892 -0.1848
   61CHL1    H6 6930   1.825   4.561   9.948  2.1532  0.2870  0.2761
   61CHL1    C7 6931   1.821   4.657   9.743  0.7905  0.2121 -0.8191
   61CHL1   H7A 6932   1.905   4.593   9.708 -2.7487 -3.2575 -4.0153
   61CHL1   H7B 6933   1.730   4.615   9.695  0.7447  0.2896 -0.8016
   61CHL1    C8 6934   1.854   4.799   9.688  0.2293  1.0860  0.4806
   61CHL1    H8 6935   1.958   4.825   9.717  0.3295 -0.3671  1.4987
   61CHL1   C14 6936   1.837   4.793   9.535 -0.6172  0.2631  0.3228
   61CHL1   H14 6937   1.730   4.775   9.511 -0.0858 -1.8637 -0.7222
   61CHL1   C15 6938   1.917   4.685   9.455 -0.0792  0.2543 -0.1784
   61CHL1  H15A 6939   2.021   4.685   9.494  0.2088  1.8012 -0.8800
   61CHL1  H15B 6940   1.874   4.582   9.456  0.8907 -0.1687  0.5251
   61CHL1   C16 6941   1.938   4.748   9.315  0.8585 -0.9712 -0.3194
   61CHL1  H16A 6942   2.046   4.774   9.312  0.2825  2.0040  1.2370
   61CHL1  H16B 6943   1.892   4.688   9.233  1.7606 -1.1158 -0.7385
   61CHL1   C17 6944   1.859   4.885   9.321 -0.2232  0.4674 -0.1210
   61CHL1   H17 6945   1.755   4.855   9.299 -0.4570  2.2001 -1.6121
   61CHL1   C13 6946   1.868   4.928   9.468 -0.4198  0.2760 -0.1075
   61CHL1   C18 6947   2.006   4.981   9.510 -0.2995 -0.9295  1.0580
   61CHL1  H18A 6948   2.007   5.014   9.616  0.2436  1.6266  0.3360
   61CHL1  H18B 6949   2.083   4.903   9.498 -0.2778 -0.9527  1.3367
   61CHL1  H18C 6950   2.045   5.065   9.449  2.0483 -1.0525  2.2816
   61CHL1   C12 6951   1.762   5.025   9.516 -0.2996 -0.5980 -0.1021
   61CHL1  H12A 6952   1.767   5.130   9.480 -0.6729 -0.4945  0.1408
   61CHL1  H12B 6953   1.663   4.983   9.485 -0.1697 -0.2352 -1.0398
   61CHL1   C11 6954   1.753   5.033   9.664  0.1961 -0.8616 -0.4191
   61CHL1  H11A 6955   1.840   5.087   9.707 -0.5132  0.8069 -0.9703
   61CHL1  H11B 6956   1.667   5.103   9.680 -0.2985 -1.6686  0.5844
   61CHL1    C9 6957   1.751   4.900   9.740 -0.1959  0.7331 -0.5903
   61CHL1    H9 6958   1.656   4.849   9.713  0.6608 -0.8457 -0.7322
   61CHL1   C10 6959   1.755   4.906   9.899 -0.0562  0.6992 -0.3787
   61CHL1   C19 6960   1.874   5.002   9.938 -0.0337 -0.0031 -0.3443
   61CHL1  H19A 6961   1.878   5.011  10.049 -1.2062 -1.4422 -0.1607
   61CHL1  H19B 6962   1.969   4.980   9.886  1.1132  0.5774  1.3954
   61CHL1  H19C 6963   1.852   5.107   9.908  2.5790  0.1011 -2.2013
   61CHL1    C1 6964   1.617   4.952   9.955  0.4003  0.4314  0.1905
   61CHL1   H1A 6965   1.595   5.053   9.913  0.3734  0.4688  0.2956
   61CHL1   H1B 6966   1.532   4.890   9.919  0.1510  0.2536  1.0618
   61CHL1    C2 6967   1.601   4.962  10.100 -0.3632 -0.3273 -0.2248
   61CHL1   H2A 6968   1.500   4.987  10.138 -0.2219  0.2178 -0.1918
   61CHL1   H2B 6969   1.673   5.038  10.137  0.8636 -1.4423 -0.2723
   61CHL1   C20 6970   1.905   4.980   9.216 -0.4412 -0.6800 -0.1509
   61CHL1   H20 6971   2.001   5.032   9.238 -1.5769  0.7271  1.7489
   61CHL1   C21 6972   1.809   5.091   9.195 -0.0163  0.7547 -0.4635
   61CHL1  H21A 6973   1.842   5.152   9.108 -1.1887 -0.6522 -1.9517
   61CHL1  H21B 6974   1.794   5.156   9.284  1.2327 -1.7456  1.7301
   61CHL1  H21C 6975   1.711   5.054   9.157  0.5502 -0.5000 -0.7450
   61CHL1   C22 6976   1.931   4.908   9.080  0.1931  0.0273 -0.1183
   61CHL1  H22A 6977   2.021   4.844   9.096 -0.0468 -0.1523  0.5578
   61CHL1  H22B 6978   1.854   4.831   9.056  1.7947 -1.2591 -1.4228
   61CHL1   C23 6979   1.946   5.001   8.953 -0.0870  0.5486  0.6296
   61CHL1  H23A 6980   1.846   5.047   8.937 -0.5400 -1.1950 -2.3301
   61CHL1  H23B 6981   2.025   5.078   8.968  0.1638  0.0510  2.0493
   61CHL1   C24 6982   1.959   4.910   8.831 -0.2120  0.4468  0.3798
   61CHL1  H24A 6983   2.033   4.828   8.839 -0.2633  0.5632  2.3322
   61CHL1  H24B 6984   1.858   4.864   8.819  0.4416 -1.3425  1.4220
   61CHL1   C25 6985   1.987   4.987   8.703  0.7871  0.1896  0.1214
   61CHL1   H25 6986   1.962   4.913   8.624  0.4969 -1.7476  1.9191
   61CHL1   C26 6987   1.910   5.115   8.677  0.2333  0.2628  0.9435
   61CHL1  H26A 6988   1.806   5.082   8.653  0.2746  2.0556 -2.1854
   61CHL1  H26B 6989   1.905   5.183   8.764  1.3774  1.2879  0.2332
   61CHL1  H26C 6990   1.960   5.164   8.590  1.6457  1.2142  2.2452
   61CHL1   C27 6991   2.140   5.007   8.681  0.4210 -0.1910  0.4456
   61CHL1  H27A 6992   2.194   4.910   8.671 -0.8720 -0.7458 -1.8739
   61CHL1  H27B 6993   2.150   5.049   8.579 -2.7755  1.3282  0.6539
   61CHL1  H27C 6994   2.189   5.070   8.759 -0.8929  1.9862 -0.3851
   62CHL1    C3 6995   3.274   6.754   9.881 -0.0534  0.5254 -0.0392
   62CHL1    H3 6996   3.232   6.652   9.882  0.8874  0.1355  0.3995
   62CHL1    O3 6997   3.270   6.808  10.014  0.2402 -0.5887  0.8043
   62CHL1   H3' 6998   3.224   6.751  10.076  0.1974 -0.6358  0.7285
   62CHL1    C4 6999   3.421   6.738   9.840 -0.0115 -0.3299  0.4726
   62CHL1   H4A 7000   3.479   6.833   9.847 -0.3253 -0.1314  0.3769
   62CHL1   H4B 7001   3.471   6.677   9.918  0.7481  0.4713  0.6381
   62CHL1    C5 7002   3.431   6.669   9.704 -0.3892 -0.2834 -0.3581
   62CHL1    C6 7003   3.500   6.558   9.689  0.9586  0.1748  0.4351
   62CHL1    H6 7004   3.548   6.504   9.772  0.9357  0.5067  0.6663
   62CHL1    C7 7005   3.525   6.492   9.550 -0.9336  0.2651 -0.4057
   62CHL1   H7A 7006   3.627   6.451   9.564 -1.4405 -0.4112  1.6267
   62CHL1   H7B 7007   3.458   6.405   9.532  0.4726 -1.2842  1.4895
   62CHL1    C8 7008   3.494   6.592   9.434 -0.2431  0.6806  0.0051
   62CHL1    H8 7009   3.580   6.662   9.425 -0.7509  1.2868 -0.2694
   62CHL1   C14 7010   3.490   6.514   9.304  0.1316 -0.3671  0.6372
   62CHL1   H14 7011   3.410   6.437   9.317 -0.3894 -0.0668 -0.5962
   62CHL1   C15 7012   3.607   6.420   9.260 -0.6346  0.3049 -0.1278
   62CHL1  H15A 7013   3.697   6.485   9.267 -1.3927  1.2688  1.1022
   62CHL1  H15B 7014   3.622   6.333   9.326  0.4336 -0.8843 -1.8494
   62CHL1   C16 7015   3.573   6.388   9.111 -0.8670 -0.0716 -0.8335
   62CHL1  H16A 7016   3.666   6.423   9.061 -0.7483  0.9885  0.0734
   62CHL1  H16B 7017   3.563   6.280   9.090  2.1991 -0.7946  0.8506
   62CHL1   C17 7018   3.460   6.483   9.072  0.6599  0.0990 -0.8016
   62CHL1   H17 7019   3.370   6.418   9.072  0.6888  0.0586 -0.9698
   62CHL1   C13 7020   3.448   6.590   9.183  0.1656 -0.8604  0.7139
   62CHL1   C18 7021   3.552   6.698   9.144 -0.0366 -0.1369  0.0293
   62CHL1  H18A 7022   3.493   6.765   9.077 -0.0592 -0.6237 -0.4456
   62CHL1  H18B 7023   3.579   6.766   9.227 -1.4675  2.2625 -1.3624
   62CHL1  H18C 7024   3.649   6.672   9.097 -0.1833 -1.3013  0.3353
   62CHL1   C12 7025   3.308   6.641   9.203  0.5511 -0.5516 -0.1605
   62CHL1  H12A 7026   3.276   6.697   9.113 -3.2417 -1.1257  0.6859
   62CHL1  H12B 7027   3.243   6.555   9.227 -1.2323  0.8461  0.1977
   62CHL1   C11 7028   3.305   6.733   9.333  0.1650 -0.0932  0.2553
   62CHL1  H11A 7029   3.353   6.832   9.313 -0.5720  0.4118  0.9424
   62CHL1  H11B 7030   3.196   6.748   9.349  0.2204  1.8713 -0.8306
   62CHL1    C9 7031   3.360   6.661   9.456 -0.0677  0.2429  0.4733
   62CHL1    H9 7032   3.291   6.577   9.478 -0.2670  0.1712 -0.3935
   62CHL1   C10 7033   3.359   6.745   9.592  0.5251 -0.2611  0.2063
   62CHL1   C19 7034   3.435   6.870   9.568 -0.0220 -0.9443  0.0659
   62CHL1  H19A 7035   3.541   6.854   9.539 -0.1379 -2.5879  0.4229
   62CHL1  H19B 7036   3.377   6.932   9.496 -1.4486  0.4139  2.2550
   62CHL1  H19C 7037   3.439   6.944   9.651  3.6439  0.1338 -0.8986
   62CHL1    C1 7038   3.208   6.772   9.639  0.1597  0.4172 -0.3999
   62CHL1   H1A 7039   3.150   6.839   9.571 -3.7947 -2.6300 -0.4204
   62CHL1   H1B 7040   3.147   6.680   9.655 -0.9423  1.5931  2.7106
   62CHL1    C2 7041   3.198   6.840   9.776  0.1236 -0.0332 -0.1689
   62CHL1   H2A 7042   3.093   6.868   9.802  0.0442  1.1946 -1.6858
   62CHL1   H2B 7043   3.256   6.934   9.771 -0.6232  0.4189 -0.5134
   62CHL1   C20 7044   3.467   6.515   8.924  0.5842 -1.5509 -0.1845
   62CHL1   H20 7045   3.566   6.564   8.916  0.9331 -2.3992 -1.2567
   62CHL1   C21 7046   3.349   6.594   8.889  0.4098 -0.1041  0.4330
   62CHL1  H21A 7047   3.360   6.701   8.918 -1.4009  0.2310  0.0244
   62CHL1  H21B 7048   3.256   6.551   8.932 -1.3104  0.9796 -1.9798
   62CHL1  H21C 7049   3.333   6.594   8.779  2.3621 -1.7191  0.0926
   62CHL1   C22 7050   3.460   6.394   8.833 -0.0475  0.8945 -0.7163
   62CHL1  H22A 7051   3.405   6.316   8.889 -0.5925  0.9228 -1.2037
   62CHL1  H22B 7052   3.404   6.412   8.738 -1.3590 -0.4982 -0.2506
   62CHL1   C23 7053   3.593   6.328   8.786 -0.4316 -0.0074 -0.2778
   62CHL1  H23A 7054   3.639   6.388   8.704  1.0223 -0.8127 -0.0862
   62CHL1  H23B 7055   3.660   6.319   8.874 -2.2977  2.3436  1.5231
   62CHL1   C24 7056   3.578   6.191   8.726  0.1864 -0.2488 -0.3091
   62CHL1  H24A 7057   3.546   6.118   8.803 -0.2442  0.5992  0.3312
   62CHL1  H24B 7058   3.497   6.205   8.651 -1.2756  2.2400  1.5975
   62CHL1   C25 7059   3.701   6.143   8.652 -0.7155 -0.5521 -0.0610
   62CHL1   H25 7060   3.755   6.233   8.617  0.4209 -0.6146  1.4459
   62CHL1   C26 7061   3.786   6.072   8.755 -0.0376  0.3250 -0.1001
   62CHL1  H26A 7062   3.811   6.148   8.833 -2.6261  0.4460  0.7131
   62CHL1  H26B 7063   3.738   5.981   8.797  3.1336 -0.8550  1.2651
   62CHL1  H26C 7064   3.877   6.040   8.701  0.2105  1.1946 -0.2163
   62CHL1   C27 7065   3.675   6.056   8.522  0.0647 -0.0539 -0.2462
   62CHL1  H27A 7066   3.630   5.962   8.561 -2.5483  1.1077 -0.1997
   62CHL1  H27B 7067   3.604   6.114   8.459 -1.2433 -0.4806  0.7886
   62CHL1  H27C 7068   3.768   6.036   8.465  0.1580  2.1985 -0.9781
   63CHL1    C3 7069   5.024   2.412  10.334  0.3051 -0.0488  0.0761
   63CHL1    H3 7070   5.078   2.323  10.297 -1.3656 -0.7361 -0.8214
   63CHL1    O3 7071   5.021   2.411  10.474 -0.3035  0.1551 -0.5357
   63CHL1   H3' 7072   4.944   2.466  10.492  0.5653  1.1737  0.1864
   63CHL1    C4 7073   5.087   2.547  10.283  0.0262 -0.2390 -0.2104
   63CHL1   H4A 7074   5.045   2.634  10.337  1.2541  0.7365 -0.7749
   63CHL1   H4B 7075   5.192   2.535  10.317 -0.4444  0.0567  1.4259
   63CHL1    C5 7076   5.073   2.577  10.134  0.0621 -0.0562  0.0021
   63CHL1    C6 7077   5.181   2.605  10.053  0.4751 -0.1548 -0.3931
   63CHL1    H6 7078   5.285   2.605  10.090 -0.2360 -2.5062  1.9130
   63CHL1    C7 7079   5.160   2.647   9.912  0.3248 -0.2490  0.0950
   63CHL1   H7A 7080   5.220   2.738   9.889  1.1251 -1.4145 -2.7939
   63CHL1   H7B 7081   5.196   2.562   9.851  0.1978 -0.5229  0.4017
   63CHL1    C8 7082   5.014   2.673   9.871  0.5391 -0.5664 -0.3985
   63CHL1    H8 7083   4.984   2.774   9.907  0.0686 -0.2196 -1.7362
   63CHL1   C14 7084   4.993   2.677   9.726  0.5067  0.1238 -0.0929
   63CHL1   H14 7085   5.028   2.577   9.692  1.7957  0.7909 -0.8150
   63CHL1   C15 7086   5.098   2.766   9.650 -0.2503  0.0723  0.5880
   63CHL1  H15A 7087   5.103   2.866   9.699 -2.3858  0.0416  0.9399
   63CHL1  H15B 7088   5.196   2.714   9.650 -0.6169 -0.7392 -1.6432
   63CHL1   C16 7089   5.040   2.780   9.509 -0.4049 -0.2838 -0.1045
   63CHL1  H16A 7090   5.022   2.887   9.486  0.3376 -0.4578 -1.5795
   63CHL1  H16B 7091   5.108   2.740   9.431 -0.4027  0.3958 -0.4593
   63CHL1   C17 7092   4.903   2.705   9.521  0.9083  0.3223 -0.1551
   63CHL1   H17 7093   4.926   2.603   9.483  0.5443  0.6080 -1.1870
   63CHL1   C13 7094   4.857   2.696   9.669  0.4086  0.4832  0.2398
   63CHL1   C18 7095   4.794   2.828   9.714  1.0547  0.3967 -0.4228
   63CHL1  H18A 7096   4.782   2.845   9.823  0.5931  1.1673 -0.5867
   63CHL1  H18B 7097   4.862   2.912   9.690  1.9493 -0.0771  0.3819
   63CHL1  H18C 7098   4.692   2.854   9.677  1.3385  1.2294 -0.6358
   63CHL1   C12 7099   4.778   2.572   9.716  0.3093 -0.1003  0.1191
   63CHL1  H12A 7100   4.671   2.576   9.685  0.3061  0.0932  0.1581
   63CHL1  H12B 7101   4.815   2.478   9.670 -0.0322 -0.0691 -0.2223
   63CHL1   C11 7102   4.785   2.568   9.871  0.0151  0.5461 -0.0354
   63CHL1  H11A 7103   4.728   2.652   9.916  0.7531 -0.4822  3.0406
   63CHL1  H11B 7104   4.736   2.474   9.903  0.7850  0.1034 -0.1490
   63CHL1    C9 7105   4.924   2.561   9.930 -0.1761  0.3855 -0.2559
   63CHL1    H9 7106   4.960   2.463   9.891 -1.9116 -1.1012  1.6514
   63CHL1   C10 7107   4.924   2.559  10.087  0.6327 -0.0901  0.2403
   63CHL1   C19 7108   4.850   2.680  10.145  0.6350  0.3873  0.1129
   63CHL1  H19A 7109   4.905   2.772  10.114  2.2822 -0.6390 -0.1646
   63CHL1  H19B 7110   4.744   2.672  10.115 -0.0481  0.9320  2.2237
   63CHL1  H19C 7111   4.848   2.674  10.256 -1.8874  0.1944  0.1122
   63CHL1    C1 7112   4.870   2.426  10.134  0.1628 -0.2553 -0.9059
   63CHL1   H1A 7113   4.764   2.403  10.111 -0.2598  0.4757  0.1946
   63CHL1   H1B 7114   4.938   2.352  10.086  0.6570  0.9878 -2.1650
   63CHL1    C2 7115   4.876   2.401  10.290 -0.3388 -0.6099 -0.4787
   63CHL1   H2A 7116   4.816   2.310  10.316 -2.5730  0.9429  0.0856
   63CHL1   H2B 7117   4.815   2.483  10.334 -1.7913 -1.0772 -1.5233
   63CHL1   C20 7118   4.801   2.760   9.414 -0.3441 -0.2172 -0.4588
   63CHL1   H20 7119   4.769   2.860   9.452  1.8655 -0.0576  1.1870
   63CHL1   C21 7120   4.682   2.663   9.406 -0.2129  0.2620  0.0973
   63CHL1  H21A 7121   4.620   2.698   9.321 -0.6037  1.3836  0.8231
   63CHL1  H21B 7122   4.626   2.646   9.500  1.7476 -3.7205  0.7546
   63CHL1  H21C 7123   4.723   2.562   9.383 -2.3457 -0.7722  0.6062
   63CHL1   C22 7124   4.864   2.768   9.272  0.2705 -0.0132 -0.2257
   63CHL1  H22A 7125   4.960   2.713   9.257 -0.0774 -0.5631 -0.4463
   63CHL1  H22B 7126   4.804   2.724   9.190  0.6287 -1.5924  0.3237
   63CHL1   C23 7127   4.892   2.915   9.227  0.8039  0.0758  0.1036
   63CHL1  H23A 7128   4.790   2.957   9.242  0.7206  0.1875 -0.7266
   63CHL1  H23B 7129   4.960   2.970   9.295  0.5401  0.1057  0.3460
   63CHL1   C24 7130   4.932   2.931   9.078 -0.0726  0.7026 -0.4341
   63CHL1  H24A 7131   4.927   3.037   9.047  0.2311  0.4036 -1.5554
   63CHL1  H24B 7132   5.037   2.896   9.072 -0.1324 -0.2673  2.6520
   63CHL1   C25 7133   4.848   2.849   8.966  0.3949 -0.1970 -0.1616
   63CHL1   H25 7134   4.859   2.740   8.983  0.7486  0.1057  1.8686
   63CHL1   C26 7135   4.704   2.884   8.985  0.2101 -0.1367  1.0930
   63CHL1  H26A 7136   4.685   2.992   8.964 -0.1444 -0.3424  0.3489
   63CHL1  H26B 7137   4.638   2.827   8.917 -0.6749  0.6142  1.2985
   63CHL1  H26C 7138   4.657   2.858   9.082  0.3051  0.0176  1.1823
   63CHL1   C27 7139   4.902   2.878   8.825  0.0159  0.2545 -0.3524
   63CHL1  H27A 7140   5.008   2.849   8.806 -0.4790 -1.4985 -0.5807
   63CHL1  H27B 7141   4.837   2.829   8.749 -0.4432  2.2059 -1.2672
   63CHL1  H27C 7142   4.898   2.987   8.808 -0.8222 -0.1777 -3.5325
   64CHL1    C3 7143   2.881   1.791   9.903 -0.2843 -0.3616 -0.0050
   64CHL1    H3 7144   2.975   1.849   9.916 -1.3729  1.0497  2.3708
   64CHL1    O3 7145   2.812   1.794  10.027  0.1714 -0.1691  0.7080
   64CHL1   H3' 7146   2.854   1.719  10.071  0.5263  0.1353  0.8887
   64CHL1    C4 7147   2.786   1.848   9.795  0.7817  0.5786  0.5923
   64CHL1   H4A 7148   2.692   1.791   9.784  1.7787 -1.0946  0.3427
   64CHL1   H4B 7149   2.769   1.955   9.821 -0.0548  0.5304  0.2644
   64CHL1    C5 7150   2.853   1.850   9.659 -0.8095  0.4338 -0.4628
   64CHL1    C6 7151   2.879   1.964   9.600  0.0338 -0.8068  0.1776
   64CHL1    H6 7152   2.839   2.059   9.638 -0.3406 -0.1562 -1.7014
   64CHL1    C7 7153   2.915   1.974   9.455 -0.5002 -0.1784  0.0203
   64CHL1   H7A 7154   2.850   2.040   9.393  1.4306  2.5449  0.6910
   64CHL1   H7B 7155   3.016   2.020   9.453 -0.8997  0.8076  1.1507
   64CHL1    C8 7156   2.913   1.834   9.389 -0.2881  0.3869  0.7033
   64CHL1    H8 7157   2.811   1.805   9.355 -0.2427  1.7437 -0.7053
   64CHL1   C14 7158   2.995   1.838   9.254  0.0398 -0.9132  0.2423
   64CHL1   H14 7159   3.093   1.862   9.301  0.0480 -0.0401 -0.1929
   64CHL1   C15 7160   2.979   1.957   9.154  0.2576  0.5863 -0.7374
   64CHL1  H15A 7161   2.873   1.989   9.141  0.0520 -0.0073 -0.5602
   64CHL1  H15B 7162   3.026   2.053   9.181 -2.9865  1.6121  2.0384
   64CHL1   C16 7163   3.040   1.908   9.026  0.1681  0.4001 -0.9516
   64CHL1  H16A 7164   2.950   1.901   8.961 -2.5711  0.0996  2.5761
   64CHL1  H16B 7165   3.118   1.984   9.004  1.2786 -0.6744 -0.7927
   64CHL1   C17 7166   3.101   1.770   9.062 -0.3570 -0.3430 -0.2034
   64CHL1   H17 7167   3.196   1.804   9.108 -0.7826  0.3063  0.2239
   64CHL1   C13 7168   3.018   1.710   9.176 -0.1503 -0.7584  0.1830
   64CHL1   C18 7169   2.881   1.669   9.118 -0.0231 -0.2891  0.0427
   64CHL1  H18A 7170   2.831   1.739   9.048 -0.3863 -1.1514 -0.5804
   64CHL1  H18B 7171   2.891   1.572   9.065 -1.9522 -1.4801  1.7318
   64CHL1  H18C 7172   2.810   1.645   9.200 -0.7045 -0.7042 -0.6569
   64CHL1   C12 7173   3.081   1.607   9.272  0.1278  0.3229 -1.0149
   64CHL1  H12A 7174   3.084   1.505   9.228 -1.7793 -1.0503  1.7665
   64CHL1  H12B 7175   3.185   1.644   9.285 -0.1434  1.4919 -1.9343
   64CHL1   C11 7176   3.004   1.594   9.404  0.3617 -0.5394 -0.4492
   64CHL1  H11A 7177   2.910   1.540   9.384  0.5556 -1.1682  0.2816
   64CHL1  H11B 7178   3.069   1.541   9.477  1.7619  3.0924  1.2371
   64CHL1    C9 7179   2.979   1.729   9.475  0.1441  0.4494 -0.4144
   64CHL1    H9 7180   3.083   1.765   9.490  0.4028  1.0623 -3.2423
   64CHL1   C10 7181   2.902   1.709   9.612  0.3788 -0.4900  0.0368
   64CHL1   C19 7182   2.771   1.635   9.581 -0.4651 -0.4763 -0.3629
   64CHL1  H19A 7183   2.722   1.617   9.680 -1.4662  0.7202 -0.6206
   64CHL1  H19B 7184   2.702   1.699   9.523  1.0552  0.3094 -1.3633
   64CHL1  H19C 7185   2.777   1.541   9.522 -0.9954 -1.1652  0.6440
   64CHL1    C1 7186   2.984   1.640   9.728 -0.5246 -1.0558  0.0313
   64CHL1   H1A 7187   3.005   1.532   9.709  2.3331 -0.6790  0.5903
   64CHL1   H1B 7188   3.079   1.698   9.725 -2.8522  3.0721 -0.8285
   64CHL1    C2 7189   2.913   1.646   9.871 -0.5631 -0.0415 -0.4053
   64CHL1   H2A 7190   2.980   1.598   9.946 -1.5111 -2.2245 -0.8734
   64CHL1   H2B 7191   2.820   1.586   9.884 -0.1440 -0.1561  3.2551
   64CHL1   C20 7192   3.136   1.678   8.943 -0.0115 -0.5213 -0.6122
   64CHL1   H20 7193   3.045   1.614   8.939 -2.8173  3.1775 -1.1401
   64CHL1   C21 7194   3.254   1.591   8.993 -0.0231  0.1401 -0.2211
   64CHL1  H21A 7195   3.229   1.526   9.080  0.3408 -1.7184 -1.4588
   64CHL1  H21B 7196   3.350   1.641   9.021  0.4172 -1.0824  0.5591
   64CHL1  H21C 7197   3.298   1.526   8.914  0.0535  1.0595 -0.9486
   64CHL1   C22 7198   3.169   1.744   8.806  0.5386  0.2915 -0.1974
   64CHL1  H22A 7199   3.102   1.830   8.785 -1.2652 -0.8326  0.7750
   64CHL1  H22B 7200   3.271   1.784   8.821  0.3510  0.5870  0.2792
   64CHL1   C23 7201   3.162   1.644   8.694  0.5999 -0.2686  0.3907
   64CHL1  H23A 7202   3.234   1.559   8.696  0.1871 -0.6198  0.6474
   64CHL1  H23B 7203   3.058   1.605   8.699  0.5097 -0.1960 -0.6591
   64CHL1   C24 7204   3.171   1.714   8.555 -0.7882 -0.5730 -0.2886
   64CHL1  H24A 7205   3.082   1.781   8.554 -0.0924  0.3960 -1.6662
   64CHL1  H24B 7206   3.263   1.776   8.549  0.3617 -2.1216  0.6686
   64CHL1   C25 7207   3.170   1.639   8.423  0.7813 -0.4853  0.8463
   64CHL1   H25 7208   3.217   1.542   8.446 -0.0877 -1.5604 -1.5705
   64CHL1   C26 7209   3.025   1.610   8.384  0.2916 -0.4333  0.5753
   64CHL1  H26A 7210   2.973   1.556   8.467  0.6427 -1.6369  0.0338
   64CHL1  H26B 7211   2.980   1.708   8.358  0.3962 -0.3450  0.7237
   64CHL1  H26C 7212   3.023   1.557   8.287 -1.5036  0.9141 -0.1979
   64CHL1   C27 7213   3.239   1.721   8.310  0.7654  0.3416  0.3418
   64CHL1  H27A 7214   3.176   1.808   8.286 -2.2501 -0.9713  2.7817
   64CHL1  H27B 7215   3.344   1.736   8.344  1.1463 -0.8695 -0.2115
   64CHL1  H27C 7216   3.245   1.645   8.229 -2.9660  0.1681  0.0865
   65CHL1    C3 7217   6.069   5.632  10.125 -0.3142  0.2321 -0.0383
   65CHL1    H3 7218   6.026   5.733  10.147  2.9372  1.4108  1.5074
   65CHL1    O3 7219   6.072   5.569  10.251 -0.3072  0.2821  0.7204
   65CHL1   H3' 7220   6.161   5.562  10.286 -0.2968 -2.0766  0.3895
   65CHL1    C4 7221   5.980   5.547  10.040 -0.0309  0.3329 -0.3778
   65CHL1   H4A 7222   6.017   5.442  10.034 -1.4479 -0.1778 -0.7041
   65CHL1   H4B 7223   5.877   5.542  10.082  0.9281 -0.2931  2.0371
   65CHL1    C5 7224   5.973   5.599   9.900  0.6149 -0.3120 -0.7431
   65CHL1    C6 7225   5.853   5.637   9.847 -0.0440 -0.1070  0.4029
   65CHL1    H6 7226   5.759   5.628   9.902  1.3377 -1.3081  2.7340
   65CHL1    C7 7227   5.831   5.696   9.715 -0.1785 -0.0656  0.1992
   65CHL1   H7A 7228   5.741   5.667   9.657 -0.4126  1.0352 -0.0018
   65CHL1   H7B 7229   5.832   5.807   9.710 -0.4073 -0.1068 -1.6177
   65CHL1    C8 7230   5.954   5.655   9.625 -0.2674 -0.3382  0.3159
   65CHL1    H8 7231   5.958   5.547   9.603 -0.1160 -0.3035  0.1705
   65CHL1   C14 7232   5.945   5.725   9.491  0.5026 -0.4293  0.3017
   65CHL1   H14 7233   5.961   5.830   9.521  1.3064 -0.1198 -1.1461
   65CHL1   C15 7234   5.820   5.702   9.405  0.6394  0.3657  0.3891
   65CHL1  H15A 7235   5.795   5.594   9.401 -1.3719  0.7325  1.6637
   65CHL1  H15B 7236   5.727   5.754   9.437 -0.2788 -0.4553 -0.8457
   65CHL1   C16 7237   5.849   5.766   9.274  0.1108 -0.4261  0.3590
   65CHL1  H16A 7238   5.810   5.703   9.191  0.8554  0.0230 -0.3575
   65CHL1  H16B 7239   5.802   5.866   9.255  2.7719  0.3727 -3.1479
   65CHL1   C17 7240   5.999   5.781   9.270 -0.8256 -0.9587 -0.0796
   65CHL1   H17 7241   6.014   5.889   9.294 -2.0761 -0.4769 -1.2962
   65CHL1   C13 7242   6.061   5.706   9.395  0.4547 -0.7027 -0.5527
   65CHL1   C18 7243   6.080   5.557   9.362 -0.2877  0.1006 -0.3534
   65CHL1  H18A 7244   6.183   5.535   9.328 -0.0100 -0.2950  0.6956
   65CHL1  H18B 7245   6.085   5.498   9.456  1.3908 -1.3867 -1.3284
   65CHL1  H18C 7246   6.008   5.508   9.293  0.9349 -0.3933 -1.3091
   65CHL1   C12 7247   6.189   5.766   9.464  0.2063  0.1926 -0.0399
   65CHL1  H12A 7248   6.282   5.750   9.406  0.6815 -0.6566  0.9313
   65CHL1  H12B 7249   6.170   5.875   9.479  2.8239  0.3283  3.4701
   65CHL1   C11 7250   6.207   5.701   9.599  0.2596 -0.4862 -0.2861
   65CHL1  H11A 7251   6.248   5.599   9.579  0.0258 -0.2176 -2.3105
   65CHL1  H11B 7252   6.289   5.760   9.647 -0.3309 -0.0839  0.2482
   65CHL1    C9 7253   6.083   5.690   9.693  0.0053 -0.3753 -0.9313
   65CHL1    H9 7254   6.070   5.794   9.727 -1.0149 -0.2906 -1.5489
   65CHL1   C10 7255   6.104   5.614   9.823 -0.0435 -0.3929 -0.3470
   65CHL1   C19 7256   6.165   5.471   9.800 -0.8939 -0.1199 -0.2201
   65CHL1  H19A 7257   6.115   5.424   9.712 -1.2666  0.8552 -0.5436
   65CHL1  H19B 7258   6.270   5.498   9.774 -0.5425  1.0031  2.1589
   65CHL1  H19C 7259   6.164   5.409   9.892 -1.1069  2.1737  1.4097
   65CHL1    C1 7260   6.203   5.694   9.913  0.2482 -0.3901 -0.1095
   65CHL1   H1A 7261   6.308   5.703   9.878  0.5182 -0.9661  0.5337
   65CHL1   H1B 7262   6.167   5.799   9.918 -1.8197 -1.1078  1.6776
   65CHL1    C2 7263   6.205   5.643  10.057  0.6758  0.4626 -0.8649
   65CHL1   H2A 7264   6.272   5.713  10.112 -0.1277 -0.1436  0.9209
   65CHL1   H2B 7265   6.252   5.542  10.054 -1.2522 -0.5121  0.3063
   65CHL1   C20 7266   6.064   5.758   9.130  1.0358 -0.0950  0.1436
   65CHL1   H20 7267   6.016   5.664   9.092 -0.1411  1.0062 -1.2378
   65CHL1   C21 7268   6.221   5.754   9.130  0.3687  0.6086  0.3620
   65CHL1  H21A 7269   6.269   5.844   9.175 -1.0253  1.0131  1.1059
   65CHL1  H21B 7270   6.254   5.721   9.029  0.5323 -2.3931  1.2835
   65CHL1  H21C 7271   6.252   5.667   9.192 -1.9829 -1.5258 -1.2648
   65CHL1   C22 7272   6.014   5.854   9.026 -0.4090  0.7277 -0.3878
   65CHL1  H22A 7273   5.905   5.875   9.032 -0.4308  1.0264 -1.5489
   65CHL1  H22B 7274   6.072   5.948   9.042  2.7259 -0.7026 -2.1790
   65CHL1   C23 7275   6.056   5.807   8.886  0.0982 -0.4170 -0.0136
   65CHL1  H23A 7276   6.164   5.829   8.874 -0.0428 -0.5644 -1.7313
   65CHL1  H23B 7277   6.046   5.697   8.884 -3.0576 -0.2710 -3.2843
   65CHL1   C24 7278   5.973   5.869   8.778  0.1167  0.7621  0.4120
   65CHL1  H24A 7279   5.868   5.838   8.800  0.6294 -1.9648 -0.5978
   65CHL1  H24B 7280   5.981   5.980   8.778  0.4940  0.8428 -3.0916
   65CHL1   C25 7281   6.027   5.803   8.644 -0.1989  0.0518  1.0083
   65CHL1   H25 7282   6.138   5.803   8.640 -0.1976  1.9643 -2.3551
   65CHL1   C26 7283   5.948   5.669   8.631 -0.2856  0.5331  0.1080
   65CHL1  H26A 7284   5.841   5.698   8.639 -0.5348 -0.4416  0.5633
   65CHL1  H26B 7285   5.969   5.616   8.536 -0.6450 -0.1319  0.3854
   65CHL1  H26C 7286   5.965   5.606   8.721  0.2100  2.3252  1.3253
   65CHL1   C27 7287   5.987   5.884   8.521  0.1164 -0.0340  0.1757
   65CHL1  H27A 7288   5.879   5.886   8.498 -0.1843 -1.4593  1.3052
   65CHL1  H27B 7289   6.036   5.984   8.524  0.1728 -0.0859  1.9093
   65CHL1  H27C 7290   6.035   5.832   8.435  1.2365  0.1284  0.6802
   66CHL1    C3 7291   4.412   3.649  10.658  0.0161 -0.7189 -0.5857
   66CHL1    H3 7292   4.437   3.757  10.656  0.1522 -0.7523 -0.7933
   66CHL1    O3 7293   4.471   3.582  10.766  0.1717 -0.4268 -0.2608
   66CHL1   H3' 7294   4.530   3.518  10.725  0.5320 -0.1539 -0.1700
   66CHL1    C4 7295   4.258   3.647  10.677 -0.5100 -0.8520 -0.0109
   66CHL1   H4A 7296   4.227   3.541  10.673 -4.7632  0.2014  0.7023
   66CHL1   H4B 7297   4.228   3.696  10.773 -0.9349  1.1474 -1.1053
   66CHL1    C5 7298   4.183   3.717  10.565 -0.7268  0.2584  0.1024
   66CHL1    C6 7299   4.096   3.820  10.574 -0.3770  0.6595 -0.9275
   66CHL1    H6 7300   4.059   3.850  10.673 -1.9076  0.7748 -1.5071
   66CHL1    C7 7301   4.013   3.878  10.455 -0.7648  0.1653  0.5545
   66CHL1   H7A 7302   3.903   3.886  10.475 -1.5947  1.1829 -3.5741
   66CHL1   H7B 7303   4.050   3.983  10.453  0.7272 -0.3516 -1.7877
   66CHL1    C8 7304   4.027   3.807  10.320  1.0120  0.4932 -0.2389
   66CHL1    H8 7305   3.964   3.715  10.328 -0.2015  1.1942 -1.4608
   66CHL1   C14 7306   3.983   3.908  10.211  0.2177  0.2527 -0.4541
   66CHL1   H14 7307   4.050   3.994  10.228  0.9863 -0.6574  1.5269
   66CHL1   C15 7308   3.839   3.957  10.206  0.1803  0.3664  0.4336
   66CHL1  H15A 7309   3.764   3.875  10.214 -0.7813  0.8294 -2.4579
   66CHL1  H15B 7310   3.811   4.023  10.290  2.5962  0.0466  1.5741
   66CHL1   C16 7311   3.826   4.016  10.064  0.3056  0.2740 -0.1275
   66CHL1  H16A 7312   3.736   3.973  10.016 -0.2814 -0.9401  1.9227
   66CHL1  H16B 7313   3.819   4.127  10.075 -1.1806  0.0751  1.3380
   66CHL1   C17 7314   3.948   3.974   9.985 -0.1221  0.2759  0.4761
   66CHL1   H17 7315   4.025   4.053   9.993  1.6041 -1.3398  0.3737
   66CHL1   C13 7316   4.005   3.857  10.071 -0.6041 -0.3839  0.4046
   66CHL1   C18 7317   3.923   3.733  10.030 -0.2752  0.4953 -0.3017
   66CHL1  H18A 7318   3.971   3.660   9.960 -1.8390  0.7403 -1.6965
   66CHL1  H18B 7319   3.917   3.680  10.127 -1.5309 -1.8448 -1.5511
   66CHL1  H18C 7320   3.818   3.760  10.009 -0.8797 -1.4822 -0.0763
   66CHL1   C12 7321   4.161   3.823  10.060  0.9093 -0.0084 -0.6591
   66CHL1  H12A 7322   4.180   3.778   9.961 -1.9052 -2.1541 -0.3566
   66CHL1  H12B 7323   4.225   3.912  10.076  2.5987 -1.5589  2.1757
   66CHL1   C11 7324   4.196   3.718  10.159 -0.0766  0.3947  0.2722
   66CHL1  H11A 7325   4.136   3.625  10.148  1.4633 -0.7511  1.2356
   66CHL1  H11B 7326   4.302   3.690  10.143 -0.0265  0.9660 -0.4616
   66CHL1    C9 7327   4.172   3.766  10.307 -0.0007  0.0171  0.7271
   66CHL1    H9 7328   4.240   3.854  10.308  0.2858 -0.0932 -1.8867
   66CHL1   C10 7329   4.226   3.672  10.420 -0.4377 -0.3951 -1.3142
   66CHL1   C19 7330   4.164   3.527  10.394 -0.6937 -0.5288  0.5586
   66CHL1  H19A 7331   4.055   3.512  10.405 -1.0482  0.7134 -0.9547
   66CHL1  H19B 7332   4.192   3.502  10.289  2.0287 -1.9592  1.5132
   66CHL1  H19C 7333   4.213   3.455  10.464  0.5462  0.2304  0.5155
   66CHL1    C1 7334   4.374   3.652  10.405  0.3026  0.1884  0.0003
   66CHL1   H1A 7335   4.403   3.594  10.315 -2.3724 -3.0598  1.0073
   66CHL1   H1B 7336   4.419   3.753  10.401 -2.3657  1.4225 -2.0965
   66CHL1    C2 7337   4.451   3.581  10.523 -0.5518  0.0007 -0.3655
   66CHL1   H2A 7338   4.561   3.589  10.508 -0.3356 -1.7647  0.0908
   66CHL1   H2B 7339   4.421   3.474  10.522  1.3975 -0.5832 -1.6264
   66CHL1   C20 7340   3.929   3.954   9.835 -0.1902  0.2227  0.0503
   66CHL1   H20 7341   3.871   3.862   9.812 -0.6528  0.7813 -1.1216
   66CHL1   C21 7342   4.066   3.949   9.758 -0.4398 -0.1284  0.5479
   66CHL1  H21A 7343   4.129   4.039   9.778 -0.2125 -0.6920  2.6546
   66CHL1  H21B 7344   4.050   3.927   9.650 -0.7161  0.5961  0.4369
   66CHL1  H21C 7345   4.127   3.863   9.793 -0.1981  0.3337  1.2808
   66CHL1   C22 7346   3.850   4.072   9.765 -0.1477 -0.4094  0.7623
   66CHL1  H22A 7347   3.749   4.068   9.810  0.2681  0.0218  1.7600
   66CHL1  H22B 7348   3.899   4.166   9.799 -0.6648  1.2633 -2.6675
   66CHL1   C23 7349   3.834   4.058   9.613  0.4876  0.0797  0.5268
   66CHL1  H23A 7350   3.931   4.072   9.561 -0.8535 -2.3458 -3.0211
   66CHL1  H23B 7351   3.805   3.955   9.583  1.7559  0.3886 -1.9761
   66CHL1   C24 7352   3.722   4.147   9.542  0.1289  0.4850  0.5342
   66CHL1  H24A 7353   3.622   4.133   9.588 -1.4201  1.8393 -2.1851
   66CHL1  H24B 7354   3.745   4.255   9.552  0.7337  0.3237  0.9225
   66CHL1   C25 7355   3.715   4.142   9.389  0.6955 -0.4158  0.4055
   66CHL1   H25 7356   3.815   4.153   9.343  0.8038  0.2522  0.7797
   66CHL1   C26 7357   3.646   4.011   9.354 -0.3294 -0.0447 -0.1002
   66CHL1  H26A 7358   3.623   4.006   9.245  1.6936 -0.2514 -0.5541
   66CHL1  H26B 7359   3.709   3.925   9.386 -1.0541 -0.6889 -0.3678
   66CHL1  H26C 7360   3.541   4.009   9.390  0.2111 -2.7002  1.5875
   66CHL1   C27 7361   3.630   4.268   9.334 -1.2379  0.0099  0.2899
   66CHL1  H27A 7362   3.621   4.270   9.223 -0.1792  2.0998  0.1777
   66CHL1  H27B 7363   3.526   4.257   9.372 -1.2421 -1.3293 -0.0488
   66CHL1  H27C 7364   3.667   4.364   9.376 -0.4372  0.3765 -1.1705
   67CHL1    C3 7365   1.642   5.917  10.317  0.2586 -0.5670 -0.1459
   67CHL1    H3 7366   1.559   5.991  10.320  0.4280 -0.3063  3.8420
   67CHL1    O3 7367   1.671   5.885  10.454  0.7330  0.0536  0.5005
   67CHL1   H3' 7368   1.741   5.820  10.448  2.1642  1.5399  0.6415
   67CHL1    C4 7369   1.605   5.783  10.252 -0.4898 -0.3461 -0.4392
   67CHL1   H4A 7370   1.694   5.717  10.266  1.4480  1.9002 -1.3951
   67CHL1   H4B 7371   1.525   5.746  10.319 -0.5041 -0.1253 -0.3345
   67CHL1    C5 7372   1.571   5.809  10.106 -0.0929  0.6380  0.2486
   67CHL1    C6 7373   1.447   5.783  10.062 -0.0156  0.4548  0.2649
   67CHL1    H6 7374   1.364   5.752  10.128 -0.5018  1.5855  0.2027
   67CHL1    C7 7375   1.396   5.793   9.920 -0.0396 -0.0612  0.4637
   67CHL1   H7A 7376   1.346   5.695   9.901  0.8792 -0.3524 -0.5754
   67CHL1   H7B 7377   1.328   5.879   9.902  1.6739  1.5909  1.6354
   67CHL1    C8 7378   1.523   5.807   9.819 -0.3367 -0.5957  0.9716
   67CHL1    H8 7379   1.564   5.706   9.801 -1.4970 -0.7481 -1.0652
   67CHL1   C14 7380   1.466   5.878   9.697  0.2855  0.4190  0.2583
   67CHL1   H14 7381   1.423   5.975   9.730 -0.2759 -0.0589  0.9646
   67CHL1   C15 7382   1.349   5.805   9.631  0.1472 -0.2517 -0.1681
   67CHL1  H15A 7383   1.372   5.697   9.635 -1.4546 -0.5886  1.7519
   67CHL1  H15B 7384   1.250   5.825   9.677 -0.6872 -1.2511 -1.4683
   67CHL1   C16 7385   1.350   5.848   9.487  0.1669 -0.4107  0.0467
   67CHL1  H16A 7386   1.356   5.752   9.430 -0.3101 -0.1234 -0.4970
   67CHL1  H16B 7387   1.257   5.899   9.455  0.5258  0.2538  0.0353
   67CHL1   C17 7388   1.478   5.941   9.475 -0.0545  0.4130  0.4060
   67CHL1   H17 7389   1.441   6.042   9.502  0.6632  0.6530  0.5107
   67CHL1   C13 7390   1.575   5.899   9.586  0.6768  0.0706  0.0487
   67CHL1   C18 7391   1.642   5.769   9.539  0.2501 -0.5625  0.3726
   67CHL1  H18A 7392   1.700   5.726   9.623 -1.1966 -0.9618  1.2036
   67CHL1  H18B 7393   1.562   5.702   9.500 -0.1476  0.0607  0.1000
   67CHL1  H18C 7394   1.723   5.795   9.466  1.9872  0.7781  2.6394
   67CHL1   C12 7395   1.662   6.006   9.645  0.2784 -0.8721 -0.2997
   67CHL1  H12A 7396   1.743   6.041   9.578  0.5088  2.6071  1.5666
   67CHL1  H12B 7397   1.595   6.092   9.666  1.6695  0.2461 -0.2588
   67CHL1   C11 7398   1.725   5.958   9.773  0.0116  0.6311 -0.2584
   67CHL1  H11A 7399   1.791   5.871   9.753 -0.5001  0.5984 -1.9514
   67CHL1  H11B 7400   1.796   6.034   9.812  2.4454 -0.8725 -1.5569
   67CHL1    C9 7401   1.625   5.911   9.885 -0.5035  0.6082  0.1581
   67CHL1    H9 7402   1.562   5.999   9.912 -1.7231 -0.8002  2.2295
   67CHL1   C10 7403   1.681   5.867  10.018 -0.3907  0.5875  0.1601
   67CHL1   C19 7404   1.802   5.766  10.008  0.0014  0.1540 -0.3527
   67CHL1  H19A 7405   1.829   5.736  10.111 -1.5157 -1.2409 -0.3076
   67CHL1  H19B 7406   1.775   5.680   9.943  1.1097 -0.7681  0.3711
   67CHL1  H19C 7407   1.880   5.825   9.957 -0.3157  0.2358 -0.7558
   67CHL1    C1 7408   1.738   5.997  10.092 -0.4035  0.0458  0.1384
   67CHL1   H1A 7409   1.832   6.024  10.041 -1.0822  1.1898 -0.5660
   67CHL1   H1B 7410   1.669   6.084  10.083  1.3475  1.5331  0.4302
   67CHL1    C2 7411   1.764   5.979  10.244  0.6567 -0.1260  0.5479
   67CHL1   H2A 7412   1.798   6.071  10.296 -0.3750  2.0170 -2.2848
   67CHL1   H2B 7413   1.846   5.904  10.247 -0.0315 -0.8744  1.0443
   67CHL1   C20 7414   1.536   5.953   9.332  0.1149 -0.1342 -0.4038
   67CHL1   H20 7415   1.582   5.855   9.308 -1.8652 -0.7374 -2.0400
   67CHL1   C21 7416   1.644   6.065   9.332  0.0448 -0.4043  0.4829
   67CHL1  H21A 7417   1.724   6.048   9.406  3.3141  3.6191 -1.6956
   67CHL1  H21B 7418   1.606   6.170   9.338  0.7490  0.1131 -2.4127
   67CHL1  H21C 7419   1.696   6.065   9.234  0.8826  0.9389  0.8997
   67CHL1   C22 7420   1.427   5.986   9.221  0.7828  0.2299  0.2086
   67CHL1  H22A 7421   1.353   5.904   9.210  1.1014  0.2743 -3.7169
   67CHL1  H22B 7422   1.372   6.079   9.245  0.2866  0.0276 -0.1225
   67CHL1   C23 7423   1.485   5.987   9.072  0.0312  0.5935  0.4103
   67CHL1  H23A 7424   1.541   6.082   9.056  1.3899 -0.0550  1.0784
   67CHL1  H23B 7425   1.571   5.917   9.066 -0.8510 -0.4611 -0.1016
   67CHL1   C24 7426   1.380   5.954   8.962  0.5346 -0.2575  0.3237
   67CHL1  H24A 7427   1.338   5.852   8.956  1.9050 -0.8076 -0.2584
   67CHL1  H24B 7428   1.300   6.031   8.952  1.4408  0.6890  0.1336
   67CHL1   C25 7429   1.446   5.969   8.824 -0.0955  0.1552  1.1015
   67CHL1   H25 7430   1.535   5.904   8.817 -0.1383  0.2743 -1.5708
   67CHL1   C26 7431   1.350   5.927   8.711  0.1929 -0.2857  0.1254
   67CHL1  H26A 7432   1.345   5.818   8.694 -0.9410 -0.0132 -1.4940
   67CHL1  H26B 7433   1.248   5.972   8.719 -0.0077 -0.3147 -1.9210
   67CHL1  H26C 7434   1.386   5.971   8.616  0.3029 -0.0966  0.2524
   67CHL1   C27 7435   1.497   6.111   8.798  0.4075  0.0204  0.1024
   67CHL1  H27A 7436   1.416   6.184   8.815  0.0635  0.0821 -1.6325
   67CHL1  H27B 7437   1.584   6.143   8.859  0.6909 -0.2682 -0.1487
   67CHL1  H27C 7438   1.533   6.115   8.693  0.2849  1.0095  0.0890
   68CHL1    C3 7439   6.007   4.972  10.414 -0.9497 -0.4193 -0.1182
   68CHL1    H3 7440   6.056   5.068  10.388 -0.1601 -1.0208 -0.9015
   68CHL1    O3 7441   6.035   4.939  10.544  0.1318 -0.6197 -0.4240
   68CHL1   H3' 7442   5.975   4.868  10.569 -0.7711  0.7285  1.5591
   68CHL1    C4 7443   5.858   4.993  10.398  0.8451  0.2858 -0.2533
   68CHL1   H4A 7444   5.810   4.894  10.414  0.5163  0.4667 -0.1025
   68CHL1   H4B 7445   5.810   5.074  10.458  1.3187  1.4919 -1.4486
   68CHL1    C5 7446   5.832   5.028  10.249  0.2988  0.8516  0.2912
   68CHL1    C6 7447   5.774   5.140  10.219 -0.1148 -0.5414 -0.3567
   68CHL1    H6 7448   5.736   5.213  10.291  1.0940  0.7483 -0.9663
   68CHL1    C7 7449   5.751   5.194  10.078  0.5021 -0.3085 -0.3288
   68CHL1   H7A 7450   5.643   5.210  10.053  0.6126  0.0492 -0.5876
   68CHL1   H7B 7451   5.810   5.287  10.064 -0.1670  0.0128 -1.1290
   68CHL1    C8 7452   5.785   5.083   9.976 -0.1536 -0.0005 -0.5799
   68CHL1    H8 7453   5.707   5.005   9.973  0.1295 -0.3229  0.3112
   68CHL1   C14 7454   5.803   5.158   9.841  0.5285  0.2276 -0.2804
   68CHL1   H14 7455   5.892   5.224   9.858  0.9642 -0.9864  2.9606
   68CHL1   C15 7456   5.700   5.263   9.798  0.4529  0.4595 -1.0287
   68CHL1  H15A 7457   5.596   5.223   9.800  0.5399  0.2292 -1.0033
   68CHL1  H15B 7458   5.714   5.348   9.868 -1.1078  0.3955 -0.5998
   68CHL1   C16 7459   5.737   5.291   9.651  0.5868  0.5356  0.2620
   68CHL1  H16A 7460   5.635   5.280   9.608  0.5116 -0.2903  0.6316
   68CHL1  H16B 7461   5.765   5.395   9.626  1.8803  0.2605  0.5042
   68CHL1   C17 7462   5.835   5.182   9.603  0.1428 -0.2125  0.2896
   68CHL1   H17 7463   5.934   5.233   9.606  0.1005  0.0899 -1.9739
   68CHL1   C13 7464   5.832   5.072   9.720  0.5170 -0.2459  0.9230
   68CHL1   C18 7465   5.719   4.974   9.692  0.6518  0.5475 -0.3759
   68CHL1  H18A 7466   5.762   4.904   9.617  1.6299 -0.2919  0.9276
   68CHL1  H18B 7467   5.697   4.910   9.781 -1.4984  0.3009 -1.0194
   68CHL1  H18C 7468   5.622   5.013   9.654 -0.4336 -2.4009 -0.9501
   68CHL1   C12 7469   5.960   4.994   9.752 -0.6331 -0.0811  0.8618
   68CHL1  H12A 7470   6.010   4.936   9.671 -1.5642 -1.2962  1.1145
   68CHL1  H12B 7471   6.040   5.067   9.775  0.6357 -1.1245 -0.0490
   68CHL1   C11 7472   5.954   4.920   9.884  0.4023 -0.1782 -0.8905
   68CHL1  H11A 7473   5.882   4.836   9.873  2.3992 -2.2836  1.0131
   68CHL1  H11B 7474   6.056   4.878   9.892  0.3703  0.1090  1.6647
   68CHL1    C9 7475   5.916   5.005  10.007  0.2649 -0.3539 -0.2089
   68CHL1    H9 7476   5.997   5.080  10.020  2.9685 -3.2482  0.6978
   68CHL1   C10 7477   5.902   4.936  10.142  0.2940  0.1609 -0.2973
   68CHL1   C19 7478   5.819   4.807  10.128 -0.2879  0.0617 -0.4562
   68CHL1  H19A 7479   5.880   4.723  10.087 -0.6653 -0.9773  1.0434
   68CHL1  H19B 7480   5.793   4.775  10.231  1.7210  0.3141  0.1800
   68CHL1  H19C 7481   5.729   4.844  10.075 -0.2852  1.4878  0.4868
   68CHL1    C1 7482   6.048   4.901  10.179  0.2745  0.3016  0.0177
   68CHL1   H1A 7483   6.086   4.820  10.113  1.9195  1.0495  0.0097
   68CHL1   H1B 7484   6.118   4.984  10.155 -0.0073  0.3352 -0.6959
   68CHL1    C2 7485   6.065   4.866  10.324 -0.2339 -0.1549 -0.3783
   68CHL1   H2A 7486   6.171   4.849  10.351  0.0410  1.0407 -0.6454
   68CHL1   H2B 7487   6.014   4.768  10.337 -0.3524 -0.2457 -1.4116
   68CHL1   C20 7488   5.819   5.152   9.452 -0.5072 -0.1128 -0.1144
   68CHL1   H20 7489   5.714   5.120   9.443 -0.6342  0.6300 -1.9263
   68CHL1   C21 7490   5.918   5.044   9.416  0.1678  0.0941 -0.6217
   68CHL1  H21A 7491   5.898   4.951   9.473 -1.1556  2.1564  2.5717
   68CHL1  H21B 7492   6.021   5.070   9.446  0.0670  2.3127 -1.9754
   68CHL1  H21C 7493   5.929   5.025   9.307  1.3965 -3.1939 -0.0278
   68CHL1   C22 7494   5.823   5.283   9.363  0.0339  0.3544 -0.0540
   68CHL1  H22A 7495   5.728   5.332   9.391 -0.8703 -2.2625  1.9160
   68CHL1  H22B 7496   5.911   5.342   9.396 -0.1299 -0.0454  1.1747
   68CHL1   C23 7497   5.830   5.262   9.204 -0.4618  0.4528  0.0357
   68CHL1  H23A 7498   5.934   5.231   9.181 -0.3152  1.1489 -0.2452
   68CHL1  H23B 7499   5.757   5.183   9.174  0.8485 -0.4022 -1.0534
   68CHL1   C24 7500   5.798   5.384   9.131  0.2044  0.3685  0.2473
   68CHL1  H24A 7501   5.698   5.417   9.167 -0.4287 -3.5393  2.6154
   68CHL1  H24B 7502   5.870   5.462   9.163 -0.5640  0.7844  0.9890
   68CHL1   C25 7503   5.780   5.387   8.976  0.4240 -0.2839 -0.6088
   68CHL1   H25 7504   5.717   5.299   8.951  0.0826 -0.6761  1.4193
   68CHL1   C26 7505   5.726   5.521   8.925 -0.0268  0.5680 -0.4438
   68CHL1  H26A 7506   5.811   5.591   8.936 -0.1753  0.3701  3.0525
   68CHL1  H26B 7507   5.694   5.511   8.819  0.1496  3.1222 -0.7932
   68CHL1  H26C 7508   5.645   5.552   8.995  0.7492 -0.6689  1.0607
   68CHL1   C27 7509   5.911   5.354   8.900  0.1156 -0.3625 -1.0119
   68CHL1  H27A 7510   5.989   5.416   8.951  1.3462 -2.8132  0.2763
   68CHL1  H27B 7511   5.944   5.248   8.909 -2.0956 -0.9699  0.8662
   68CHL1  H27C 7512   5.913   5.382   8.793 -2.7224 -2.0170 -1.5945
   69CHL1    C3 7513   5.219   2.900   6.934 -0.6661 -0.3277  0.1270
   69CHL1    H3 7514   5.123   2.933   6.980  0.5202  0.3554  2.2383
   69CHL1    O3 7515   5.219   2.880   6.795  0.5212  0.0244  0.0772
   69CHL1   H3' 7516   5.241   2.960   6.747 -0.9632 -0.4580 -1.5046
   69CHL1    C4 7517   5.318   3.017   6.971  0.4298  0.3175  0.4309
   69CHL1   H4A 7518   5.420   2.994   6.932  0.2880  0.4632 -0.0342
   69CHL1   H4B 7519   5.279   3.110   6.924  1.2142  0.8409  0.7925
   69CHL1    C5 7520   5.325   3.036   7.121 -0.9612  0.0005  0.3114
   69CHL1    C6 7521   5.319   3.155   7.184 -0.9889  0.6444  1.1909
   69CHL1    H6 7522   5.295   3.239   7.117 -1.5748 -1.7118 -1.7835
   69CHL1    C7 7523   5.323   3.176   7.331  0.1601  0.5513 -0.0671
   69CHL1   H7A 7524   5.396   3.257   7.355 -0.9824  1.2759  1.1187
   69CHL1   H7B 7525   5.226   3.220   7.364  0.1920 -0.4392  1.4752
   69CHL1    C8 7526   5.359   3.049   7.419  0.0524 -1.0771  0.1597
   69CHL1    H8 7527   5.470   3.042   7.424  0.1631 -0.1278 -0.7446
   69CHL1   C14 7528   5.313   3.064   7.561  0.0451 -0.3632  0.1583
   69CHL1   H14 7529   5.204   3.080   7.569 -0.3241 -0.6420 -3.2327
   69CHL1   C15 7530   5.362   3.189   7.635 -0.4363 -0.4278 -0.2804
   69CHL1  H15A 7531   5.472   3.200   7.626 -0.4595 -0.1047 -0.1834
   69CHL1  H15B 7532   5.318   3.286   7.603  2.3899  1.8237  2.0532
   69CHL1   C16 7533   5.334   3.159   7.779 -0.1672 -0.0634  0.2540
   69CHL1  H16A 7534   5.421   3.193   7.838 -1.2395  0.3045  1.6888
   69CHL1  H16B 7535   5.242   3.211   7.814  0.4702  0.4290  1.2589
   69CHL1   C17 7536   5.302   3.004   7.785 -0.1105  0.9441  0.5782
   69CHL1   H17 7537   5.191   3.005   7.783 -0.1373 -0.6280  0.4180
   69CHL1   C13 7538   5.351   2.951   7.649  0.1698  0.2089 -0.6181
   69CHL1   C18 7539   5.506   2.933   7.665  0.1348 -0.9538  0.5253
   69CHL1  H18A 7540   5.555   2.928   7.565 -0.0033 -0.8500  0.4512
   69CHL1  H18B 7541   5.556   3.008   7.730 -1.0443 -0.5294  0.9735
   69CHL1  H18C 7542   5.523   2.831   7.706  3.5334 -0.5655  0.3916
   69CHL1   C12 7543   5.282   2.827   7.600 -0.4967  0.1519  0.2937
   69CHL1  H12A 7544   5.318   2.738   7.655  1.5187 -0.2320 -1.4984
   69CHL1  H12B 7545   5.172   2.829   7.613 -0.2977  0.9355  2.0346
   69CHL1   C11 7546   5.321   2.793   7.453 -0.0989 -0.1804  0.4088
   69CHL1  H11A 7547   5.425   2.759   7.468 -0.9698 -2.8641  0.8872
   69CHL1  H11B 7548   5.268   2.706   7.409  1.1245 -1.9127  2.1809
   69CHL1    C9 7549   5.302   2.924   7.360  0.5559  0.4802  0.0456
   69CHL1    H9 7550   5.194   2.941   7.346  0.3011 -1.6522 -0.9433
   69CHL1   C10 7551   5.337   2.901   7.206  0.3568  0.2728  0.3496
   69CHL1   C19 7552   5.487   2.853   7.217 -1.4074  0.8116  0.1856
   69CHL1  H19A 7553   5.533   2.851   7.116  0.1738 -2.6845  0.8383
   69CHL1  H19B 7554   5.539   2.934   7.273 -1.6578  0.0917  1.4925
   69CHL1  H19C 7555   5.504   2.753   7.261  0.3354  0.8796 -0.2505
   69CHL1    C1 7556   5.262   2.781   7.149  0.6787  0.4102  0.6925
   69CHL1   H1A 7557   5.302   2.687   7.192 -1.1259 -0.4241  0.6580
   69CHL1   H1B 7558   5.158   2.794   7.189  0.7698 -0.1529  1.1280
   69CHL1    C2 7559   5.263   2.769   6.999 -0.1759  0.1269  0.2577
   69CHL1   H2A 7560   5.202   2.683   6.964 -2.1436  1.9816 -1.1794
   69CHL1   H2B 7561   5.370   2.761   6.969 -0.2478 -2.1956  0.4506
   69CHL1   C20 7562   5.349   2.938   7.920  0.6378  0.3981 -0.1679
   69CHL1   H20 7563   5.459   2.931   7.912  0.4093 -1.9782 -3.6521
   69CHL1   C21 7564   5.287   2.801   7.943  0.5811  1.1616 -0.6736
   69CHL1  H21A 7565   5.183   2.819   7.975  0.5708  1.7516 -1.0185
   69CHL1  H21B 7566   5.341   2.741   8.019 -0.9638  1.3651  0.6047
   69CHL1  H21C 7567   5.307   2.737   7.853  0.0735 -1.0454  0.7109
   69CHL1   C22 7568   5.305   3.024   8.046  0.1756  0.6903 -0.3922
   69CHL1  H22A 7569   5.374   3.109   8.030  0.6119  0.3747 -0.1882
   69CHL1  H22B 7570   5.196   3.046   8.036  0.1913  1.5038  0.9831
   69CHL1   C23 7571   5.327   2.952   8.185  0.0627  0.1532  0.3712
   69CHL1  H23A 7572   5.267   2.859   8.192 -2.4925  1.7471  1.4888
   69CHL1  H23B 7573   5.433   2.942   8.216 -0.1964  0.1345  1.2625
   69CHL1   C24 7574   5.285   3.049   8.296 -0.3079 -0.4076 -0.0543
   69CHL1  H24A 7575   5.340   3.144   8.280  0.6067 -1.0008 -0.5268
   69CHL1  H24B 7576   5.178   3.076   8.286 -0.3217  0.0807  1.2192
   69CHL1   C25 7577   5.311   3.005   8.440 -0.2492 -0.3124 -0.2560
   69CHL1   H25 7578   5.421   2.997   8.454 -0.2738  0.7116  0.6767
   69CHL1   C26 7579   5.267   3.123   8.536 -0.3689  0.2327  0.2802
   69CHL1  H26A 7580   5.157   3.141   8.530 -0.4131  0.4862  1.5610
   69CHL1  H26B 7581   5.294   3.097   8.641  3.9817  0.7358 -0.5337
   69CHL1  H26C 7582   5.327   3.209   8.499 -0.1833 -0.6711 -1.6086
   69CHL1   C27 7583   5.238   2.870   8.465 -0.3908 -0.4103  0.3474
   69CHL1  H27A 7584   5.140   2.881   8.415 -0.2879  1.3630  0.4599
   69CHL1  H27B 7585   5.278   2.781   8.412  0.2719 -0.0455  0.2151
   69CHL1  H27C 7586   5.216   2.842   8.570 -1.4110 -1.1774 -0.0508
   70CHL1    C3 7587   3.650   5.238   6.863 -0.1658  0.6630  0.2107
   70CHL1    H3 7588   3.610   5.138   6.891  1.8090 -0.2909 -0.1791
   70CHL1    O3 7589   3.688   5.231   6.725 -0.7778  0.1477  0.2628
   70CHL1   H3' 7590   3.721   5.317   6.698 -2.4044  0.4194 -1.0575
   70CHL1    C4 7591   3.557   5.354   6.872 -0.5022 -0.4233 -0.2438
   70CHL1   H4A 7592   3.596   5.446   6.823  0.1248  0.1009  1.1746
   70CHL1   H4B 7593   3.472   5.322   6.809  0.9720  0.7372 -2.9600
   70CHL1    C5 7594   3.512   5.386   7.013  0.0426 -0.6771  0.0564
   70CHL1    C6 7595   3.381   5.394   7.051 -0.2674  0.7445  0.7580
   70CHL1    H6 7596   3.312   5.370   6.970  1.5202  1.5426 -1.0889
   70CHL1    C7 7597   3.330   5.438   7.183 -0.0652  0.3629 -0.2517
   70CHL1   H7A 7598   3.268   5.529   7.164 -0.2724  0.5399  1.2044
   70CHL1   H7B 7599   3.275   5.355   7.233 -2.6070  1.4675 -1.0142
   70CHL1    C8 7600   3.442   5.480   7.284  0.1776 -0.3795 -0.2551
   70CHL1    H8 7601   3.474   5.583   7.261 -0.2918 -0.1518  0.1000
   70CHL1   C14 7602   3.385   5.471   7.425 -0.7638  0.2682 -0.0217
   70CHL1   H14 7603   3.374   5.361   7.437 -1.6137  0.4866  1.4885
   70CHL1   C15 7604   3.260   5.545   7.468  0.2224 -0.1780 -0.0871
   70CHL1  H15A 7605   3.258   5.642   7.414  0.3122 -0.9763 -1.5747
   70CHL1  H15B 7606   3.165   5.499   7.435 -0.0924  1.0287 -0.9215
   70CHL1   C16 7607   3.273   5.565   7.625  0.3334 -0.0708 -0.5448
   70CHL1  H16A 7608   3.285   5.673   7.648  2.4998 -0.8319  2.5109
   70CHL1  H16B 7609   3.187   5.528   7.684 -0.2922  2.6563  0.4208
   70CHL1   C17 7610   3.411   5.502   7.664 -0.3233 -0.4237  0.7431
   70CHL1   H17 7611   3.382   5.394   7.667  0.4251 -0.6565  0.0701
   70CHL1   C13 7612   3.493   5.513   7.528  0.2624  0.5238  0.1570
   70CHL1   C18 7613   3.533   5.667   7.500  0.5532  0.0625  0.4230
   70CHL1  H18A 7614   3.602   5.702   7.580  1.6515  0.3990 -0.6523
   70CHL1  H18B 7615   3.593   5.669   7.407 -0.8050 -3.1558 -0.6635
   70CHL1  H18C 7616   3.456   5.747   7.491 -0.1296 -0.4304  1.6390
   70CHL1   C12 7617   3.609   5.416   7.509  0.1344  0.0435 -0.2167
   70CHL1  H12A 7618   3.691   5.442   7.580 -0.1364  2.1625 -0.5956
   70CHL1  H12B 7619   3.571   5.317   7.539  0.4486 -0.2763 -0.8534
   70CHL1   C11 7620   3.683   5.422   7.366  0.5021  0.0979 -0.5102
   70CHL1  H11A 7621   3.736   5.519   7.351  0.9496  0.1419  1.1963
   70CHL1  H11B 7622   3.770   5.353   7.359 -0.9299 -1.7712 -0.7400
   70CHL1    C9 7623   3.571   5.398   7.259 -0.3692 -0.4445  0.9259
   70CHL1    H9 7624   3.553   5.289   7.272  0.3180 -0.6534  0.1846
   70CHL1   C10 7625   3.624   5.403   7.111  0.4092  0.3462 -0.3841
   70CHL1   C19 7626   3.668   5.549   7.079 -0.2687 -1.0171  0.1235
   70CHL1  H19A 7627   3.742   5.591   7.151 -0.6286 -1.5640  0.8179
   70CHL1  H19B 7628   3.722   5.545   6.982 -2.2314 -0.8500 -1.0260
   70CHL1  H19C 7629   3.587   5.624   7.065 -0.7109 -1.3130  1.0386
   70CHL1    C1 7630   3.738   5.303   7.095 -0.4110  0.5050  0.3524
   70CHL1   H1A 7631   3.830   5.352   7.132  0.3620 -0.3096 -0.4379
   70CHL1   H1B 7632   3.711   5.210   7.147 -0.5746  0.0391 -0.5425
   70CHL1    C2 7633   3.771   5.257   6.954  0.0354  0.2098  0.2839
   70CHL1   H2A 7634   3.831   5.164   6.964 -1.8223 -1.2305 -1.3144
   70CHL1   H2B 7635   3.828   5.338   6.904 -1.5077  1.0925 -0.1232
   70CHL1   C20 7636   3.483   5.555   7.790 -0.2356 -0.2470  0.7175
   70CHL1   H20 7637   3.581   5.596   7.759  0.6992 -2.0426  1.1217
   70CHL1   C21 7638   3.520   5.425   7.869 -0.6362 -0.0626 -0.3559
   70CHL1  H21A 7639   3.593   5.358   7.819  0.8013  0.2439  1.2284
   70CHL1  H21B 7640   3.424   5.375   7.894 -0.4374 -1.6142 -2.4963
   70CHL1  H21C 7641   3.561   5.458   7.967  0.6592 -1.7109 -0.3166
   70CHL1   C22 7642   3.401   5.644   7.874  0.5646 -0.2667 -0.2470
   70CHL1  H22A 7643   3.404   5.738   7.814  0.1483 -0.7568 -1.0426
   70CHL1  H22B 7644   3.297   5.615   7.896  0.5060  0.0652 -0.0753
   70CHL1   C23 7645   3.462   5.701   8.010 -0.2807  0.0567  0.9926
   70CHL1  H23A 7646   3.430   5.627   8.087 -2.0638  0.8734  1.1129
   70CHL1  H23B 7647   3.571   5.718   8.018 -0.5148  2.5346 -0.2503
   70CHL1   C24 7648   3.404   5.842   8.052  1.0139  0.6480 -0.1148
   70CHL1  H24A 7649   3.443   5.908   7.972  1.1317 -1.0071 -1.4999
   70CHL1  H24B 7650   3.294   5.836   8.057  1.0829  0.5722  1.7129
   70CHL1   C25 7651   3.458   5.900   8.184 -0.0333 -0.1414  1.2179
   70CHL1   H25 7652   3.569   5.892   8.181  0.2757  2.8825  1.4875
   70CHL1   C26 7653   3.421   6.044   8.193  0.1052  0.6499  0.2244
   70CHL1  H26A 7654   3.314   6.049   8.221 -0.1758 -2.3310  0.0979
   70CHL1  H26B 7655   3.489   6.106   8.256  4.0326 -1.8845 -1.0986
   70CHL1  H26C 7656   3.428   6.095   8.094 -1.0965  1.1864  0.4079
   70CHL1   C27 7657   3.419   5.827   8.314  0.0721  0.3434 -0.6786
   70CHL1  H27A 7658   3.313   5.844   8.345  0.1295 -0.6562  0.1230
   70CHL1  H27B 7659   3.438   5.718   8.301  1.5260  0.5062 -0.1399
   70CHL1  H27C 7660   3.489   5.850   8.398 -0.6995 -0.1184  0.1137
   71CHL1    C3 7661   3.199   3.341   6.719  0.6273 -0.3601 -0.2934
   71CHL1    H3 7662   3.293   3.401   6.716 -0.4408  1.3631 -2.5625
   71CHL1    O3 7663   3.161   3.314   6.583  0.5464  0.5198  0.7071
   71CHL1   H3' 7664   3.243   3.272   6.555 -0.6867 -1.6267  0.0717
   71CHL1    C4 7665   3.230   3.202   6.782 -0.2587  0.6025  0.3378
   71CHL1   H4A 7666   3.141   3.135   6.786 -1.6224  2.3229  0.0628
   71CHL1   H4B 7667   3.300   3.147   6.716  0.9765  2.1367  0.3287
   71CHL1    C5 7668   3.265   3.210   6.929  0.7658  0.3847  0.0484
   71CHL1    C6 7669   3.381   3.168   6.978 -0.1211  0.0399 -0.3096
   71CHL1    H6 7670   3.455   3.131   6.906  0.7188  2.4036 -0.7175
   71CHL1    C7 7671   3.427   3.167   7.118  0.2440 -0.5028 -0.6147
   71CHL1   H7A 7672   3.448   3.061   7.143  2.8918  0.3457  1.2439
   71CHL1   H7B 7673   3.521   3.226   7.118  0.1698 -0.3844 -0.6675
   71CHL1    C8 7674   3.311   3.223   7.210 -0.8366  0.3799 -0.9357
   71CHL1    H8 7675   3.250   3.132   7.232  0.5854 -0.9970 -2.3870
   71CHL1   C14 7676   3.370   3.275   7.341 -0.1008 -0.1231  0.0452
   71CHL1   H14 7677   3.435   3.363   7.324  1.4169 -1.7227 -3.2436
   71CHL1   C15 7678   3.470   3.181   7.420  0.5613  0.0308  0.3002
   71CHL1  H15A 7679   3.441   3.074   7.407  1.1850 -0.1264  0.1672
   71CHL1  H15B 7680   3.571   3.201   7.381 -0.0576  0.4911 -1.1312
   71CHL1   C16 7681   3.458   3.235   7.567  0.5058 -0.1025  0.5002
   71CHL1  H16A 7682   3.418   3.159   7.638 -0.4197  0.7570  0.9259
   71CHL1  H16B 7683   3.565   3.250   7.595  0.7676 -0.4435 -0.2904
   71CHL1   C17 7684   3.357   3.355   7.568  0.4955  0.4464 -0.2143
   71CHL1   H17 7685   3.409   3.449   7.543 -0.4402  0.7309 -1.1837
   71CHL1   C13 7686   3.262   3.330   7.447 -0.1926 -0.2987  0.2564
   71CHL1   C18 7687   3.160   3.221   7.486  0.5485  0.3101  0.1333
   71CHL1  H18A 7688   3.075   3.266   7.543  0.0705 -0.3708 -0.0324
   71CHL1  H18B 7689   3.123   3.159   7.402  1.4412  0.9307 -0.7298
   71CHL1  H18C 7690   3.212   3.145   7.547 -0.0411  0.9193  1.4417
   71CHL1   C12 7691   3.193   3.448   7.374 -0.0367 -0.1967  0.2318
   71CHL1  H12A 7692   3.115   3.490   7.441 -0.2270  0.5471 -0.4263
   71CHL1  H12B 7693   3.264   3.530   7.347 -0.1405 -0.0468  0.4118
   71CHL1   C11 7694   3.130   3.404   7.245 -0.1932 -0.0438 -0.6076
   71CHL1  H11A 7695   3.042   3.341   7.270  0.6462 -1.9983 -2.2079
   71CHL1  H11B 7696   3.088   3.493   7.194  0.2459 -0.1470 -1.1624
   71CHL1    C9 7697   3.229   3.330   7.147  0.0274 -0.6837 -0.9521
   71CHL1    H9 7698   3.311   3.403   7.128  2.2023 -2.9416 -0.7314
   71CHL1   C10 7699   3.167   3.287   7.012  0.5540  0.0179 -0.0931
   71CHL1   C19 7700   3.033   3.204   7.036 -0.3528 -0.2052  0.6991
   71CHL1  H19A 7701   2.996   3.175   6.935  2.2125  1.1060 -0.7291
   71CHL1  H19B 7702   3.064   3.114   7.093 -0.9971  1.1405  3.2987
   71CHL1  H19C 7703   2.955   3.258   7.093 -0.9532 -0.0784 -0.2229
   71CHL1    C1 7704   3.128   3.424   6.946 -0.9943 -0.3491 -0.3968
   71CHL1   H1A 7705   3.048   3.474   7.005  0.5904 -0.7218  2.2144
   71CHL1   H1B 7706   3.218   3.488   6.959 -1.3750 -0.1569  1.5473
   71CHL1    C2 7707   3.094   3.414   6.803 -0.0217 -0.4172 -0.2139
   71CHL1   H2A 7708   3.063   3.513   6.764 -2.2535  0.0986  2.5713
   71CHL1   H2B 7709   3.002   3.353   6.806 -0.4811  0.2810  0.0702
   71CHL1   C20 7710   3.291   3.374   7.712 -0.4028  0.7174 -0.3164
   71CHL1   H20 7711   3.234   3.280   7.730  0.3846 -0.1390 -1.9989
   71CHL1   C21 7712   3.201   3.495   7.720 -0.0047 -0.3293 -0.0429
   71CHL1  H21A 7713   3.263   3.587   7.729  0.3012 -0.7068  2.4932
   71CHL1  H21B 7714   3.138   3.475   7.810 -0.8741 -2.4167 -1.0548
   71CHL1  H21C 7715   3.136   3.501   7.630  0.5442  3.7623 -0.3429
   71CHL1   C22 7716   3.399   3.398   7.815 -0.4627 -0.4436  0.3543
   71CHL1  H22A 7717   3.470   3.314   7.825 -0.8986 -1.1630 -1.9977
   71CHL1  H22B 7718   3.457   3.489   7.792 -1.4073 -0.3327 -1.7969
   71CHL1   C23 7719   3.341   3.427   7.951 -0.2887 -0.1835 -0.1391
   71CHL1  H23A 7720   3.281   3.520   7.962 -0.1453 -0.0129 -0.7566
   71CHL1  H23B 7721   3.276   3.346   7.990  0.0153 -1.7340 -2.6224
   71CHL1   C24 7722   3.450   3.445   8.067  0.5576 -0.0851  0.6248
   71CHL1  H24A 7723   3.496   3.345   8.082  1.0288  0.2200  1.2552
   71CHL1  H24B 7724   3.532   3.513   8.036  0.2701 -0.4115 -0.9390
   71CHL1   C25 7725   3.399   3.484   8.213 -0.6826  0.1810  0.2023
   71CHL1   H25 7726   3.362   3.589   8.209 -0.5968  0.2759  1.4544
   71CHL1   C26 7727   3.312   3.372   8.262  0.5690 -0.2939 -0.1387
   71CHL1  H26A 7728   3.360   3.273   8.246  0.7276 -0.0695 -1.0694
   71CHL1  H26B 7729   3.294   3.381   8.372 -0.1374  1.4978 -0.3715
   71CHL1  H26C 7730   3.210   3.378   8.219  0.7276  2.5999 -0.3075
   71CHL1   C27 7731   3.516   3.498   8.311 -0.3625 -0.6196 -0.6013
   71CHL1  H27A 7732   3.542   3.605   8.300 -1.6402 -0.3171 -0.8384
   71CHL1  H27B 7733   3.481   3.480   8.415  0.0635  2.1127  0.0827
   71CHL1  H27C 7734   3.602   3.433   8.283  1.7567  1.0765  1.5196
   72CHL1    C3 7735   2.867   6.599   6.963 -0.0834 -0.0032  0.7282
   72CHL1    H3 7736   2.814   6.696   6.953  0.2476  0.1006 -0.1635
   72CHL1    O3 7737   2.875   6.541   6.838  0.4421  0.6370 -0.2029
   72CHL1   H3' 7738   2.967   6.523   6.816  0.6803  0.1034  1.1224
   72CHL1    C4 7739   3.006   6.622   7.019 -0.1425 -0.1689  0.3465
   72CHL1   H4A 7740   3.037   6.516   7.026 -0.6160 -0.3119  0.3430
   72CHL1   H4B 7741   3.072   6.674   6.947  0.0075  0.1963  0.7441
   72CHL1    C5 7742   3.004   6.678   7.159 -0.1649  0.3526  0.3378
   72CHL1    C6 7743   3.056   6.801   7.193  0.4441  0.3768 -0.3429
   72CHL1    H6 7744   3.116   6.853   7.117  1.1489 -0.0347 -0.0861
   72CHL1    C7 7745   3.069   6.850   7.338 -0.0887  0.3542  0.3223
   72CHL1   H7A 7746   3.173   6.885   7.350 -0.0630  1.0636 -1.6658
   72CHL1   H7B 7747   2.997   6.934   7.337  0.0142  0.4389 -0.8873
   72CHL1    C8 7748   3.011   6.753   7.445 -0.6195 -0.3596  0.9006
   72CHL1    H8 7749   3.090   6.679   7.466 -0.6950 -0.1809  1.8676
   72CHL1   C14 7750   2.955   6.836   7.558  0.0140  0.9632  0.2471
   72CHL1   H14 7751   2.873   6.899   7.517 -1.1214 -0.6929 -0.1472
   72CHL1   C15 7752   3.046   6.946   7.627  0.3713  0.5240  0.1436
   72CHL1  H15A 7753   3.141   6.896   7.655 -0.7219 -1.2206  0.9175
   72CHL1  H15B 7754   3.068   7.026   7.552 -2.2214 -1.0791 -2.5520
   72CHL1   C16 7755   2.960   6.995   7.739  0.2335  0.1689  0.1893
   72CHL1  H16A 7756   3.020   7.019   7.830 -3.0736  0.5980  2.4449
   72CHL1  H16B 7757   2.908   7.090   7.716 -0.6000 -0.2578  0.2551
   72CHL1   C17 7758   2.854   6.879   7.773  0.0792 -0.1929  0.0467
   72CHL1   H17 7759   2.760   6.926   7.739  0.5929  0.9298  0.1409
   72CHL1   C13 7760   2.886   6.763   7.681  0.4170  0.5424 -0.2918
   72CHL1   C18 7761   2.987   6.670   7.754  0.3315 -0.2868 -0.6721
   72CHL1  H18A 7762   3.034   6.598   7.684 -1.6204  0.0860 -2.4933
   72CHL1  H18B 7763   3.061   6.727   7.814 -0.9433  1.4170 -0.6361
   72CHL1  H18C 7764   2.923   6.610   7.823  0.6162  0.0260 -0.1390
   72CHL1   C12 7765   2.765   6.688   7.621 -0.0675 -0.1192  0.3235
   72CHL1  H12A 7766   2.718   6.625   7.699  0.3473  0.6609  1.2329
   72CHL1  H12B 7767   2.691   6.763   7.583 -0.3601 -0.4720  0.1920
   72CHL1   C11 7768   2.816   6.597   7.508  0.2564 -0.0886  0.5151
   72CHL1  H11A 7769   2.873   6.512   7.550 -0.9554 -1.2696 -0.1366
   72CHL1  H11B 7770   2.727   6.545   7.465 -0.6217 -0.2017  2.3682
   72CHL1    C9 7771   2.890   6.678   7.393 -0.1546 -0.8972  0.4121
   72CHL1    H9 7772   2.819   6.758   7.363  0.5264 -1.6396 -3.8215
   72CHL1   C10 7773   2.914   6.598   7.263 -0.7308  0.3456 -0.3424
   72CHL1   C19 7774   2.984   6.465   7.296 -0.6035  0.3402  0.5737
   72CHL1  H19A 7775   3.000   6.404   7.205 -1.6476 -0.7818  1.1211
   72CHL1  H19B 7776   3.083   6.472   7.346 -0.8486  0.1100  1.1043
   72CHL1  H19C 7777   2.911   6.406   7.356 -0.8185 -1.3109 -1.2265
   72CHL1    C1 7778   2.787   6.560   7.192 -0.3686  0.0310 -0.5339
   72CHL1   H1A 7779   2.731   6.488   7.256 -2.6708  1.6015 -0.6687
   72CHL1   H1B 7780   2.723   6.649   7.205 -0.3727  0.2126 -1.7565
   72CHL1    C2 7781   2.791   6.506   7.049  0.0349 -1.1627 -0.3689
   72CHL1   H2A 7782   2.685   6.505   7.014 -0.6519 -2.4522  1.5567
   72CHL1   H2B 7783   2.830   6.403   7.041  3.2567 -0.1530  0.9694
   72CHL1   C20 7784   2.834   6.855   7.923  0.4443  0.6785 -0.0608
   72CHL1   H20 7785   2.916   6.786   7.952 -1.2274 -1.3430  0.0440
   72CHL1   C21 7786   2.698   6.799   7.958  0.5169  0.3319 -0.0702
   72CHL1  H21A 7787   2.695   6.777   8.067 -0.6428 -0.9871 -0.3329
   72CHL1  H21B 7788   2.679   6.699   7.914  1.3611  0.2856 -0.3419
   72CHL1  H21C 7789   2.616   6.868   7.928  0.1889 -1.4182 -3.7989
   72CHL1   C22 7790   2.855   6.981   8.013  0.9192  0.0657 -0.2398
   72CHL1  H22A 7791   2.851   6.942   8.117  1.9379  0.9429  0.1498
   72CHL1  H22B 7792   2.955   7.030   8.010  0.3376  1.3450  0.6292
   72CHL1   C23 7793   2.741   7.085   8.010 -0.3337  0.6600  0.1321
   72CHL1  H23A 7794   2.727   7.107   7.902  1.4113  0.6393 -0.1283
   72CHL1  H23B 7795   2.652   7.034   8.053  0.1953  0.1150  0.6116
   72CHL1   C24 7796   2.764   7.223   8.085 -0.2506  0.1615 -0.8504
   72CHL1  H24A 7797   2.673   7.285   8.100 -1.0435 -1.0397 -0.4739
   72CHL1  H24B 7798   2.796   7.203   8.189  1.1462 -1.1796 -1.4945
   72CHL1   C25 7799   2.886   7.305   8.034  1.0155 -0.2661  0.7358
   72CHL1   H25 7800   2.975   7.239   8.047  0.4090 -1.2968 -0.1410
   72CHL1   C26 7801   2.870   7.336   7.883  0.1382  0.4594 -0.1518
   72CHL1  H26A 7802   2.779   7.396   7.860 -0.4994 -1.1938 -2.2529
   72CHL1  H26B 7803   2.953   7.401   7.846 -0.3542  0.8089 -0.6654
   72CHL1  H26C 7804   2.875   7.242   7.824  0.2813  0.3712  0.0002
   72CHL1   C27 7805   2.894   7.439   8.106 -0.4311  0.7719  0.6569
   72CHL1  H27A 7806   2.925   7.428   8.213  0.8374 -2.3140  0.0814
   72CHL1  H27B 7807   2.953   7.510   8.045  2.3864 -1.2575  0.7744
   72CHL1  H27C 7808   2.790   7.477   8.102 -0.3325  0.9501 -0.5520
   73CHL1    C3 7809   3.769   2.900   6.837  0.2290 -1.8289  0.2599
   73CHL1    H3 7810   3.874   2.930   6.820 -0.7782  1.3502 -1.2211
   73CHL1    O3 7811   3.699   2.917   6.713  0.2402  0.7753 -0.2606
   73CHL1   H3' 7812   3.615   2.872   6.721 -0.1501  1.5783  0.2808
   73CHL1    C4 7813   3.762   2.756   6.895 -0.7315 -0.6672 -0.3205
   73CHL1   H4A 7814   3.653   2.731   6.902 -1.3754  1.3347 -2.0673
   73CHL1   H4B 7815   3.808   2.687   6.820 -1.6799 -1.1408 -0.4918
   73CHL1    C5 7816   3.827   2.733   7.030 -0.2775  0.4385  0.5955
   73CHL1    C6 7817   3.929   2.649   7.054 -0.0394  0.1246  0.4413
   73CHL1    H6 7818   3.960   2.589   6.967  0.8207  2.0646 -0.6493
   73CHL1    C7 7819   3.980   2.617   7.185 -0.3813  0.0343  0.6553
   73CHL1   H7A 7820   3.976   2.507   7.203  1.1849 -0.2556 -0.5859
   73CHL1   H7B 7821   4.087   2.642   7.200 -0.1859 -0.2451 -0.2132
   73CHL1    C8 7822   3.903   2.683   7.296 -0.0857 -0.2837 -0.1643
   73CHL1    H8 7823   3.810   2.622   7.303 -0.1152 -0.4056 -1.3460
   73CHL1   C14 7824   3.974   2.667   7.434  0.2438 -0.0433 -0.2037
   73CHL1   H14 7825   4.063   2.734   7.425  1.4567 -1.5463  0.3144
   73CHL1   C15 7826   4.031   2.533   7.480 -0.6277  0.3303  0.3916
   73CHL1  H15A 7827   3.964   2.453   7.444 -1.4375  1.0318  0.3113
   73CHL1  H15B 7828   4.135   2.521   7.443 -0.3650 -0.7625  1.4403
   73CHL1   C16 7829   4.040   2.543   7.634  0.7650 -0.2954 -0.0118
   73CHL1  H16A 7830   3.969   2.472   7.681 -0.9251  1.0019 -0.4768
   73CHL1  H16B 7831   4.138   2.519   7.680 -0.0742 -0.0801  1.9814
   73CHL1   C17 7832   3.985   2.687   7.668 -0.4006 -0.1322 -0.6026
   73CHL1   H17 7833   4.070   2.758   7.663  1.8906 -2.6996 -0.3813
   73CHL1   C13 7834   3.891   2.722   7.551  0.1449  0.7492 -0.2389
   73CHL1   C18 7835   3.758   2.648   7.572  0.5307 -0.1969  0.6233
   73CHL1  H18A 7836   3.763   2.537   7.573 -1.3075 -0.3064  0.8122
   73CHL1  H18B 7837   3.711   2.690   7.664 -0.7919  0.4338 -0.3162
   73CHL1  H18C 7838   3.690   2.668   7.486  0.7474  0.1560  0.5309
   73CHL1   C12 7839   3.879   2.875   7.523  0.1541 -0.3577  0.5161
   73CHL1  H12A 7840   3.822   2.934   7.599  0.0009  1.1319 -0.7034
   73CHL1  H12B 7841   3.981   2.917   7.526  0.1248 -0.2879  0.5509
   73CHL1   C11 7842   3.810   2.907   7.392 -0.2834  0.0963  0.4238
   73CHL1  H11A 7843   3.700   2.894   7.399 -0.2852  0.8822  2.6607
   73CHL1  H11B 7844   3.821   3.014   7.367 -1.9914  0.0162 -0.8798
   73CHL1    C9 7845   3.872   2.828   7.269  0.9732  0.7907  0.3271
   73CHL1    H9 7846   3.968   2.880   7.247  0.4651  2.3267  1.4787
   73CHL1   C10 7847   3.780   2.829   7.138  0.4305 -0.1030 -0.4094
   73CHL1   C19 7848   3.634   2.780   7.177 -0.1689  0.7668 -0.3268
   73CHL1  H19A 7849   3.592   2.856   7.246  2.3445  2.5401 -0.6387
   73CHL1  H19B 7850   3.579   2.784   7.081  1.4635  0.6548 -1.3085
   73CHL1  H19C 7851   3.618   2.688   7.237 -1.9842  1.8544  0.9661
   73CHL1    C1 7852   3.764   2.975   7.075 -0.2270 -0.0243  0.0583
   73CHL1   H1A 7853   3.697   3.024   7.149  1.5252 -0.5001  2.0607
   73CHL1   H1B 7854   3.865   3.022   7.081 -0.7741  1.0257  2.7200
   73CHL1    C2 7855   3.697   2.993   6.935 -0.8786 -0.2342  0.0567
   73CHL1   H2A 7856   3.717   3.101   6.915 -0.0244 -0.0463  1.7497
   73CHL1   H2B 7857   3.588   2.974   6.943 -1.0931  0.9148  0.0442
   73CHL1   C20 7858   3.929   2.689   7.812  0.1635 -0.3977  0.3235
   73CHL1   H20 7859   3.836   2.629   7.818  0.9185 -1.9433 -2.0259
   73CHL1   C21 7860   3.900   2.842   7.852 -0.1003 -0.0287  0.2301
   73CHL1  H21A 7861   3.872   2.849   7.959  0.4066  3.5053  0.2553
   73CHL1  H21B 7862   3.815   2.886   7.796 -0.3013 -0.1208  0.4619
   73CHL1  H21C 7863   3.992   2.901   7.831  1.5807 -2.4619  0.2707
   73CHL1   C22 7864   4.033   2.640   7.916 -0.8502 -0.3735  0.1794
   73CHL1  H22A 7865   4.068   2.540   7.882 -1.8211 -0.8057  0.4286
   73CHL1  H22B 7866   4.126   2.701   7.919 -0.9567 -0.2037  3.0124
   73CHL1   C23 7867   3.981   2.602   8.061 -0.2052 -0.3798  0.0280
   73CHL1  H23A 7868   4.068   2.549   8.105  0.8737  1.2381 -0.0627
   73CHL1  H23B 7869   3.979   2.692   8.125  2.8006 -0.4934  0.4315
   73CHL1   C24 7870   3.843   2.524   8.076  0.4184 -0.9145 -0.1111
   73CHL1  H24A 7871   3.767   2.595   8.037  2.1214  1.8074  1.1689
   73CHL1  H24B 7872   3.848   2.434   8.012 -0.1417 -0.9586 -0.0987
   73CHL1   C25 7873   3.793   2.485   8.217 -0.1700 -0.4728  0.2638
   73CHL1   H25 7874   3.719   2.405   8.194 -0.0411 -0.7211  0.7109
   73CHL1   C26 7875   3.908   2.418   8.292  0.8244  0.9205 -0.1528
   73CHL1  H26A 7876   3.861   2.391   8.389  1.0367 -1.1827 -0.6029
   73CHL1  H26B 7877   3.942   2.319   8.255 -0.8399 -1.4467  4.0015
   73CHL1  H26C 7878   3.986   2.496   8.308  0.3324  1.1221  1.4518
   73CHL1   C27 7879   3.743   2.613   8.284  0.0896 -0.2387 -0.3339
   73CHL1  H27A 7880   3.826   2.687   8.292  1.4763 -1.8600  0.8617
   73CHL1  H27B 7881   3.652   2.659   8.239  0.4998  1.3411  0.3505
   73CHL1  H27C 7882   3.724   2.589   8.391 -1.1608  1.0245 -0.2329
   74CHL1    C3 7883   0.411   3.506   6.816 -0.0550 -0.4965 -0.0005
   74CHL1    H3 7884   0.497   3.460   6.869 -0.4753  0.3118  1.4343
   74CHL1    O3 7885   0.407   3.470   6.678 -0.7287 -0.1251 -0.8418
   74CHL1   H3' 7886   0.497   3.483   6.647  0.0598  1.3194  1.7404
   74CHL1    C4 7887   0.283   3.457   6.880  0.1252 -0.5741  0.6145
   74CHL1   H4A 7888   0.193   3.504   6.835 -0.1459 -1.5227  0.1520
   74CHL1   H4B 7889   0.271   3.349   6.855 -1.3598 -0.6798  1.6401
   74CHL1    C5 7890   0.292   3.493   7.033  0.6645  0.2601 -0.5427
   74CHL1    C6 7891   0.295   3.392   7.124 -0.4498 -0.0782  0.6014
   74CHL1    H6 7892   0.293   3.288   7.087  0.3377 -0.0863  0.5723
   74CHL1    C7 7893   0.295   3.420   7.268  0.3665  0.1496  0.0665
   74CHL1   H7A 7894   0.219   3.362   7.325  2.0768  0.1028  2.4915
   74CHL1   H7B 7895   0.395   3.383   7.301  0.2376 -1.2862 -1.0378
   74CHL1    C8 7896   0.273   3.566   7.312  0.8515  0.5292  0.7149
   74CHL1    H8 7897   0.164   3.586   7.301  0.1762 -0.8383  3.8907
   74CHL1   C14 7898   0.318   3.589   7.453  0.2537  0.8818 -0.4903
   74CHL1   H14 7899   0.428   3.576   7.460 -0.0400 -2.3516 -0.6701
   74CHL1   C15 7900   0.286   3.491   7.563  0.7667  0.3192  0.0017
   74CHL1  H15A 7901   0.179   3.460   7.568  0.5166  1.0152 -0.8901
   74CHL1  H15B 7902   0.343   3.399   7.539  1.6528  1.3881 -2.2529
   74CHL1   C16 7903   0.331   3.567   7.686  0.4363 -0.3806  0.4646
   74CHL1  H16A 7904   0.255   3.554   7.766  1.1488 -0.1296  1.2028
   74CHL1  H16B 7905   0.424   3.527   7.731  1.6206  1.2592 -0.4123
   74CHL1   C17 7906   0.359   3.715   7.643 -0.1521  0.1721 -0.5170
   74CHL1   H17 7907   0.469   3.712   7.628 -0.2179 -1.4103 -0.7830
   74CHL1   C13 7908   0.305   3.732   7.499  0.3271 -0.2163  1.1678
   74CHL1   C18 7909   0.158   3.782   7.494  0.6228 -0.3125  0.5443
   74CHL1  H18A 7910   0.107   3.752   7.400 -1.3798 -0.8512  1.7564
   74CHL1  H18B 7911   0.097   3.731   7.571 -0.3127  1.3193  0.9453
   74CHL1  H18C 7912   0.158   3.891   7.515 -2.4816 -0.6972  3.3738
   74CHL1   C12 7913   0.387   3.822   7.401  0.9408 -0.5677 -0.1755
   74CHL1  H12A 7914   0.372   3.929   7.427  0.9929 -1.0018  1.8088
   74CHL1  H12B 7915   0.495   3.801   7.420  1.2299 -1.9228 -2.9024
   74CHL1   C11 7916   0.357   3.812   7.255  0.3318 -0.3298 -0.4866
   74CHL1  H11A 7917   0.260   3.862   7.235  1.2832  2.5671  1.5378
   74CHL1  H11B 7918   0.438   3.863   7.198  1.0780 -0.0255  0.8210
   74CHL1    C9 7919   0.344   3.662   7.214  0.0783  0.3316  0.4066
   74CHL1    H9 7920   0.445   3.621   7.236  0.4059  1.5781  1.3952
   74CHL1   C10 7921   0.300   3.634   7.068  0.3471  0.0850 -0.8151
   74CHL1   C19 7922   0.159   3.698   7.043 -0.5366 -0.3011  0.0200
   74CHL1  H19A 7923   0.101   3.694   7.138 -1.9359 -1.4666 -0.8476
   74CHL1  H19B 7924   0.173   3.807   7.030  1.1776 -0.5704 -0.6231
   74CHL1  H19C 7925   0.103   3.649   6.960 -2.5028  1.2025  0.3809
   74CHL1    C1 7926   0.411   3.698   6.973  0.3466 -0.4113 -0.3801
   74CHL1   H1A 7927   0.405   3.809   6.983 -4.1724 -0.3765 -1.4669
   74CHL1   H1B 7928   0.505   3.665   7.024 -0.5485 -0.6677  1.1736
   74CHL1    C2 7929   0.417   3.655   6.826 -0.3770 -0.4193 -0.9287
   74CHL1   H2A 7930   0.508   3.703   6.783  0.2004  1.1341  1.8057
   74CHL1   H2B 7931   0.329   3.693   6.769 -2.0587 -1.4287  0.8772
   74CHL1   C20 7932   0.322   3.811   7.751  0.1907  0.1817 -0.6773
   74CHL1   H20 7933   0.214   3.837   7.749  0.4764  1.4405 -0.8625
   74CHL1   C21 7934   0.393   3.943   7.724  0.8038 -0.5805 -0.0685
   74CHL1  H21A 7935   0.392   3.959   7.614  1.2790  0.1198  0.0228
   74CHL1  H21B 7936   0.497   3.948   7.763  1.0808 -1.1750 -0.6990
   74CHL1  H21C 7937   0.336   4.033   7.753 -0.6144 -0.6666 -2.3663
   74CHL1   C22 7938   0.328   3.762   7.900  0.1477  0.6200 -0.3882
   74CHL1  H22A 7939   0.248   3.686   7.916 -0.7314  1.2396 -1.6722
   74CHL1  H22B 7940   0.420   3.702   7.917  0.4852  1.4853  0.9691
   74CHL1   C23 7941   0.291   3.871   8.003 -0.1981 -0.7588 -0.5757
   74CHL1  H23A 7942   0.351   3.963   7.987 -1.3586  0.0450 -0.4724
   74CHL1  H23B 7943   0.190   3.908   7.974  0.3324  0.9900 -0.3305
   74CHL1   C24 7944   0.288   3.826   8.150 -0.0507 -0.1005  0.4516
   74CHL1  H24A 7945   0.207   3.752   8.167  0.4525 -0.5601  0.8961
   74CHL1  H24B 7946   0.382   3.768   8.169 -0.6393 -0.2555  3.4169
   74CHL1   C25 7947   0.291   3.944   8.258 -0.3714 -0.0707  0.4600
   74CHL1   H25 7948   0.383   4.005   8.244 -0.9156  0.2159 -2.4636
   74CHL1   C26 7949   0.173   4.039   8.247  0.0673  0.5084 -0.9974
   74CHL1  H26A 7950   0.179   4.117   8.326 -0.1282 -0.6201  0.1657
   74CHL1  H26B 7951   0.171   4.082   8.145  1.7433 -1.3384 -1.8943
   74CHL1  H26C 7952   0.074   3.990   8.255  0.6126 -0.3537  1.6239
   74CHL1   C27 7953   0.299   3.884   8.402 -0.1984 -0.1500 -0.1483
   74CHL1  H27A 7954   0.290   3.946   8.494  0.1065 -1.0622  0.5091
   74CHL1  H27B 7955   0.222   3.804   8.413 -0.3457  0.1155  0.8842
   74CHL1  H27C 7956   0.397   3.833   8.392  0.6771  1.4924 -0.3594
   75CHL1    C3 7957   5.599   5.178   6.795  0.4920 -0.6761  0.8420
   75CHL1    H3 7958   5.690   5.228   6.754  0.3288 -1.1197 -0.0795
   75CHL1    O3 7959   5.495   5.143   6.694  0.0111  0.2371  0.0228
   75CHL1   H3' 7960   5.415   5.178   6.733  0.7031  1.8196  0.1211
   75CHL1    C4 7961   5.654   5.044   6.855  0.1812 -0.4687  0.5146
   75CHL1   H4A 7962   5.575   4.967   6.870  0.4586 -0.7446  0.5683
   75CHL1   H4B 7963   5.721   5.003   6.777 -0.2909 -1.1432  0.4559
   75CHL1    C5 7964   5.729   5.063   6.987 -0.5202 -0.6997  0.2666
   75CHL1    C6 7965   5.841   4.996   7.015 -0.2457 -0.9306  0.3759
   75CHL1    H6 7966   5.880   4.929   6.937  2.0099  0.1476  0.5227
   75CHL1    C7 7967   5.922   4.996   7.143  0.9486 -0.4604  0.4497
   75CHL1   H7A 7968   5.957   4.893   7.167  1.7087 -0.2674  0.1948
   75CHL1   H7B 7969   6.014   5.057   7.129 -0.4202  1.5135 -0.4348
   75CHL1    C8 7970   5.834   5.056   7.258  0.6255  0.9128  0.0788
   75CHL1    H8 7971   5.765   4.975   7.290  1.6145  0.6295  1.6416
   75CHL1   C14 7972   5.925   5.083   7.379  0.5451  0.5577  0.9408
   75CHL1   H14 7973   6.002   5.152   7.338  0.1806  0.5709  0.2758
   75CHL1   C15 7974   6.012   4.966   7.425  0.2390  0.2616  0.3397
   75CHL1  H15A 7975   5.955   4.871   7.429  0.7374 -0.1202 -1.0121
   75CHL1  H15B 7976   6.095   4.943   7.355  0.2020 -0.8233  0.6380
   75CHL1   C16 7977   6.065   5.014   7.554 -0.9855  0.4467 -0.4627
   75CHL1  H16A 7978   6.074   4.931   7.627  2.8776  0.3765 -0.8047
   75CHL1  H16B 7979   6.170   5.051   7.561 -1.7914  2.5415  2.0679
   75CHL1   C17 7980   5.969   5.133   7.602 -0.3208  0.3863 -0.2067
   75CHL1   H17 7981   6.033   5.220   7.575  0.2263  0.1696  0.3799
   75CHL1   C13 7982   5.852   5.134   7.505 -0.2891 -0.0332 -0.6593
   75CHL1   C18 7983   5.750   5.037   7.558  0.1068 -0.6437  0.0756
   75CHL1  H18A 7984   5.698   5.081   7.646  1.1673  1.1273 -0.1281
   75CHL1  H18B 7985   5.672   5.013   7.484  0.6608 -0.9106 -0.4307
   75CHL1  H18C 7986   5.796   4.944   7.597  0.4262 -0.7058 -0.4415
   75CHL1   C12 7987   5.798   5.269   7.466 -0.1571  0.3461 -0.1560
   75CHL1  H12A 7988   5.745   5.332   7.540  1.5336  2.6735 -0.7880
   75CHL1  H12B 7989   5.877   5.343   7.440  1.0305 -0.1028  1.9816
   75CHL1   C11 7990   5.703   5.252   7.337 -0.5901  0.1290 -0.5226
   75CHL1  H11A 7991   5.618   5.191   7.375 -0.6603  1.3843  1.5039
   75CHL1  H11B 7992   5.666   5.350   7.301  0.5517  1.1868  1.0484
   75CHL1    C9 7993   5.771   5.181   7.219  0.4356  0.1396  0.1511
   75CHL1    H9 7994   5.856   5.241   7.181  0.3482 -0.4241 -0.9581
   75CHL1   C10 7995   5.674   5.158   7.102  0.5966 -0.6780  0.0127
   75CHL1   C19 7996   5.541   5.097   7.159 -0.4445 -0.0793 -0.4509
   75CHL1  H19A 7997   5.555   5.011   7.228 -0.4180 -0.9442 -1.4944
   75CHL1  H19B 7998   5.481   5.171   7.215 -0.2128  0.3815 -0.8105
   75CHL1  H19C 7999   5.477   5.049   7.082 -0.3854  0.6056 -0.9374
   75CHL1    C1 8000   5.645   5.291   7.024  0.2564 -0.5437 -0.4509
   75CHL1   H1A 8001   5.611   5.373   7.092  0.8659 -1.2225  0.6960
   75CHL1   H1B 8002   5.733   5.341   6.979  1.4718 -0.2884  2.0692
   75CHL1    C2 8003   5.543   5.277   6.905  0.0354 -0.2004 -0.1266
   75CHL1   H2A 8004   5.517   5.372   6.853 -1.9794 -1.4047 -1.4702
   75CHL1   H2B 8005   5.449   5.223   6.931  0.1783 -0.4670 -0.1576
   75CHL1   C20 8006   5.955   5.128   7.751  0.4142  0.4997  0.4330
   75CHL1   H20 8007   5.907   5.031   7.773 -0.6719  1.3282  1.8686
   75CHL1   C21 8008   5.871   5.238   7.810  0.7488  0.5800 -0.0058
   75CHL1  H21A 8009   5.768   5.253   7.769  1.0728  1.6168 -0.4878
   75CHL1  H21B 8010   5.925   5.335   7.801  1.3566  0.2284 -0.1103
   75CHL1  H21C 8011   5.862   5.221   7.919  2.3319  1.1271  0.2265
   75CHL1   C22 8012   6.086   5.104   7.839  0.3612  0.2241  0.2890
   75CHL1  H22A 8013   6.049   5.126   7.942  0.0844  1.2998 -0.0191
   75CHL1  H22B 8014   6.117   4.998   7.826 -1.7830 -0.4835  0.6273
   75CHL1   C23 8015   6.206   5.197   7.823 -0.4346  0.3503 -0.3246
   75CHL1  H23A 8016   6.274   5.174   7.738 -1.1759  1.7703 -1.3467
   75CHL1  H23B 8017   6.170   5.302   7.823 -2.1406 -0.1800  1.4217
   75CHL1   C24 8018   6.293   5.187   7.949  0.6294  0.1232 -0.2278
   75CHL1  H24A 8019   6.323   5.084   7.975 -0.6275 -0.0636  0.5964
   75CHL1  H24B 8020   6.376   5.257   7.926 -1.1983  2.6309  0.3089
   75CHL1   C25 8021   6.221   5.237   8.077 -0.2847 -0.5885  0.0752
   75CHL1   H25 8022   6.113   5.210   8.083 -0.3103 -0.8322 -1.1486
   75CHL1   C26 8023   6.283   5.178   8.205  0.1994 -0.2789  0.2952
   75CHL1  H26A 8024   6.221   5.203   8.294  0.1647 -0.7754  0.4148
   75CHL1  H26B 8025   6.271   5.067   8.198 -0.3219 -0.1135 -2.8763
   75CHL1  H26C 8026   6.388   5.204   8.228  0.2019 -0.0151 -0.0181
   75CHL1   C27 8027   6.225   5.393   8.075 -0.5521  0.0441 -0.3503
   75CHL1  H27A 8028   6.166   5.432   7.989 -1.4339 -0.7967 -0.1523
   75CHL1  H27B 8029   6.193   5.434   8.173  1.3321  2.9373 -0.8231
   75CHL1  H27C 8030   6.328   5.426   8.050 -1.1338  1.1654 -1.3950
   76CHL1    C3 8031   4.137   4.631   7.215  0.7098 -0.2548 -0.8281
   76CHL1    H3 8032   4.039   4.674   7.245  1.0038 -1.5842  2.4851
   76CHL1    O3 8033   4.134   4.624   7.075 -0.0206  0.2337 -0.3330
   76CHL1   H3' 8034   4.213   4.571   7.060 -0.5797 -0.2720 -1.5555
   76CHL1    C4 8035   4.251   4.726   7.264  0.0736 -0.1985  0.2495
   76CHL1   H4A 8036   4.345   4.695   7.213  1.3169  0.1985  2.2184
   76CHL1   H4B 8037   4.242   4.829   7.221  2.8493 -0.2929 -0.7395
   76CHL1    C5 8038   4.252   4.728   7.416  0.5628 -0.4830 -0.0805
   76CHL1    C6 8039   4.224   4.834   7.490 -0.6047 -0.1843 -0.2079
   76CHL1    H6 8040   4.201   4.933   7.446 -0.3760  0.6768  1.5238
   76CHL1    C7 8041   4.232   4.847   7.640  1.1756  0.2317 -0.6578
   76CHL1   H7A 8042   4.291   4.933   7.677 -0.5452  0.6766  1.2581
   76CHL1   H7B 8043   4.127   4.852   7.678 -0.4786  0.0847 -4.6885
   76CHL1    C8 8044   4.313   4.728   7.695 -0.8550  0.5567  0.0709
   76CHL1    H8 8045   4.417   4.744   7.660 -0.5518 -0.6569  0.3756
   76CHL1   C14 8046   4.310   4.724   7.843  0.7524  0.2029  0.3067
   76CHL1   H14 8047   4.202   4.726   7.868  1.1913  0.2308  2.4164
   76CHL1   C15 8048   4.358   4.840   7.925  0.6760 -0.1835 -1.1773
   76CHL1  H15A 8049   4.463   4.866   7.897  0.7608 -0.0460 -0.7489
   76CHL1  H15B 8050   4.294   4.931   7.930  0.2319 -0.5513  0.4292
   76CHL1   C16 8051   4.372   4.780   8.069 -0.7480  0.3747 -0.0020
   76CHL1  H16A 8052   4.463   4.820   8.118 -0.0678  1.2127 -1.8791
   76CHL1  H16B 8053   4.282   4.820   8.121 -1.4859  1.2253 -1.8467
   76CHL1   C17 8054   4.356   4.629   8.046  0.2770  0.3148 -0.4342
   76CHL1   H17 8055   4.247   4.615   8.061  0.4275  0.1222  0.5188
   76CHL1   C13 8056   4.379   4.602   7.901  0.4955 -0.4667  0.9355
   76CHL1   C18 8057   4.527   4.585   7.875 -0.1081 -0.1023  0.3153
   76CHL1  H18A 8058   4.557   4.498   7.937 -0.8416  0.2037  1.1135
   76CHL1  H18B 8059   4.549   4.569   7.767  2.6045  0.1356  0.7585
   76CHL1  H18C 8060   4.585   4.678   7.897  0.2416 -0.1293 -0.4559
   76CHL1   C12 8061   4.302   4.480   7.855  0.1333 -0.4206 -0.2302
   76CHL1  H12A 8062   4.348   4.388   7.896  2.7894  0.7351 -0.4581
   76CHL1  H12B 8063   4.197   4.485   7.892  0.6828  0.6388  1.2600
   76CHL1   C11 8064   4.314   4.467   7.704 -0.0357  0.1041  0.2233
   76CHL1  H11A 8065   4.419   4.437   7.686 -0.5881 -1.1033 -1.1513
   76CHL1  H11B 8066   4.249   4.386   7.665 -2.5574  1.5882  1.0467
   76CHL1    C9 8067   4.258   4.595   7.631 -0.7905 -0.1520 -0.6268
   76CHL1    H9 8068   4.148   4.595   7.648 -0.5521 -0.5997  1.0715
   76CHL1   C10 8069   4.278   4.586   7.478 -0.3809  0.1211 -0.2053
   76CHL1   C19 8070   4.422   4.558   7.441 -0.0214 -0.2117 -0.1787
   76CHL1  H19A 8071   4.452   4.578   7.336 -0.4874 -1.0778 -0.4923
   76CHL1  H19B 8072   4.495   4.607   7.509 -1.0833  0.1912  0.7155
   76CHL1  H19C 8073   4.448   4.450   7.449  2.8862  0.2933 -1.6730
   76CHL1    C1 8074   4.169   4.488   7.415 -0.4930 -1.3127  0.2380
   76CHL1   H1A 8075   4.194   4.388   7.457 -1.5438 -0.7850  2.2187
   76CHL1   H1B 8076   4.074   4.513   7.466  0.2498 -0.1171  1.0796
   76CHL1    C2 8077   4.158   4.490   7.260  0.2526  0.5599  0.0099
   76CHL1   H2A 8078   4.081   4.415   7.232  1.4736 -0.5612 -0.4013
   76CHL1   H2B 8079   4.259   4.466   7.222 -0.2271 -0.9885 -0.3441
   76CHL1   C20 8080   4.430   4.539   8.145  0.7690  0.5904 -0.8713
   76CHL1   H20 8081   4.444   4.435   8.109  2.8841 -0.9600  3.6955
   76CHL1   C21 8082   4.334   4.516   8.267  0.1405 -0.1286  0.7010
   76CHL1  H21A 8083   4.308   4.614   8.312 -0.6446  0.2528 -0.5350
   76CHL1  H21B 8084   4.378   4.453   8.348  0.5174  3.7262  3.8072
   76CHL1  H21C 8085   4.244   4.467   8.225  1.5335 -0.3770 -2.2279
   76CHL1   C22 8086   4.576   4.581   8.187 -0.3653  0.0526 -0.0069
   76CHL1  H22A 8087   4.635   4.606   8.096  1.1523  0.3003  1.0327
   76CHL1  H22B 8088   4.576   4.671   8.251  2.5703 -0.1030  0.3322
   76CHL1   C23 8089   4.653   4.473   8.268  0.2875  0.4492 -0.0628
   76CHL1  H23A 8090   4.606   4.463   8.368  2.3791  1.1414  1.0554
   76CHL1  H23B 8091   4.655   4.379   8.209 -2.7856  0.6142 -0.5769
   76CHL1   C24 8092   4.799   4.517   8.282  0.1150 -0.0209 -0.0042
   76CHL1  H24A 8093   4.841   4.570   8.194 -2.5857 -0.2846 -1.5758
   76CHL1  H24B 8094   4.792   4.603   8.352  1.4979  1.4416 -1.5734
   76CHL1   C25 8095   4.896   4.419   8.344  0.0824  0.7089 -0.1652
   76CHL1   H25 8096   4.898   4.332   8.274 -0.6847 -0.8265  1.6398
   76CHL1   C26 8097   5.041   4.468   8.358 -0.8462 -0.5149  0.1970
   76CHL1  H26A 8098   5.101   4.389   8.408 -0.3013 -0.1278  0.1637
   76CHL1  H26B 8099   5.095   4.474   8.261 -0.1787 -1.7949  0.4680
   76CHL1  H26C 8100   5.051   4.564   8.413  2.2116 -1.3079  1.2189
   76CHL1   C27 8101   4.845   4.355   8.473 -0.0945 -0.5713 -0.0067
   76CHL1  H27A 8102   4.915   4.272   8.496  0.4436 -0.0551  0.2334
   76CHL1  H27B 8103   4.843   4.435   8.551  4.4874  1.4623 -1.6653
   76CHL1  H27C 8104   4.741   4.318   8.461 -1.2293  2.2696  0.1245
   77CHL1    C3 8105   5.473   3.609   6.734 -0.3989 -0.4174  0.2630
   77CHL1    H3 8106   5.580   3.621   6.762 -0.8479  3.6623  0.8865
   77CHL1    O3 8107   5.464   3.584   6.590  0.1638 -0.5209  0.3208
   77CHL1   H3' 8108   5.481   3.491   6.572  1.2577 -0.1409 -0.6960
   77CHL1    C4 8109   5.403   3.497   6.819 -0.3113 -0.4156 -0.0694
   77CHL1   H4A 8110   5.298   3.506   6.783 -0.3837 -0.0542  0.2309
   77CHL1   H4B 8111   5.436   3.394   6.795 -0.3545 -0.4143 -0.1353
   77CHL1    C5 8112   5.425   3.533   6.966 -0.1247  0.4979  0.6102
   77CHL1    C6 8113   5.492   3.449   7.042  0.0582 -0.8708  0.3110
   77CHL1    H6 8114   5.509   3.347   7.003 -0.2372 -1.1575  0.9081
   77CHL1    C7 8115   5.517   3.486   7.182  0.2440 -0.7718  0.6497
   77CHL1   H7A 8116   5.505   3.393   7.241 -0.2593 -0.8520  0.4213
   77CHL1   H7B 8117   5.622   3.521   7.198 -0.5166  2.0142  0.2242
   77CHL1    C8 8118   5.423   3.592   7.243  0.4632 -0.0059 -0.2074
   77CHL1    H8 8119   5.322   3.545   7.242  1.2379 -1.9004  1.6105
   77CHL1   C14 8120   5.454   3.632   7.388 -0.9192  0.4031 -0.1649
   77CHL1   H14 8121   5.555   3.678   7.381 -0.6207 -0.3658 -1.2118
   77CHL1   C15 8122   5.469   3.510   7.485 -0.3094  0.1053 -0.6654
   77CHL1  H15A 8123   5.371   3.457   7.478  0.2928 -1.0008 -0.8946
   77CHL1  H15B 8124   5.550   3.436   7.472 -0.1562 -0.0925  1.1212
   77CHL1   C16 8125   5.464   3.590   7.621  0.3492  0.3227 -0.6872
   77CHL1  H16A 8126   5.389   3.542   7.686  0.2367  0.5799 -0.6264
   77CHL1  H16B 8127   5.562   3.589   7.674 -1.1611 -0.3194  2.2434
   77CHL1   C17 8128   5.423   3.738   7.604 -0.2539 -0.3950  0.4499
   77CHL1   H17 8129   5.515   3.797   7.583  0.0841 -1.2319 -0.5121
   77CHL1   C13 8130   5.363   3.734   7.460  0.4431  0.0904  0.1449
   77CHL1   C18 8131   5.215   3.682   7.465 -0.3929  0.1228 -0.0120
   77CHL1  H18A 8132   5.156   3.764   7.511 -0.5496  0.8733 -1.4875
   77CHL1  H18B 8133   5.181   3.672   7.359  2.0451  0.3539 -0.8763
   77CHL1  H18C 8134   5.199   3.585   7.517  2.0320 -0.9874 -1.1960
   77CHL1   C12 8135   5.372   3.858   7.370  0.0917 -0.4917  0.0443
   77CHL1  H12A 8136   5.311   3.935   7.423  1.9917  1.4167 -0.3959
   77CHL1  H12B 8137   5.480   3.887   7.366  0.3315 -0.9347  2.0734
   77CHL1   C11 8138   5.336   3.831   7.223 -0.3018  0.3334 -0.4214
   77CHL1  H11A 8139   5.227   3.810   7.225  0.0550 -2.1464  3.0686
   77CHL1  H11B 8140   5.354   3.925   7.168  1.0705  0.8491  0.8343
   77CHL1    C9 8141   5.416   3.715   7.152 -0.0365 -0.0869 -0.1920
   77CHL1    H9 8142   5.520   3.754   7.145 -0.0610 -0.0949 -0.6325
   77CHL1   C10 8143   5.374   3.674   7.010  0.5711 -0.2910 -0.3463
   77CHL1   C19 8144   5.223   3.674   6.997 -0.0219  0.0927  0.0294
   77CHL1  H19A 8145   5.182   3.596   7.064 -0.4062 -0.0946 -0.4161
   77CHL1  H19B 8146   5.178   3.774   7.017 -0.5802 -0.0918 -0.2730
   77CHL1  H19C 8147   5.183   3.654   6.896  1.4999 -0.8944 -0.4044
   77CHL1    C1 8148   5.426   3.781   6.910  0.1274 -0.4566 -0.1310
   77CHL1   H1A 8149   5.369   3.875   6.923 -1.1055 -0.9495 -1.6377
   77CHL1   H1B 8150   5.530   3.810   6.936 -0.5490  1.0073  1.0982
   77CHL1    C2 8151   5.410   3.747   6.763 -0.5154  0.4194 -0.3192
   77CHL1   H2A 8152   5.470   3.821   6.705  0.5322 -1.0632 -1.2360
   77CHL1   H2B 8153   5.306   3.750   6.725 -0.1434  1.6890 -1.3062
   77CHL1   C20 8154   5.339   3.802   7.725  0.1039  0.8813  0.3113
   77CHL1   H20 8155   5.239   3.754   7.720  0.4907  0.1534 -0.9457
   77CHL1   C21 8156   5.331   3.952   7.710  0.5343 -0.5148  0.4944
   77CHL1  H21A 8157   5.433   3.996   7.705  0.3298  0.1564  1.7893
   77CHL1  H21B 8158   5.267   4.011   7.780  1.7739  0.0114  1.2118
   77CHL1  H21C 8159   5.276   3.959   7.614  1.6197 -2.0613 -0.2883
   77CHL1   C22 8160   5.403   3.768   7.861 -0.1755  0.3280  0.6093
   77CHL1  H22A 8161   5.406   3.658   7.880 -1.1138  0.1463 -0.2025
   77CHL1  H22B 8162   5.510   3.798   7.855 -0.9201  2.9531 -0.7700
   77CHL1   C23 8163   5.329   3.842   7.985 -0.5341  0.6587 -0.4047
   77CHL1  H23A 8164   5.353   3.948   7.961 -0.7473  0.7928 -0.0290
   77CHL1  H23B 8165   5.221   3.822   7.969 -0.6713  1.2745 -0.2679
   77CHL1   C24 8166   5.387   3.813   8.123 -0.0225 -0.1556 -0.0426
   77CHL1  H24A 8167   5.371   3.709   8.160  3.1615 -0.1668  1.6897
   77CHL1  H24B 8168   5.497   3.831   8.129 -0.1027  1.1088 -1.6410
   77CHL1   C25 8169   5.319   3.909   8.229  0.4854  0.1639 -0.6425
   77CHL1   H25 8170   5.323   4.010   8.184  0.5489  0.4688  0.0413
   77CHL1   C26 8171   5.180   3.870   8.269  0.1866 -0.6665 -0.0689
   77CHL1  H26A 8172   5.152   3.921   8.363 -0.9884 -1.2926 -0.0550
   77CHL1  H26B 8173   5.109   3.894   8.187  0.4466  2.1205  0.4299
   77CHL1  H26C 8174   5.184   3.759   8.280  1.2159 -1.0472 -3.1150
   77CHL1   C27 8175   5.403   3.911   8.360  0.3877  0.1479 -0.2626
   77CHL1  H27A 8176   5.382   3.808   8.394 -1.0133  0.2137 -0.8665
   77CHL1  H27B 8177   5.506   3.931   8.324 -0.0094 -1.1223 -2.3145
   77CHL1  H27C 8178   5.368   3.990   8.430 -0.3237 -0.0982 -0.3323
   78CHL1    C3 8179   5.272   0.927   6.837  0.0294 -0.0888  0.1049
   78CHL1    H3 8180   5.352   0.867   6.887  1.0604  1.1006 -0.0655
   78CHL1    O3 8181   5.329   0.997   6.720  0.0021 -0.5800  0.0747
   78CHL1   H3' 8182   5.360   0.933   6.655  1.6423 -0.9604  1.1481
   78CHL1    C4 8183   5.166   0.824   6.786 -0.1846  0.3419  0.1738
   78CHL1   H4A 8184   5.092   0.883   6.728  1.9904  2.2128 -0.8460
   78CHL1   H4B 8185   5.213   0.752   6.717  0.3916  1.1986 -0.3436
   78CHL1    C5 8186   5.100   0.766   6.904 -0.2068 -0.4271 -0.8155
   78CHL1    C6 8187   5.071   0.635   6.907  0.3934  0.0313 -1.3256
   78CHL1    H6 8188   5.076   0.582   6.811  1.3088  1.5532 -2.1523
   78CHL1    C7 8189   4.995   0.565   7.017 -0.6643  0.5054 -0.9035
   78CHL1   H7A 8190   4.907   0.510   6.977 -1.3969  0.0131  1.2451
   78CHL1   H7B 8191   5.068   0.495   7.063 -2.1187 -0.4501  0.0267
   78CHL1    C8 8192   4.941   0.656   7.131  0.7963  0.5542 -0.1278
   78CHL1    H8 8193   4.835   0.679   7.105  0.3206 -0.2371  1.0299
   78CHL1   C14 8194   4.918   0.572   7.259 -0.1967 -0.3587 -0.3018
   78CHL1   H14 8195   5.020   0.542   7.292  0.4571  1.2472 -0.7997
   78CHL1   C15 8196   4.853   0.431   7.246  0.0142 -0.1417 -0.5943
   78CHL1  H15A 8197   4.769   0.438   7.174  0.7021  0.5870 -1.3474
   78CHL1  H15B 8198   4.931   0.360   7.211  2.4544  3.1086 -2.2722
   78CHL1   C16 8199   4.807   0.393   7.391  0.0452  0.1006 -0.5503
   78CHL1  H16A 8200   4.696   0.381   7.386  0.3152 -2.3178 -2.8479
   78CHL1  H16B 8201   4.861   0.303   7.428 -0.3174  0.5893  1.3014
   78CHL1   C17 8202   4.841   0.522   7.475 -0.6890  0.8499 -0.6418
   78CHL1   H17 8203   4.942   0.498   7.513  0.4531 -0.0149 -3.9308
   78CHL1   C13 8204   4.845   0.638   7.372 -0.1000  0.2516 -0.1841
   78CHL1   C18 8205   4.705   0.683   7.329 -0.4978  0.0188 -0.3400
   78CHL1  H18A 8206   4.646   0.722   7.414  1.9669  1.4388  0.8443
   78CHL1  H18B 8207   4.717   0.773   7.265 -3.9029  0.4910 -0.5242
   78CHL1  H18C 8208   4.653   0.604   7.270 -4.1521  1.6884  0.3505
   78CHL1   C12 8209   4.927   0.765   7.401 -0.2736 -0.1645  0.3385
   78CHL1  H12A 8210   4.865   0.828   7.469 -0.4934 -0.2752  0.2401
   78CHL1  H12B 8211   5.016   0.725   7.455 -2.1420  0.4783  4.2954
   78CHL1   C11 8212   4.966   0.854   7.281 -1.2137 -0.0343 -0.1296
   78CHL1  H11A 8213   4.872   0.903   7.247 -2.3078 -0.1445  2.4878
   78CHL1  H11B 8214   5.029   0.941   7.305  0.9710 -1.1493 -1.5062
   78CHL1    C9 8215   5.034   0.775   7.159  0.6022  0.0280  0.6953
   78CHL1    H9 8216   5.131   0.732   7.193  1.7475  2.3057  0.4364
   78CHL1   C10 8217   5.062   0.853   7.031  0.6638 -0.2150  0.8574
   78CHL1   C19 8218   4.924   0.913   6.991 -0.7545 -0.0863  0.3251
   78CHL1  H19A 8219   4.837   0.845   6.982 -0.2849 -0.6530  0.0528
   78CHL1  H19B 8220   4.907   1.007   7.048 -1.7727  0.4260 -0.7891
   78CHL1  H19C 8221   4.930   0.951   6.887 -1.0608 -0.9727 -0.0264
   78CHL1    C1 8222   5.168   0.963   7.056  0.3049  0.0490 -0.3096
   78CHL1   H1A 8223   5.140   1.043   7.127 -0.8343  0.8148 -1.5629
   78CHL1   H1B 8224   5.261   0.916   7.096  1.6145  0.9696 -2.1213
   78CHL1    C2 8225   5.207   1.029   6.924 -0.1758 -0.1537  0.3827
   78CHL1   H2A 8226   5.276   1.109   6.958 -1.5448  0.5601  1.6087
   78CHL1   H2B 8227   5.123   1.082   6.875 -1.4973 -2.2601  0.2424
   78CHL1   C20 8228   4.754   0.535   7.598  0.0994  0.1401 -0.4456
   78CHL1   H20 8229   4.651   0.571   7.580  0.3451  0.9668 -0.2527
   78CHL1   C21 8230   4.825   0.631   7.694 -0.6707 -0.6300 -0.4873
   78CHL1  H21A 8231   4.776   0.628   7.794  2.0984 -1.4616  0.9460
   78CHL1  H21B 8232   4.812   0.732   7.650 -1.2978 -0.0535  0.9557
   78CHL1  H21C 8233   4.930   0.600   7.717 -0.7933 -0.9764 -0.3809
   78CHL1   C22 8234   4.729   0.401   7.669  0.6575 -0.2538 -0.7769
   78CHL1  H22A 8235   4.661   0.424   7.753  0.1638 -0.2429 -1.1720
   78CHL1  H22B 8236   4.666   0.336   7.605  0.6951  0.8783 -2.0160
   78CHL1   C23 8237   4.836   0.305   7.731 -0.0698 -0.3510 -0.1895
   78CHL1  H23A 8238   4.885   0.274   7.637 -0.1989 -0.2897 -0.2775
   78CHL1  H23B 8239   4.901   0.373   7.790 -1.3956  0.6073  0.2232
   78CHL1   C24 8240   4.783   0.192   7.826  0.2566  0.2683 -0.0831
   78CHL1  H24A 8241   4.727   0.239   7.910  0.1348 -0.1894  0.0934
   78CHL1  H24B 8242   4.712   0.139   7.759  0.0968  0.6022 -0.1796
   78CHL1   C25 8243   4.893   0.103   7.881 -0.2811 -0.1955  0.0828
   78CHL1   H25 8244   4.952   0.176   7.940  0.5650  0.7338 -1.8561
   78CHL1   C26 8245   4.822   0.005   7.976  0.3369  0.3349 -1.0293
   78CHL1  H26A 8246   4.896  -0.069   8.014 -0.8610 -1.0459 -1.2933
   78CHL1  H26B 8247   4.774   0.055   8.062  3.7287  0.4472  0.9896
   78CHL1  H26C 8248   4.748  -0.050   7.914  0.2716 -0.5255 -0.2054
   78CHL1   C27 8249   4.978   0.035   7.778  0.3745  0.2378  0.8476
   78CHL1  H27A 8250   5.012   0.097   7.693  2.7502 -0.9623  0.8500
   78CHL1  H27B 8251   5.073   0.001   7.826  1.0272  0.1363 -0.4722
   78CHL1  H27C 8252   4.928  -0.053   7.734  1.9559  0.0093 -0.6067
   79CHL1    C3 8253   4.501   5.768   7.118 -0.0492 -0.9317  0.4595
   79CHL1    H3 8254   4.432   5.687   7.148 -0.1126 -0.4698  1.6025
   79CHL1    O3 8255   4.466   5.806   6.987 -0.7993  0.8307 -0.2780
   79CHL1   H3' 8256   4.478   5.722   6.941 -0.2702 -0.7908  2.5609
   79CHL1    C4 8257   4.478   5.884   7.217 -0.6585  0.3660 -0.0928
   79CHL1   H4A 8258   4.539   5.973   7.191 -2.1105  1.0880 -1.1115
   79CHL1   H4B 8259   4.370   5.909   7.214 -1.2003 -1.3946  1.9837
   79CHL1    C5 8260   4.519   5.847   7.360 -0.5105 -0.1622  0.0065
   79CHL1    C6 8261   4.423   5.851   7.454  0.1064  0.5306 -0.2890
   79CHL1    H6 8262   4.321   5.876   7.422  0.0551  0.7554  0.0481
   79CHL1    C7 8263   4.450   5.822   7.597 -0.1725  0.3313 -0.3027
   79CHL1   H7A 8264   4.414   5.902   7.664  2.3084 -0.2257  1.8721
   79CHL1   H7B 8265   4.389   5.735   7.630  1.0547 -0.3686  0.1858
   79CHL1    C8 8266   4.605   5.811   7.623 -0.1282  0.4614  0.1092
   79CHL1    H8 8267   4.647   5.913   7.630  1.5286 -0.1118 -0.8367
   79CHL1   C14 8268   4.621   5.741   7.759 -0.4373 -0.1387 -0.7409
   79CHL1   H14 8269   4.588   5.636   7.743  0.6474 -0.7294  0.6888
   79CHL1   C15 8270   4.541   5.797   7.876  0.4747 -0.7141  0.3677
   79CHL1  H15A 8271   4.541   5.908   7.875  1.2335 -0.7027 -1.0059
   79CHL1  H15B 8272   4.438   5.756   7.869 -0.8685  2.1113  2.0564
   79CHL1   C16 8273   4.615   5.747   8.002  0.6014 -0.2906  0.4966
   79CHL1  H16A 8274   4.655   5.829   8.065 -0.9149  1.8943 -1.2114
   79CHL1  H16B 8275   4.548   5.678   8.058  0.2111  0.4010  0.8964
   79CHL1   C17 8276   4.736   5.667   7.946  0.7298 -0.2390 -0.0325
   79CHL1   H17 8277   4.694   5.566   7.931 -2.0234  0.1219  3.7877
   79CHL1   C13 8278   4.762   5.717   7.799 -0.5645  0.7744  0.2489
   79CHL1   C18 8279   4.820   5.862   7.817  0.1270  0.2290 -0.8978
   79CHL1  H18A 8280   4.753   5.918   7.885  1.6368  1.1859 -0.1446
   79CHL1  H18B 8281   4.923   5.867   7.858  0.8997  1.3969 -2.8159
   79CHL1  H18C 8282   4.819   5.922   7.723  0.0463  2.9531  0.7236
   79CHL1   C12 8283   4.826   5.622   7.687  0.4681 -0.4173 -0.6942
   79CHL1  H12A 8284   4.933   5.605   7.707  0.1243 -1.9903 -0.0142
   79CHL1  H12B 8285   4.761   5.532   7.682 -0.0514 -0.1351  0.4992
   79CHL1   C11 8286   4.827   5.682   7.546  0.5123 -0.8212  0.7689
   79CHL1  H11A 8287   4.882   5.778   7.557 -1.7188  0.6005  0.2074
   79CHL1  H11B 8288   4.873   5.618   7.468  0.6865  1.3780 -1.0602
   79CHL1    C9 8289   4.673   5.728   7.517 -0.6046 -0.0136 -0.9061
   79CHL1    H9 8290   4.621   5.630   7.513 -1.0036  0.2032 -1.1191
   79CHL1   C10 8291   4.664   5.790   7.370 -0.5260 -0.2911 -0.6252
   79CHL1   C19 8292   4.773   5.905   7.362 -0.1602 -0.4132  0.2914
   79CHL1  H19A 8293   4.867   5.857   7.327 -0.3836 -0.1092 -0.7587
   79CHL1  H19B 8294   4.740   5.985   7.292  1.9772 -1.4482 -2.0764
   79CHL1  H19C 8295   4.783   5.960   7.458 -0.6096 -0.1443  0.1871
   79CHL1    C1 8296   4.680   5.680   7.264 -0.2490  0.6834 -0.0850
   79CHL1   H1A 8297   4.784   5.641   7.266 -0.9990 -1.4550 -0.2283
   79CHL1   H1B 8298   4.611   5.597   7.290  0.4205  0.6130  1.5944
   79CHL1    C2 8299   4.642   5.716   7.123  0.0856 -0.0697  0.0221
   79CHL1   H2A 8300   4.653   5.632   7.051 -0.8715 -0.4736  0.3299
   79CHL1   H2B 8301   4.711   5.795   7.086 -1.7735  0.9190 -1.5217
   79CHL1   C20 8302   4.860   5.663   8.035 -0.1602 -0.3741  0.2043
   79CHL1   H20 8303   4.904   5.762   8.058 -0.9288 -0.3192  1.5423
   79CHL1   C21 8304   4.970   5.580   7.965  0.7821 -0.3196 -0.3814
   79CHL1  H21A 8305   5.039   5.635   7.898  1.7409 -1.7559 -0.6118
   79CHL1  H21B 8306   4.916   5.508   7.900 -0.2535 -0.0375  0.1358
   79CHL1  H21C 8307   5.029   5.522   8.038  1.7649 -1.8889 -2.3289
   79CHL1   C22 8308   4.831   5.598   8.169  0.6657  0.4378  0.6603
   79CHL1  H22A 8309   4.736   5.635   8.215  0.2207  1.0096 -0.6752
   79CHL1  H22B 8310   4.842   5.488   8.166  0.7163  0.4214  1.3362
   79CHL1   C23 8311   4.929   5.656   8.274  0.0043 -0.7510  0.9126
   79CHL1  H23A 8312   5.035   5.640   8.243 -0.2737 -0.0954 -0.4616
   79CHL1  H23B 8313   4.914   5.766   8.270 -0.2179 -0.7704  1.1445
   79CHL1   C24 8314   4.909   5.606   8.417  0.1952  0.4238  0.7210
   79CHL1  H24A 8315   4.805   5.628   8.449  0.2441  0.2431  1.0057
   79CHL1  H24B 8316   4.913   5.495   8.418 -1.4855  0.2910 -1.1946
   79CHL1   C25 8317   5.002   5.657   8.524 -0.0055  0.3194 -0.0016
   79CHL1   H25 8318   5.105   5.655   8.483  0.5847 -0.5682  1.4398
   79CHL1   C26 8319   4.966   5.801   8.567  0.0269  0.6538 -0.1252
   79CHL1  H26A 8320   4.983   5.856   8.472 -0.4534 -1.5661 -1.5761
   79CHL1  H26B 8321   4.859   5.796   8.595  0.0508  2.3768  0.3481
   79CHL1  H26C 8322   5.026   5.828   8.657 -0.9802 -2.4783  1.6503
   79CHL1   C27 8323   5.012   5.556   8.634 -0.0705 -0.1933 -0.0643
   79CHL1  H27A 8324   4.922   5.546   8.699 -0.4059 -0.1791 -0.5181
   79CHL1  H27B 8325   5.021   5.455   8.588  0.2237 -1.2077  2.0983
   79CHL1  H27C 8326   5.091   5.584   8.706 -0.7941  1.7110  0.0223
   80CHL1    C3 8327   2.708   3.546   7.048 -0.1121 -1.3193  0.7426
   80CHL1    H3 8328   2.818   3.533   7.039  0.1204 -0.1076  1.4892
   80CHL1    O3 8329   2.637   3.572   6.925 -0.1944  0.5375  0.4709
   80CHL1   H3' 8330   2.554   3.608   6.956 -0.0413  1.4805 -0.1766
   80CHL1    C4 8331   2.650   3.416   7.107 -0.0687  0.7382  0.8875
   80CHL1   H4A 8332   2.539   3.417   7.094 -0.0453  3.1703  0.3508
   80CHL1   H4B 8333   2.686   3.334   7.041  0.7133  2.9771 -1.6183
   80CHL1    C5 8334   2.683   3.386   7.250  0.0840  0.5989  0.3865
   80CHL1    C6 8335   2.736   3.270   7.291 -0.2694 -0.0682 -0.5854
   80CHL1    H6 8336   2.755   3.189   7.219 -2.9564  0.4456 -1.9909
   80CHL1    C7 8337   2.776   3.243   7.433 -0.7907 -0.2323 -0.1408
   80CHL1   H7A 8338   2.733   3.143   7.454 -1.2447 -0.3589 -1.5470
   80CHL1   H7B 8339   2.887   3.238   7.438 -0.7096 -0.5663 -1.7451
   80CHL1    C8 8340   2.723   3.350   7.538  0.2161  0.6541  0.2523
   80CHL1    H8 8341   2.616   3.325   7.549  0.3887  0.5342  1.9210
   80CHL1   C14 8342   2.798   3.341   7.677 -1.1468 -0.2468  0.6238
   80CHL1   H14 8343   2.897   3.367   7.633 -1.0810 -0.2405  0.7748
   80CHL1   C15 8344   2.821   3.198   7.735  0.1681 -0.0993  0.4629
   80CHL1  H15A 8345   2.725   3.148   7.710  0.2056  1.5090 -3.7410
   80CHL1  H15B 8346   2.906   3.141   7.692 -0.4278 -0.4360 -0.2984
   80CHL1   C16 8347   2.848   3.233   7.887  0.2288  1.2633  0.2852
   80CHL1  H16A 8348   2.766   3.185   7.944 -0.6387  1.2206 -0.9782
   80CHL1  H16B 8349   2.944   3.200   7.932  0.7393 -0.1235 -1.6822
   80CHL1   C17 8350   2.838   3.392   7.901 -0.0525  0.8718  0.5844
   80CHL1   H17 8351   2.939   3.433   7.877 -0.3501  0.6589 -1.1506
   80CHL1   C13 8352   2.753   3.427   7.782 -0.1196 -0.0523  0.1997
   80CHL1   C18 8353   2.602   3.397   7.810 -0.2057  0.8204  0.4888
   80CHL1  H18A 8354   2.561   3.465   7.888 -2.0936  0.5582 -0.2452
   80CHL1  H18B 8355   2.544   3.407   7.716  0.8243 -0.4569 -0.3100
   80CHL1  H18C 8356   2.587   3.295   7.852  2.7849 -0.0629 -0.3423
   80CHL1   C12 8357   2.765   3.572   7.739  0.0329  0.2007  0.1076
   80CHL1  H12A 8358   2.724   3.651   7.805 -1.5889 -0.0896 -0.5189
   80CHL1  H12B 8359   2.873   3.595   7.727 -0.2246  2.0055  0.8983
   80CHL1   C11 8360   2.699   3.593   7.599  0.0932 -0.0014  1.2392
   80CHL1  H11A 8361   2.589   3.586   7.608  0.2777 -2.9687  2.5136
   80CHL1  H11B 8362   2.726   3.695   7.566  1.0597 -0.5906  0.0966
   80CHL1    C9 8363   2.737   3.487   7.484 -0.3540  0.1082  0.1494
   80CHL1    H9 8364   2.843   3.519   7.471 -0.9466  2.0843 -0.0371
   80CHL1   C10 8365   2.669   3.505   7.348  0.3604 -0.7674 -0.4362
   80CHL1   C19 8366   2.520   3.524   7.376 -0.8043  0.5461  0.3096
   80CHL1  H19A 8367   2.504   3.621   7.427 -1.0472  0.0221  1.2360
   80CHL1  H19B 8368   2.456   3.521   7.285  0.2166 -0.7756 -0.4052
   80CHL1  H19C 8369   2.489   3.437   7.438  1.0334  0.6218  1.4057
   80CHL1    C1 8370   2.729   3.628   7.286  0.2264  0.0100 -0.6500
   80CHL1   H1A 8371   2.719   3.719   7.349  1.4075 -1.1806  1.3709
   80CHL1   H1B 8372   2.838   3.608   7.276  0.4436  0.9937 -0.3490
   80CHL1    C2 8373   2.679   3.664   7.143 -0.0476 -0.2194 -0.1393
   80CHL1   H2A 8374   2.747   3.740   7.099  2.1550 -3.1522 -2.2032
   80CHL1   H2B 8375   2.570   3.688   7.148  0.1753  1.4424 -2.0359
   80CHL1   C20 8376   2.791   3.447   8.036 -0.0588 -0.7222  0.1472
   80CHL1   H20 8377   2.731   3.536   8.008 -0.4418 -1.2096 -0.6114
   80CHL1   C21 8378   2.913   3.499   8.108  0.0834 -0.9029  0.1146
   80CHL1  H21A 8379   2.990   3.419   8.115 -0.9570 -2.0637 -1.1281
   80CHL1  H21B 8380   2.887   3.542   8.207  0.1927  1.9388 -0.9908
   80CHL1  H21C 8381   2.948   3.591   8.057  0.5047  0.2546  2.3731
   80CHL1   C22 8382   2.697   3.359   8.124 -0.4171  0.2480  0.2265
   80CHL1  H22A 8383   2.627   3.304   8.057 -0.7094  0.6596  0.1882
   80CHL1  H22B 8384   2.753   3.282   8.182 -0.9718  1.2472  2.1879
   80CHL1   C23 8385   2.620   3.428   8.239  0.5293 -0.7636  0.4740
   80CHL1  H23A 8386   2.705   3.451   8.308  1.6527 -0.3098 -0.9942
   80CHL1  H23B 8387   2.570   3.522   8.208 -1.9510 -0.5929  4.3342
   80CHL1   C24 8388   2.523   3.341   8.322 -0.2519 -0.3519  0.2423
   80CHL1  H24A 8389   2.574   3.252   8.363  2.3941  0.8774 -0.1550
   80CHL1  H24B 8390   2.481   3.399   8.407  0.6792  0.8630 -0.0877
   80CHL1   C25 8391   2.401   3.287   8.232 -0.4390 -0.3792 -0.2022
   80CHL1   H25 8392   2.449   3.240   8.144 -1.2906 -1.4446 -0.1245
   80CHL1   C26 8393   2.318   3.172   8.298 -0.0856  0.4584  0.4162
   80CHL1  H26A 8394   2.359   3.074   8.330 -1.1423 -0.1180  0.0603
   80CHL1  H26B 8395   2.265   3.218   8.384 -1.5082 -1.5830  0.7175
   80CHL1  H26C 8396   2.238   3.161   8.222  0.1473  0.1611  0.2121
   80CHL1   C27 8397   2.302   3.402   8.180  0.0787 -0.2423 -0.8002
   80CHL1  H27A 8398   2.370   3.478   8.137  1.0962 -0.2082  0.7759
   80CHL1  H27B 8399   2.234   3.362   8.101 -1.9574 -1.2320  1.3130
   80CHL1  H27C 8400   2.245   3.447   8.264  0.3289 -3.8232  1.5181
   81CHL1    C3 8401   0.563   2.157   6.763  0.3773  0.0396 -0.1789
   81CHL1    H3 8402   0.606   2.253   6.799 -0.6179  0.8857 -1.1523
   81CHL1    O3 8403   0.573   2.144   6.621 -0.4897  0.7800 -0.0773
   81CHL1   H3' 8404   0.550   2.052   6.604  0.5918  0.2878  0.9465
   81CHL1    C4 8405   0.643   2.041   6.835  0.3510 -0.4951 -0.6096
   81CHL1   H4A 8406   0.596   1.947   6.801 -2.0381  0.6541 -0.6837
   81CHL1   H4B 8407   0.750   2.054   6.807  0.3552  1.7209  0.2029
   81CHL1    C5 8408   0.629   2.054   6.987 -0.7705  0.3178 -0.7478
   81CHL1    C6 8409   0.740   2.075   7.060  0.2387 -0.6603 -0.5791
   81CHL1    H6 8410   0.841   2.076   7.017  0.0612  1.1687 -1.0297
   81CHL1    C7 8411   0.723   2.107   7.206 -0.1169  0.1827 -0.1922
   81CHL1   H7A 8412   0.809   2.072   7.267 -1.7123 -1.1605  1.3997
   81CHL1   H7B 8413   0.727   2.218   7.217  2.2873  0.0028  1.4436
   81CHL1    C8 8414   0.587   2.062   7.276  0.0695 -0.0333 -0.2697
   81CHL1    H8 8415   0.589   1.954   7.300 -0.6363  0.1364  0.5998
   81CHL1   C14 8416   0.569   2.137   7.411  0.1635  0.8442  0.5149
   81CHL1   H14 8417   0.569   2.243   7.381  0.8034 -0.1422 -3.4741
   81CHL1   C15 8418   0.683   2.135   7.513  0.5959  0.4852  0.3065
   81CHL1  H15A 8419   0.727   2.033   7.520 -0.3861 -0.0986 -1.4619
   81CHL1  H15B 8420   0.764   2.204   7.481  0.4139  0.2711 -0.6567
   81CHL1   C16 8421   0.610   2.170   7.644  0.2666  0.5310 -0.0909
   81CHL1  H16A 8422   0.626   2.085   7.714 -1.1363  0.8953  0.7083
   81CHL1  H16B 8423   0.663   2.257   7.688 -0.2694  0.7595  0.1066
   81CHL1   C17 8424   0.460   2.207   7.613 -1.2119 -0.8447 -0.9816
   81CHL1   H17 8425   0.465   2.310   7.572 -0.4689 -0.3505  0.2806
   81CHL1   C13 8426   0.435   2.118   7.485  0.7836 -0.3811  0.1491
   81CHL1   C18 8427   0.414   1.969   7.541  0.3539  0.2408  0.2099
   81CHL1  H18A 8428   0.491   1.949   7.618 -0.1981 -0.9810  0.4770
   81CHL1  H18B 8429   0.311   1.954   7.580 -0.0480  2.6663  0.2233
   81CHL1  H18C 8430   0.426   1.901   7.454 -2.0222 -1.2001  0.9003
   81CHL1   C12 8431   0.319   2.149   7.390  0.5566  0.0605 -0.6972
   81CHL1  H12A 8432   0.222   2.110   7.425  0.5335  1.6459  1.2027
   81CHL1  H12B 8433   0.311   2.257   7.365 -1.3031  0.0614 -0.1929
   81CHL1   C11 8434   0.339   2.086   7.251  0.2515 -0.1093  0.8658
   81CHL1  H11A 8435   0.321   1.977   7.266  1.0601 -0.1373  1.7289
   81CHL1  H11B 8436   0.258   2.132   7.190 -0.0829 -0.1694  1.2638
   81CHL1    C9 8437   0.477   2.106   7.186 -0.2947  0.3172  0.0590
   81CHL1    H9 8438   0.494   2.216   7.182 -0.9144  0.5010  1.6375
   81CHL1   C10 8439   0.489   2.052   7.038 -0.2582 -0.4553 -0.5590
   81CHL1   C19 8440   0.430   1.913   7.026 -0.0614  1.0022 -0.2744
   81CHL1  H19A 8441   0.474   1.843   7.101 -1.2620 -1.0618 -1.4014
   81CHL1  H19B 8442   0.323   1.914   7.055 -0.3194 -0.4291 -1.1196
   81CHL1  H19C 8443   0.440   1.869   6.925 -0.0234  0.2457  0.0490
   81CHL1    C1 8444   0.392   2.148   6.950 -0.0983  0.1803  0.7599
   81CHL1   H1A 8445   0.286   2.120   6.969 -0.5335  0.2294 -1.3221
   81CHL1   H1B 8446   0.399   2.251   6.992 -0.0335  0.2116  0.6732
   81CHL1    C2 8447   0.409   2.147   6.795 -0.0215  0.3205 -0.8185
   81CHL1   H2A 8448   0.342   2.226   6.755 -1.8959 -0.5428  0.4881
   81CHL1   H2B 8449   0.366   2.049   6.765 -2.2980  0.9483  0.2325
   81CHL1   C20 8450   0.360   2.208   7.735  0.3380  0.6094  0.6689
   81CHL1   H20 8451   0.346   2.103   7.767  1.9958 -0.0366 -0.5693
   81CHL1   C21 8452   0.224   2.275   7.686  0.8428  0.1955 -0.3505
   81CHL1  H21A 8453   0.164   2.302   7.775  0.4402  1.0143 -0.8649
   81CHL1  H21B 8454   0.161   2.201   7.631  0.1181 -0.1352  0.8851
   81CHL1  H21C 8455   0.241   2.372   7.635 -2.0995  1.6262  1.1786
   81CHL1   C22 8456   0.412   2.290   7.853  0.1278 -0.1319 -0.0442
   81CHL1  H22A 8457   0.521   2.280   7.871 -0.1474  1.4121  3.0463
   81CHL1  H22B 8458   0.395   2.397   7.830  1.1707  0.4171  1.5631
   81CHL1   C23 8459   0.350   2.251   7.991 -0.4173  0.3841 -0.1745
   81CHL1  H23A 8460   0.246   2.288   7.998 -0.1775  1.0827 -0.2000
   81CHL1  H23B 8461   0.353   2.141   7.980  2.6921  0.3936 -0.3722
   81CHL1   C24 8462   0.423   2.302   8.114 -0.2671 -0.4586 -0.1647
   81CHL1  H24A 8463   0.528   2.266   8.120 -0.1429 -0.1599 -0.5471
   81CHL1  H24B 8464   0.419   2.413   8.115  1.6639 -0.3510 -0.0277
   81CHL1   C25 8465   0.360   2.258   8.247  0.4290  0.4021  0.2819
   81CHL1   H25 8466   0.322   2.155   8.232  0.5025  0.5600 -1.1354
   81CHL1   C26 8467   0.461   2.258   8.359 -0.3488  0.0625 -0.7690
   81CHL1  H26A 8468   0.488   2.364   8.377 -0.4294 -0.2967  1.7244
   81CHL1  H26B 8469   0.423   2.223   8.457  0.4603  0.9563 -0.1076
   81CHL1  H26C 8470   0.550   2.204   8.321 -1.0757 -1.3521 -0.5261
   81CHL1   C27 8471   0.239   2.342   8.288  0.4914  0.1915  0.3586
   81CHL1  H27A 8472   0.199   2.312   8.387  0.0565 -2.5586 -0.5649
   81CHL1  H27B 8473   0.281   2.445   8.291  0.7091  0.0870  1.2853
   81CHL1  H27C 8474   0.153   2.342   8.218  1.2033 -0.5762 -0.5430
   82CHL1    C3 8475   1.579   5.601   6.982 -0.2386  0.0897  0.6334
   82CHL1    H3 8476   1.573   5.494   7.012  1.0416 -0.7589 -1.9130
   82CHL1    O3 8477   1.537   5.614   6.842 -0.1026 -0.1252  0.7172
   82CHL1   H3' 8478   1.561   5.702   6.814  1.8199 -0.7079  0.4067
   82CHL1    C4 8479   1.484   5.682   7.072 -0.4277  0.3941 -0.2408
   82CHL1   H4A 8480   1.484   5.783   7.026 -4.4650 -0.3905 -2.5203
   82CHL1   H4B 8481   1.379   5.650   7.052 -0.4597  2.2833 -3.9095
   82CHL1    C5 8482   1.525   5.676   7.219 -0.0433 -0.3643  0.2776
   82CHL1    C6 8483   1.441   5.634   7.312  0.1611 -0.2734 -0.9925
   82CHL1    H6 8484   1.346   5.587   7.282 -0.8006  1.7620 -1.3110
   82CHL1    C7 8485   1.489   5.634   7.456 -0.1929  0.0574  0.2917
   82CHL1   H7A 8486   1.407   5.676   7.518 -1.3526 -1.1490 -0.3797
   82CHL1   H7B 8487   1.501   5.526   7.477 -1.1392 -0.0885  0.1503
   82CHL1    C8 8488   1.614   5.713   7.478  0.4930 -0.4882 -0.2124
   82CHL1    H8 8489   1.579   5.818   7.469 -0.8521 -1.0044 -1.5008
   82CHL1   C14 8490   1.665   5.681   7.618  0.5476  0.5178  0.2017
   82CHL1   H14 8491   1.686   5.573   7.600  1.4879  0.6785  0.2795
   82CHL1   C15 8492   1.577   5.680   7.742 -0.0838 -0.4065  0.5466
   82CHL1  H15A 8493   1.523   5.776   7.754  1.0977  0.5934 -1.5331
   82CHL1  H15B 8494   1.499   5.603   7.724 -2.4364  2.1518 -0.9645
   82CHL1   C16 8495   1.677   5.658   7.854 -0.1669 -0.2674  0.1244
   82CHL1  H16A 8496   1.647   5.729   7.934 -2.5014  0.5573 -1.3873
   82CHL1  H16B 8497   1.692   5.552   7.886  1.9271  0.8956  3.5037
   82CHL1   C17 8498   1.823   5.693   7.796  0.2282  0.1206  0.0232
   82CHL1   H17 8499   1.877   5.596   7.786 -0.2914 -0.3865  1.7282
   82CHL1   C13 8500   1.796   5.750   7.655 -0.3991 -0.5139  0.2720
   82CHL1   C18 8501   1.768   5.903   7.675 -0.4278 -0.0594  0.1147
   82CHL1  H18A 8502   1.863   5.961   7.672 -0.2037 -0.4562 -0.4812
   82CHL1  H18B 8503   1.706   5.933   7.588 -0.4972 -1.7583 -0.4424
   82CHL1  H18C 8504   1.701   5.910   7.764  0.1810 -0.5143  0.6201
   82CHL1   C12 8505   1.906   5.714   7.552  0.0464 -0.2981  0.0274
   82CHL1  H12A 8506   2.000   5.771   7.565  0.0468 -0.2770 -0.0635
   82CHL1  H12B 8507   1.933   5.606   7.556  4.5021  0.6684  0.8573
   82CHL1   C11 8508   1.864   5.747   7.414 -0.1364  0.4426 -0.0185
   82CHL1  H11A 8509   1.853   5.857   7.405 -1.5353  0.3327  0.1188
   82CHL1  H11B 8510   1.942   5.719   7.340 -0.1887 -2.2195  0.7964
   82CHL1    C9 8511   1.729   5.686   7.378  0.0392  0.0588  0.7101
   82CHL1    H9 8512   1.740   5.575   7.381 -1.1259 -0.0631  1.1536
   82CHL1   C10 8513   1.670   5.719   7.239  0.2701 -0.3058  0.3824
   82CHL1   C19 8514   1.665   5.869   7.215  0.0960 -0.1574 -0.2576
   82CHL1  H19A 8515   1.770   5.905   7.223 -0.1735  0.6936 -0.4681
   82CHL1  H19B 8516   1.634   5.896   7.112  1.0724  0.1182 -0.4887
   82CHL1  H19C 8517   1.604   5.922   7.291  0.5160 -1.1064  0.7642
   82CHL1    C1 8518   1.764   5.646   7.138 -0.2335  0.1659 -0.0476
   82CHL1   H1A 8519   1.861   5.697   7.151  1.1359 -2.1754 -0.4527
   82CHL1   H1B 8520   1.748   5.539   7.166 -1.3615 -0.0846 -1.4959
   82CHL1    C2 8521   1.716   5.668   6.995 -0.0473  0.2868 -0.0098
   82CHL1   H2A 8522   1.783   5.621   6.920 -1.4942 -0.0339 -1.1319
   82CHL1   H2B 8523   1.710   5.777   6.975  0.5147  0.2470 -0.4111
   82CHL1   C20 8524   1.917   5.764   7.895 -0.2145 -0.0360  0.3090
   82CHL1   H20 8525   1.870   5.865   7.901  2.4715  1.3984 -1.0737
   82CHL1   C21 8526   2.061   5.769   7.832 -0.2596  0.6191  0.0526
   82CHL1  H21A 8527   2.080   5.836   7.746  2.2433  0.7856  0.6485
   82CHL1  H21B 8528   2.100   5.668   7.808 -1.7475 -0.1954  0.9265
   82CHL1  H21C 8529   2.130   5.821   7.902  1.1274  0.4335 -1.1362
   82CHL1   C22 8530   1.925   5.697   8.029 -0.0922  0.4415  0.0856
   82CHL1  H22A 8531   1.821   5.687   8.068 -0.0502  0.7021  0.2687
   82CHL1  H22B 8532   1.961   5.593   8.020  0.7814  0.5484  1.9598
   82CHL1   C23 8533   2.002   5.767   8.135 -0.3190  0.4890 -0.1982
   82CHL1  H23A 8534   2.111   5.768   8.113  0.0416 -2.7285  0.8896
   82CHL1  H23B 8535   1.964   5.870   8.151 -0.9544  0.1161  0.8229
   82CHL1   C24 8536   1.995   5.685   8.265  0.5981 -0.9436  0.1973
   82CHL1  H24A 8537   1.887   5.685   8.288  0.2271  1.6914 -1.1250
   82CHL1  H24B 8538   2.030   5.586   8.229  0.6743 -0.2905 -1.6643
   82CHL1   C25 8539   2.062   5.742   8.387 -0.4874  0.1723  0.8811
   82CHL1   H25 8540   2.047   5.673   8.473 -1.0981  1.8450  2.1840
   82CHL1   C26 8541   2.213   5.773   8.357  0.8022  0.0750 -0.5221
   82CHL1  H26A 8542   2.259   5.807   8.453  1.4094 -1.5464 -0.2171
   82CHL1  H26B 8543   2.272   5.681   8.338  0.1968 -0.0452 -1.9277
   82CHL1  H26C 8544   2.232   5.842   8.272 -0.1445  0.5821 -0.3358
   82CHL1   C27 8545   1.987   5.869   8.430  0.7970 -1.1600 -0.0714
   82CHL1  H27A 8546   2.033   5.921   8.517 -0.7126 -0.1893  0.1908
   82CHL1  H27B 8547   1.995   5.953   8.358  1.0621  0.6735  1.9883
   82CHL1  H27C 8548   1.881   5.845   8.456  0.5764  1.1224  1.4471
   83CHL1    C3 8549   5.109   5.498   6.985  0.1784 -0.0928 -0.3401
   83CHL1    H3 8550   5.087   5.393   6.955  0.1331  0.1726 -1.2609
   83CHL1    O3 8551   5.089   5.581   6.869 -0.5315  0.3993  0.3173
   83CHL1   H3' 8552   5.101   5.670   6.903  0.8584 -0.3621  2.0297
   83CHL1    C4 8553   5.001   5.532   7.088 -0.4770 -0.1284 -0.9018
   83CHL1   H4A 8554   5.004   5.642   7.102  1.2613 -0.0857 -1.4108
   83CHL1   H4B 8555   4.897   5.508   7.056 -0.6140  0.6185 -1.0230
   83CHL1    C5 8556   5.028   5.450   7.216 -0.0199  0.2720 -0.3002
   83CHL1    C6 8557   4.931   5.386   7.283  0.6320 -0.0042 -0.5369
   83CHL1    H6 8558   4.828   5.394   7.246 -0.3266  0.9976  2.0834
   83CHL1    C7 8559   4.947   5.324   7.423 -0.0261 -0.4168  0.8990
   83CHL1   H7A 8560   4.855   5.349   7.479 -0.9638 -2.1708  0.2457
   83CHL1   H7B 8561   4.954   5.213   7.417 -0.6706 -0.5664  2.5168
   83CHL1    C8 8562   5.073   5.371   7.489  0.0379 -0.1087 -0.4751
   83CHL1    H8 8563   5.061   5.475   7.529 -0.7073  0.1588 -1.3527
   83CHL1   C14 8564   5.114   5.282   7.608 -0.3810 -0.5337 -0.9724
   83CHL1   H14 8565   5.122   5.177   7.571  2.5590 -1.1457  1.0463
   83CHL1   C15 8566   5.003   5.263   7.724 -0.5013  0.2469 -0.4648
   83CHL1  H15A 8567   4.943   5.356   7.731 -0.0282  0.6685 -1.7112
   83CHL1  H15B 8568   4.931   5.185   7.691 -0.4747 -0.0400  0.1440
   83CHL1   C16 8569   5.084   5.219   7.849 -0.0195  0.1180 -0.4275
   83CHL1  H16A 8570   5.060   5.297   7.923  0.1674 -1.1113  0.9846
   83CHL1  H16B 8571   5.038   5.122   7.877 -3.1053  0.5858 -3.2416
   83CHL1   C17 8572   5.231   5.223   7.805 -0.3932  0.0689 -0.5510
   83CHL1   H17 8573   5.254   5.118   7.778 -0.4273 -0.8830  2.6335
   83CHL1   C13 8574   5.246   5.316   7.686 -0.6155 -0.4285 -0.1319
   83CHL1   C18 8575   5.246   5.461   7.734  0.3183  0.5867  0.7301
   83CHL1  H18A 8576   5.172   5.493   7.811  2.3196 -0.1061  3.0593
   83CHL1  H18B 8577   5.342   5.495   7.779 -0.1359  0.6372  1.6993
   83CHL1  H18C 8578   5.213   5.531   7.655  0.6718  2.3295  2.0603
   83CHL1   C12 8579   5.354   5.289   7.580  0.3500 -0.3089 -0.1738
   83CHL1  H12A 8580   5.456   5.312   7.616  0.3654 -1.5787  0.6515
   83CHL1  H12B 8581   5.336   5.184   7.550 -0.9629 -0.4528  1.0278
   83CHL1   C11 8582   5.339   5.374   7.455  0.3711 -0.1145  0.5915
   83CHL1  H11A 8583   5.376   5.477   7.473  1.1173  0.0449 -1.5410
   83CHL1  H11B 8584   5.413   5.323   7.389 -0.3331  0.3296 -0.5821
   83CHL1    C9 8585   5.195   5.363   7.391  0.4310 -0.9217  0.0415
   83CHL1    H9 8586   5.191   5.261   7.346  2.6062 -0.9911 -0.0702
   83CHL1   C10 8587   5.174   5.457   7.266 -0.3275 -0.4548 -0.2366
   83CHL1   C19 8588   5.196   5.601   7.319  0.2232 -0.7112  0.1159
   83CHL1  H19A 8589   5.121   5.639   7.392 -0.7749  1.7080 -1.9985
   83CHL1  H19B 8590   5.297   5.615   7.363  1.1787 -0.1312 -2.0812
   83CHL1  H19C 8591   5.190   5.684   7.245  1.4638 -0.1452  0.6206
   83CHL1    C1 8592   5.279   5.425   7.154 -0.0218  0.2712 -0.1180
   83CHL1   H1A 8593   5.384   5.444   7.183  0.4990  1.8365 -2.6843
   83CHL1   H1B 8594   5.275   5.316   7.133  0.8237 -0.2661  2.2268
   83CHL1    C2 8595   5.250   5.513   7.031 -0.3290  0.0852 -0.4953
   83CHL1   H2A 8596   5.320   5.473   6.954 -1.8877 -1.9466 -0.9305
   83CHL1   H2B 8597   5.268   5.618   7.065 -0.9120  0.6750 -1.9289
   83CHL1   C20 8598   5.330   5.245   7.928  0.1895  0.6208  0.0641
   83CHL1   H20 8599   5.345   5.354   7.944 -0.4074  0.8556 -0.8986
   83CHL1   C21 8600   5.461   5.180   7.891  0.0727  0.1968 -0.5422
   83CHL1  H21A 8601   5.450   5.074   7.860  1.2519 -0.3878  0.8630
   83CHL1  H21B 8602   5.523   5.178   7.984 -2.7793  0.2814  1.5022
   83CHL1  H21C 8603   5.517   5.237   7.814  0.3738 -0.8116 -1.0828
   83CHL1   C22 8604   5.276   5.191   8.058 -0.1489  0.2998  0.4583
   83CHL1  H22A 8605   5.183   5.244   8.088  0.5511  0.7500  1.9119
   83CHL1  H22B 8606   5.249   5.084   8.051  1.6440 -0.2431  1.2815
   83CHL1   C23 8607   5.372   5.207   8.173 -1.0620 -0.5258 -0.4220
   83CHL1  H23A 8608   5.459   5.139   8.159 -0.0077  0.1800  2.0535
   83CHL1  H23B 8609   5.421   5.307   8.185 -1.1829 -0.7265  2.5175
   83CHL1   C24 8610   5.307   5.154   8.300  0.2100 -0.0840  0.4907
   83CHL1  H24A 8611   5.225   5.081   8.284 -1.7873  1.9278  0.9984
   83CHL1  H24B 8612   5.399   5.112   8.347  0.5827 -0.3522 -0.4705
   83CHL1   C25 8613   5.227   5.255   8.376 -0.4832 -0.0501  0.3690
   83CHL1   H25 8614   5.144   5.289   8.311 -1.7834  0.0487  1.9908
   83CHL1   C26 8615   5.133   5.172   8.484 -0.3448 -0.4554 -0.0777
   83CHL1  H26A 8616   5.064   5.245   8.531 -2.7517 -0.2899 -3.4467
   83CHL1  H26B 8617   5.078   5.086   8.439 -1.4676  0.5514 -0.6831
   83CHL1  H26C 8618   5.201   5.122   8.556 -1.8953 -2.3198  0.1864
   83CHL1   C27 8619   5.315   5.373   8.429  0.4967  0.5169  0.3381
   83CHL1  H27A 8620   5.250   5.452   8.472 -0.5088 -0.2553  0.2653
   83CHL1  H27B 8621   5.398   5.340   8.495  1.8906  0.0730 -1.5561
   83CHL1  H27C 8622   5.362   5.428   8.345  1.5164  0.7114  1.0213
   84CHL1    C3 8623   6.765   1.556   6.572  0.6893 -0.2719 -0.3253
   84CHL1    H3 8624   6.680   1.491   6.600  1.5154 -1.7643 -1.2126
   84CHL1    O3 8625   6.765   1.556   6.431  0.0417  0.3383  0.2290
   84CHL1   H3' 8626   6.685   1.605   6.409 -0.4112 -0.1424  0.7691
   84CHL1    C4 8627   6.748   1.703   6.633  0.6724  0.1730 -0.0942
   84CHL1   H4A 8628   6.834   1.761   6.592  0.7086  0.6504  0.6561
   84CHL1   H4B 8629   6.661   1.756   6.589  0.0855  0.7382  1.6664
   84CHL1    C5 8630   6.746   1.717   6.785  0.3245  0.7039  0.0927
   84CHL1    C6 8631   6.640   1.767   6.846  0.6487 -0.6408  0.2046
   84CHL1    H6 8632   6.559   1.814   6.789  1.4773 -1.6281 -1.9256
   84CHL1    C7 8633   6.616   1.755   6.995 -0.4482 -0.5441  0.4153
   84CHL1   H7A 8634   6.573   1.844   7.045  2.2770  1.8952 -1.2325
   84CHL1   H7B 8635   6.558   1.667   7.030 -0.1724 -0.7859  0.2778
   84CHL1    C8 8636   6.752   1.735   7.075  0.2685  0.0897 -0.0371
   84CHL1    H8 8637   6.807   1.831   7.067  0.8585 -0.3720 -2.0720
   84CHL1   C14 8638   6.716   1.692   7.216  0.1623  0.8476 -0.0788
   84CHL1   H14 8639   6.664   1.595   7.203  0.3740  0.7581 -0.2572
   84CHL1   C15 8640   6.607   1.766   7.301 -0.0519  0.1465 -0.4402
   84CHL1  H15A 8641   6.620   1.876   7.309  1.1918  0.0620 -1.1753
   84CHL1  H15B 8642   6.513   1.731   7.253 -0.0093 -1.8189  0.7887
   84CHL1   C16 8643   6.633   1.695   7.441 -0.7143 -0.1412  0.1033
   84CHL1  H16A 8644   6.631   1.775   7.518  3.7982  0.3654 -0.0017
   84CHL1  H16B 8645   6.544   1.632   7.462 -1.6670  1.2903  0.5165
   84CHL1   C17 8646   6.768   1.625   7.438 -0.1388 -0.0020  0.8824
   84CHL1   H17 8647   6.737   1.519   7.424  0.1347  0.0071  0.1593
   84CHL1   C13 8648   6.837   1.657   7.305  0.5425  0.1094  0.1460
   84CHL1   C18 8649   6.922   1.785   7.324 -0.6805  0.1966  0.2483
   84CHL1  H18A 8650   6.951   1.826   7.225 -0.0329 -0.3897  0.1918
   84CHL1  H18B 8651   6.855   1.869   7.354 -0.9163  1.6072 -3.6350
   84CHL1  H18C 8652   7.011   1.774   7.389 -0.1497 -0.1768 -0.5368
   84CHL1   C12 8653   6.927   1.550   7.238 -0.1031 -0.9009  0.5980
   84CHL1  H12A 8654   7.010   1.529   7.308  0.7535 -1.9170 -0.6840
   84CHL1  H12B 8655   6.863   1.460   7.247  2.6459 -2.7693  3.9841
   84CHL1   C11 8656   6.962   1.571   7.088 -0.6347  0.5167  0.4099
   84CHL1  H11A 8657   7.038   1.651   7.079 -0.5430  0.5299  1.2108
   84CHL1  H11B 8658   7.002   1.473   7.054 -1.0692  0.0575  1.1767
   84CHL1    C9 8659   6.841   1.624   7.009  0.2470 -0.2528  0.3188
   84CHL1    H9 8660   6.770   1.538   7.008  0.8970 -0.8099 -1.0413
   84CHL1   C10 8661   6.865   1.644   6.856 -0.2463 -0.4460  0.6407
   84CHL1   C19 8662   6.990   1.733   6.825  0.2827  0.1691  0.2754
   84CHL1  H19A 8663   7.088   1.680   6.827  1.2432  1.7981 -0.7640
   84CHL1  H19B 8664   6.986   1.770   6.720 -0.4549  0.3322  0.3553
   84CHL1  H19C 8665   6.986   1.823   6.891 -0.9893  1.6180 -1.6531
   84CHL1    C1 8666   6.892   1.501   6.792  0.2036  0.7827  1.0116
   84CHL1   H1A 8667   6.993   1.472   6.826  0.8165 -0.8095 -1.8380
   84CHL1   H1B 8668   6.822   1.418   6.817  1.6840 -0.7685  0.1705
   84CHL1    C2 8669   6.890   1.493   6.635 -0.2381 -0.2768  0.2401
   84CHL1   H2A 8670   6.910   1.388   6.605 -2.0013 -0.8399  0.8474
   84CHL1   H2B 8671   6.973   1.555   6.597  0.2201 -2.0825 -1.8508
   84CHL1   C20 8672   6.847   1.629   7.571  1.1074 -0.1150 -0.0899
   84CHL1   H20 8673   6.951   1.606   7.543  1.4282  2.0736 -0.8744
   84CHL1   C21 8674   6.795   1.515   7.663  0.2957 -0.0414 -0.6630
   84CHL1  H21A 8675   6.873   1.502   7.741 -0.1735  0.8870 -0.0272
   84CHL1  H21B 8676   6.795   1.418   7.609  1.3605 -0.9857  0.9581
   84CHL1  H21C 8677   6.696   1.534   7.711  0.6952 -0.0181  0.1686
   84CHL1   C22 8678   6.854   1.763   7.647 -0.2854 -0.1551  0.3895
   84CHL1  H22A 8679   6.844   1.849   7.578  1.6283 -1.0365 -1.0779
   84CHL1  H22B 8680   6.764   1.765   7.713 -0.1968 -0.6921  0.5336
   84CHL1   C23 8681   6.976   1.775   7.745 -0.0120 -0.3923  0.2912
   84CHL1  H23A 8682   6.973   1.682   7.806  0.0143 -1.6154 -1.5211
   84CHL1  H23B 8683   7.069   1.770   7.685 -0.1695 -0.6644  0.0687
   84CHL1   C24 8684   6.981   1.900   7.837  0.1434  0.2023  0.0493
   84CHL1  H24A 8685   7.075   1.882   7.892  0.3160  0.7438 -0.0672
   84CHL1  H24B 8686   6.997   1.984   7.766  1.4243 -0.8760 -0.9748
   84CHL1   C25 8687   6.867   1.917   7.938 -0.0907 -0.4602  0.0312
   84CHL1   H25 8688   6.772   1.940   7.886 -0.5052 -0.9055  0.5843
   84CHL1   C26 8689   6.842   1.789   8.023  0.3376  0.0017  0.4318
   84CHL1  H26A 8690   6.814   1.694   7.972  1.2407  0.5010 -1.0883
   84CHL1  H26B 8691   6.929   1.776   8.092  1.9495  2.7894 -0.9174
   84CHL1  H26C 8692   6.751   1.816   8.080  0.6141 -0.9544  1.3560
   84CHL1   C27 8693   6.893   2.032   8.029  0.0074 -0.6109 -0.6784
   84CHL1  H27A 8694   6.989   2.009   8.080 -0.6991 -0.4991  0.7628
   84CHL1  H27B 8695   6.884   2.133   7.984  1.0543 -0.5172 -0.6790
   84CHL1  H27C 8696   6.815   2.030   8.108 -0.9960 -0.2020 -1.6199
   85CHL1    C3 8697   5.763   0.443   6.741  0.6829  0.4279 -0.0012
   85CHL1    H3 8698   5.769   0.338   6.774  0.2291  0.7165  1.0498
   85CHL1    O3 8699   5.800   0.458   6.607 -0.1915 -0.2285 -0.4236
   85CHL1   H3' 8700   5.725   0.417   6.563  2.6517 -2.8060 -3.3863
   85CHL1    C4 8701   5.615   0.480   6.768  0.2256 -0.0425  0.0539
   85CHL1   H4A 8702   5.603   0.586   6.737  0.8562  0.5552  1.7689
   85CHL1   H4B 8703   5.554   0.428   6.690 -0.6789  1.9391 -0.6074
   85CHL1    C5 8704   5.565   0.452   6.906 -0.4826 -0.5268  0.1817
   85CHL1    C6 8705   5.461   0.376   6.936 -0.5646  0.7283  0.6416
   85CHL1    H6 8706   5.394   0.352   6.852  1.3744  0.2137 -0.8346
   85CHL1    C7 8707   5.421   0.347   7.077  0.5056 -0.2834 -0.2595
   85CHL1   H7A 8708   5.310   0.341   7.075  0.4792  0.3319 -1.3242
   85CHL1   H7B 8709   5.469   0.249   7.100  2.8621  1.0265  0.8146
   85CHL1    C8 8710   5.464   0.444   7.185 -0.1724  0.3267 -0.3877
   85CHL1    H8 8711   5.410   0.536   7.157 -2.4042 -1.2867 -1.6723
   85CHL1   C14 8712   5.435   0.389   7.317 -0.1627  0.0496 -0.2229
   85CHL1   H14 8713   5.500   0.300   7.323 -0.9227 -0.4672  0.7148
   85CHL1   C15 8714   5.292   0.347   7.347  0.0905  0.1381 -0.7428
   85CHL1  H15A 8715   5.219   0.418   7.303  0.5599  1.3353  0.3517
   85CHL1  H15B 8716   5.263   0.244   7.318  3.3231 -1.1809  0.1972
   85CHL1   C16 8717   5.286   0.355   7.504  0.2804 -0.7291 -0.7278
   85CHL1  H16A 8718   5.197   0.416   7.532  1.1260  0.3357 -0.2847
   85CHL1  H16B 8719   5.267   0.254   7.546 -1.4023 -0.6413 -1.2225
   85CHL1   C17 8720   5.430   0.407   7.554  0.6786  0.4334  0.2138
   85CHL1   H17 8721   5.494   0.316   7.561 -0.6950 -0.7421 -1.4755
   85CHL1   C13 8722   5.480   0.477   7.433  0.1237 -0.1606 -0.9268
   85CHL1   C18 8723   5.393   0.608   7.435  0.4285  0.5418 -0.1429
   85CHL1  H18A 8724   5.283   0.605   7.453 -0.1226  2.7996 -2.4608
   85CHL1  H18B 8725   5.430   0.679   7.512  2.1099  1.3372 -1.5945
   85CHL1  H18C 8726   5.405   0.667   7.341  0.0750  0.0084 -0.5290
   85CHL1   C12 8727   5.632   0.500   7.416 -0.5490  0.2359 -1.0216
   85CHL1  H12A 8728   5.677   0.566   7.494 -0.0144 -0.4457 -0.7484
   85CHL1  H12B 8729   5.681   0.401   7.427  1.6671  1.4201  0.9769
   85CHL1   C11 8730   5.675   0.552   7.282  0.9163  0.7800  1.0099
   85CHL1  H11A 8731   5.629   0.651   7.259  0.0916 -0.0142 -1.0568
   85CHL1  H11B 8732   5.782   0.582   7.279  0.2393  3.7691  2.8195
   85CHL1    C9 8733   5.614   0.466   7.168 -0.5507  0.3086 -0.2028
   85CHL1    H9 8734   5.661   0.366   7.176  1.7638  1.3733  0.6144
   85CHL1   C10 8735   5.656   0.515   7.026 -0.4332  0.3748  0.0190
   85CHL1   C19 8736   5.633   0.667   7.013 -1.0833  0.2864 -0.6954
   85CHL1  H19A 8737   5.641   0.700   6.907  0.3503 -1.1768 -1.0796
   85CHL1  H19B 8738   5.533   0.686   7.059 -0.4892 -2.0734  1.7715
   85CHL1  H19C 8739   5.714   0.724   7.063 -1.8046  0.7937 -0.0760
   85CHL1    C1 8740   5.808   0.494   6.989  0.0588 -0.6879 -0.1435
   85CHL1   H1A 8741   5.859   0.578   7.040  0.6791 -1.4193  0.4663
   85CHL1   H1B 8742   5.848   0.402   7.038  0.7539 -0.2704  0.0870
   85CHL1    C2 8743   5.850   0.511   6.848  0.0139 -0.1581  0.1491
   85CHL1   H2A 8744   5.956   0.485   6.826  0.8277  2.1162  1.0089
   85CHL1   H2B 8745   5.837   0.621   6.833 -0.2506 -0.4426 -1.9928
   85CHL1   C20 8746   5.431   0.463   7.696  0.2633  0.8465  0.0204
   85CHL1   H20 8747   5.379   0.561   7.691 -1.9163 -0.2765 -0.5875
   85CHL1   C21 8748   5.578   0.498   7.744 -0.2614 -0.2924 -0.2346
   85CHL1  H21A 8749   5.624   0.575   7.677  1.0081  1.1914  2.1665
   85CHL1  H21B 8750   5.648   0.412   7.741  1.9018  1.3814 -2.8069
   85CHL1  H21C 8751   5.575   0.528   7.851  1.2584 -2.8760  0.6083
   85CHL1   C22 8752   5.353   0.370   7.798 -0.3454  1.0343  0.0305
   85CHL1  H22A 8753   5.245   0.358   7.775 -0.2976 -1.4918  0.8029
   85CHL1  H22B 8754   5.387   0.264   7.798 -2.3827  0.3428  0.4465
   85CHL1   C23 8755   5.372   0.410   7.945 -0.5625 -0.6494 -0.6534
   85CHL1  H23A 8756   5.475   0.383   7.976 -0.3105 -3.3285 -3.4316
   85CHL1  H23B 8757   5.355   0.520   7.955 -0.2676 -0.6925  0.4005
   85CHL1   C24 8758   5.271   0.326   8.029 -0.4726 -0.3664 -0.2667
   85CHL1  H24A 8759   5.169   0.345   7.988 -1.2494  1.7157  2.3218
   85CHL1  H24B 8760   5.285   0.216   8.025  1.8965 -0.1377  0.2778
   85CHL1   C25 8761   5.256   0.365   8.176  0.6856 -0.0073 -0.1489
   85CHL1   H25 8762   5.225   0.470   8.196 -0.1097 -0.4668  1.2009
   85CHL1   C26 8763   5.141   0.276   8.230 -0.1490 -0.1552  0.3177
   85CHL1  H26A 8764   5.116   0.293   8.337  1.0056 -0.9341  0.7463
   85CHL1  H26B 8765   5.044   0.288   8.178  0.1256  2.1499  0.2440
   85CHL1  H26C 8766   5.167   0.168   8.236 -1.9362 -0.7057 -0.9950
   85CHL1   C27 8767   5.386   0.342   8.259  0.0350 -0.9437  0.1828
   85CHL1  H27A 8768   5.420   0.239   8.234  0.1383 -0.4305 -2.0584
   85CHL1  H27B 8769   5.474   0.408   8.241  0.4747 -0.8922  2.2470
   85CHL1  H27C 8770   5.372   0.347   8.369  4.9498 -1.0442  1.0293
   86CHL1    C3 8771   1.314   2.193   6.701 -0.2320  0.2292  0.2865
   86CHL1    H3 8772   1.297   2.088   6.735  0.3881 -0.5247 -1.6118
   86CHL1    O3 8773   1.341   2.197   6.560  0.1277  0.2962 -0.2563
   86CHL1   H3' 8774   1.255   2.203   6.518  0.9464  0.8407 -1.9371
   86CHL1    C4 8775   1.204   2.291   6.732  0.2183 -0.4793 -0.8278
   86CHL1   H4A 8776   1.239   2.393   6.708  0.9465  0.6834  4.0971
   86CHL1   H4B 8777   1.108   2.269   6.679 -1.2743 -0.2773  1.6516
   86CHL1    C5 8778   1.181   2.292   6.881  0.2772 -0.4074 -0.3980
   86CHL1    C6 8779   1.058   2.276   6.934  0.0491  0.0183 -0.0373
   86CHL1    H6 8780   0.973   2.266   6.865  1.8217 -0.1892 -2.3171
   86CHL1    C7 8781   1.022   2.270   7.082 -0.4472 -0.3074 -0.1120
   86CHL1   H7A 8782   0.925   2.320   7.102 -0.2823  0.2309 -0.6229
   86CHL1   H7B 8783   1.008   2.162   7.104  0.3640 -0.5336 -0.6548
   86CHL1    C8 8784   1.138   2.327   7.162  0.0863  0.4676  0.4516
   86CHL1    H8 8785   1.136   2.437   7.146 -3.2387  0.6231  1.3298
   86CHL1   C14 8786   1.113   2.314   7.307 -0.3620  0.0167  0.7796
   86CHL1   H14 8787   1.103   2.204   7.324  0.8548 -0.3591 -0.7209
   86CHL1   C15 8788   0.997   2.377   7.373  0.6326 -0.2503  0.0650
   86CHL1  H15A 8789   0.973   2.475   7.328 -0.5879 -0.6914 -0.2820
   86CHL1  H15B 8790   0.908   2.309   7.375 -1.3443  2.1520 -0.8425
   86CHL1   C16 8791   1.041   2.400   7.520  0.3873  0.5536  1.1606
   86CHL1  H16A 8792   1.049   2.511   7.526  2.2539  0.5245 -0.1133
   86CHL1  H16B 8793   0.968   2.362   7.594  0.5678 -2.2836  0.0081
   86CHL1   C17 8794   1.186   2.349   7.529 -0.9033  0.2271 -0.8681
   86CHL1   H17 8795   1.187   2.241   7.557  0.8848  0.2493 -0.7331
   86CHL1   C13 8796   1.240   2.359   7.390  0.8429  0.5231  0.0026
   86CHL1   C18 8797   1.279   2.506   7.361  0.1264 -0.2123  0.0816
   86CHL1  H18A 8798   1.358   2.542   7.431  1.0173 -1.9639  0.0517
   86CHL1  H18B 8799   1.310   2.519   7.255 -0.5066  0.1525 -0.0602
   86CHL1  H18C 8800   1.191   2.572   7.376  0.1901  0.1390 -1.0105
   86CHL1   C12 8801   1.357   2.267   7.358 -0.8600  0.1348 -0.2915
   86CHL1  H12A 8802   1.443   2.297   7.422 -1.4803 -1.8654  1.6182
   86CHL1  H12B 8803   1.333   2.163   7.389 -0.2224  0.0423 -0.0932
   86CHL1   C11 8804   1.391   2.281   7.212  0.3210 -0.6509  0.3683
   86CHL1  H11A 8805   1.450   2.372   7.186 -0.8896 -0.5854 -2.5567
   86CHL1  H11B 8806   1.462   2.203   7.175 -0.7827 -1.7503  0.4878
   86CHL1    C9 8807   1.269   2.263   7.118  0.0271 -0.2367  0.1019
   86CHL1    H9 8808   1.246   2.154   7.120 -0.1025 -0.2199 -0.4325
   86CHL1   C10 8809   1.308   2.300   6.973 -0.0019 -0.8006  0.9298
   86CHL1   C19 8810   1.347   2.452   6.966  0.7692  0.0209  0.8773
   86CHL1  H19A 8811   1.355   2.481   6.860  2.8884 -2.7026  0.1656
   86CHL1  H19B 8812   1.271   2.523   7.003  2.3778  1.1743  2.1352
   86CHL1  H19C 8813   1.444   2.487   7.009 -0.2701  2.5903  1.2731
   86CHL1    C1 8814   1.425   2.213   6.918 -0.7284 -0.4469 -0.6281
   86CHL1   H1A 8815   1.523   2.232   6.966 -1.7684  1.5603  0.8890
   86CHL1   H1B 8816   1.388   2.114   6.951 -0.5149 -0.2752  0.1531
   86CHL1    C2 8817   1.438   2.232   6.769 -0.2235  0.0768 -0.0502
   86CHL1   H2A 8818   1.520   2.163   6.738 -0.0253  0.6773 -0.8830
   86CHL1   H2B 8819   1.464   2.337   6.745  0.5223  0.0116  0.4462
   86CHL1   C20 8820   1.263   2.412   7.650  0.1113 -0.2295  0.3859
   86CHL1   H20 8821   1.294   2.516   7.627  0.4676 -0.2902  0.5984
   86CHL1   C21 8822   1.386   2.321   7.685 -0.5732 -0.4031  0.5922
   86CHL1  H21A 8823   1.473   2.346   7.621 -1.8834  0.4016 -0.9389
   86CHL1  H21B 8824   1.363   2.213   7.681 -0.6234 -0.3448 -2.3177
   86CHL1  H21C 8825   1.423   2.341   7.788  1.2579 -0.8732  0.0632
   86CHL1   C22 8826   1.175   2.420   7.780 -0.0737  0.7016 -0.7311
   86CHL1  H22A 8827   1.236   2.475   7.855 -2.1907  2.7244 -0.3777
   86CHL1  H22B 8828   1.086   2.483   7.757 -0.8845  0.1418  0.7364
   86CHL1   C23 8829   1.118   2.287   7.837  0.0731 -0.1904  0.4518
   86CHL1  H23A 8830   1.080   2.230   7.750 -2.3571  2.6903 -0.5639
   86CHL1  H23B 8831   1.202   2.224   7.873 -0.6063 -1.2360  0.2271
   86CHL1   C24 8832   1.007   2.300   7.945 -0.1319 -0.8202  0.5845
   86CHL1  H24A 8833   1.049   2.382   8.007 -2.7095  2.0955 -1.2843
   86CHL1  H24B 8834   0.922   2.341   7.887  1.2148 -0.3770 -1.1577
   86CHL1   C25 8835   0.968   2.171   8.021 -0.0484 -0.0817 -0.5614
   86CHL1   H25 8836   1.054   2.146   8.087  0.5519  2.8999 -0.0699
   86CHL1   C26 8837   0.861   2.201   8.126 -0.4670 -0.2006 -0.4075
   86CHL1  H26A 8838   0.768   2.255   8.098 -0.3262  1.1742  1.5257
   86CHL1  H26B 8839   0.832   2.106   8.175  0.7890 -0.4323 -0.1017
   86CHL1  H26C 8840   0.907   2.271   8.200  2.1162 -1.4555 -0.7227
   86CHL1   C27 8841   0.926   2.063   7.922  1.3558 -0.1338  0.1900
   86CHL1  H27A 8842   0.880   1.977   7.977  0.6119 -0.8281 -1.4593
   86CHL1  H27B 8843   0.848   2.103   7.855  1.5862 -1.4077 -0.8854
   86CHL1  H27C 8844   1.012   2.034   7.858  0.4639 -2.3744 -0.1065
   87CHL1    C3 8845   1.859   2.283   7.045 -0.2543 -0.0015 -0.0641
   87CHL1    H3 8846   1.805   2.186   7.049 -0.1514 -0.0653  3.2497
   87CHL1    O3 8847   1.826   2.344   6.920  0.3400  0.3446 -0.7424
   87CHL1   H3' 8848   1.855   2.435   6.923 -1.0888  0.8232 -0.8287
   87CHL1    C4 8849   1.815   2.381   7.155  0.6528 -0.1878  0.0511
   87CHL1   H4A 8850   1.861   2.479   7.134  2.5913 -0.8357  1.0661
   87CHL1   H4B 8851   1.705   2.390   7.141  0.4207  0.1243  1.8654
   87CHL1    C5 8852   1.847   2.328   7.292 -0.0758  0.0876  0.4420
   87CHL1    C6 8853   1.752   2.323   7.389 -0.3234 -0.0633 -0.3690
   87CHL1    H6 8854   1.652   2.360   7.361 -1.1799 -1.4329  0.7633
   87CHL1    C7 8855   1.764   2.254   7.529  0.3257  0.4622 -0.4649
   87CHL1   H7A 8856   1.716   2.318   7.606  2.2260 -1.1102  2.1923
   87CHL1   H7B 8857   1.704   2.160   7.529 -0.6423  1.0506  1.2157
   87CHL1    C8 8858   1.914   2.227   7.555 -0.1955  0.9362 -0.2116
   87CHL1    H8 8859   1.954   2.327   7.582  1.3807  0.1275  0.5739
   87CHL1   C14 8860   1.929   2.132   7.678  0.1157  0.2576  0.7830
   87CHL1   H14 8861   1.895   2.035   7.636  1.0559  0.5750 -0.7947
   87CHL1   C15 8862   1.852   2.154   7.808 -0.3868  0.7023 -0.0432
   87CHL1  H15A 8863   1.877   2.257   7.841  0.2413  0.5374  0.0099
   87CHL1  H15B 8864   1.743   2.133   7.810 -0.6807  2.0500 -0.5829
   87CHL1   C16 8865   1.919   2.065   7.908 -0.3433  0.5438 -0.2971
   87CHL1  H16A 8866   1.932   2.123   8.001  1.3157  0.3012 -0.3555
   87CHL1  H16B 8867   1.859   1.976   7.935  1.9027 -1.4220 -1.4364
   87CHL1   C17 8868   2.053   2.012   7.845 -0.3566 -0.6646  0.8715
   87CHL1   H17 8869   2.021   1.911   7.811 -1.0345 -0.2531  0.2465
   87CHL1   C13 8870   2.075   2.100   7.721 -0.1051  0.2914 -0.1939
   87CHL1   C18 8871   2.142   2.234   7.763  0.4913  0.1965  0.3021
   87CHL1  H18A 8872   2.154   2.297   7.672 -1.5096 -2.1714 -1.7592
   87CHL1  H18B 8873   2.078   2.291   7.835 -0.2406 -0.3490  0.0898
   87CHL1  H18C 8874   2.238   2.213   7.814  0.2542 -1.8579 -0.0343
   87CHL1   C12 8875   2.155   2.039   7.605  0.1729 -0.4836 -0.3299
   87CHL1  H12A 8876   2.264   2.038   7.628  0.5235 -0.9513 -1.8896
   87CHL1  H12B 8877   2.126   1.934   7.581  2.8815 -1.3275 -0.2983
   87CHL1   C11 8878   2.137   2.125   7.474 -0.6295 -0.7721 -0.4473
   87CHL1  H11A 8879   2.192   2.218   7.496  0.1066 -1.2950 -0.0511
   87CHL1  H11B 8880   2.190   2.071   7.393  0.8276  0.3526 -0.2839
   87CHL1    C9 8881   1.996   2.164   7.436  0.3718  0.4544  0.7074
   87CHL1    H9 8882   1.942   2.072   7.405  2.8327 -0.3283 -1.7052
   87CHL1   C10 8883   1.984   2.259   7.310 -0.7580 -0.0169 -0.3700
   87CHL1   C19 8884   2.077   2.382   7.331 -0.1443  0.0407 -0.5656
   87CHL1  H19A 8885   2.036   2.441   7.416 -0.9145  1.6416 -1.9682
   87CHL1  H19B 8886   2.183   2.352   7.345 -0.0024  0.3070 -1.0323
   87CHL1  H19C 8887   2.063   2.457   7.250 -1.4685  0.9051  0.4233
   87CHL1    C1 8888   2.034   2.178   7.183  0.4276  0.4109 -0.6898
   87CHL1   H1A 8889   2.144   2.164   7.196  0.4110 -0.9198 -1.8020
   87CHL1   H1B 8890   1.979   2.082   7.187  0.1857  0.4438 -2.4039
   87CHL1    C2 8891   2.002   2.255   7.054 -0.0481  0.4811 -0.1094
   87CHL1   H2A 8892   2.034   2.187   6.972 -1.8952 -2.0901  1.1755
   87CHL1   H2B 8893   2.064   2.347   7.050 -0.1921  0.6500  1.0660
   87CHL1   C20 8894   2.153   1.998   7.956 -0.4386 -0.0548  0.4532
   87CHL1   H20 8895   2.187   2.102   7.976  1.5823 -0.3662 -1.0132
   87CHL1   C21 8896   2.276   1.914   7.902  0.3558 -0.8331 -0.2338
   87CHL1  H21A 8897   2.316   1.968   7.813 -0.9831  0.4490 -0.1053
   87CHL1  H21B 8898   2.246   1.810   7.876  2.4924 -1.8455  1.1091
   87CHL1  H21C 8899   2.359   1.902   7.974  1.0412 -3.4011 -1.3468
   87CHL1   C22 8900   2.113   1.941   8.093  0.1630  1.2206 -0.1849
   87CHL1  H22A 8901   2.208   1.938   8.151 -0.2931  1.1740  0.5699
   87CHL1  H22B 8902   2.046   2.016   8.138 -1.2810 -0.9593  1.5089
   87CHL1   C23 8903   2.040   1.804   8.087 -0.3105  0.1316 -0.2263
   87CHL1  H23A 8904   1.962   1.807   8.008 -0.2396 -2.3891 -0.4572
   87CHL1  H23B 8905   2.115   1.724   8.071  0.8621  0.8109  1.5386
   87CHL1   C24 8906   1.963   1.763   8.219  0.1085 -0.5368  0.6128
   87CHL1  H24A 8907   2.034   1.743   8.302 -2.4918 -3.7529  2.3114
   87CHL1  H24B 8908   1.916   1.858   8.251 -1.3183 -0.8864 -0.3283
   87CHL1   C25 8909   1.876   1.638   8.193  0.5930  0.0031 -0.1691
   87CHL1   H25 8910   1.819   1.652   8.098 -3.0055 -0.9870  1.6758
   87CHL1   C26 8911   1.962   1.514   8.173 -0.3684  0.2599  0.2537
   87CHL1  H26A 8912   2.010   1.523   8.073  0.6486 -2.0516  0.4580
   87CHL1  H26B 8913   2.039   1.509   8.253  0.3613  0.3211 -0.4292
   87CHL1  H26C 8914   1.901   1.421   8.176 -1.0078  0.4893 -2.6308
   87CHL1   C27 8915   1.775   1.627   8.312 -0.6332 -0.3772  0.1503
   87CHL1  H27A 8916   1.826   1.639   8.410  0.5367 -0.3211 -0.4561
   87CHL1  H27B 8917   1.709   1.717   8.308 -0.2067 -0.0929 -0.7038
   87CHL1  H27C 8918   1.715   1.535   8.300 -0.3424 -0.4157 -1.1382
   88CHL1    C3 8919   6.722   0.687   6.940  0.4543  0.5638 -0.0122
   88CHL1    H3 8920   6.737   0.797   6.944 -0.5829  0.7461 -0.6495
   88CHL1    O3 8921   6.754   0.641   6.812  0.0655 -0.0854  0.2838
   88CHL1   H3' 8922   6.737   0.547   6.808 -0.9438 -0.0063  1.7478
   88CHL1    C4 8923   6.805   0.620   7.049 -0.0026  0.3098  0.9351
   88CHL1   H4A 8924   6.798   0.511   7.028 -0.2674  0.7600 -1.6229
   88CHL1   H4B 8925   6.910   0.651   7.028  0.2474 -0.5279  0.9270
   88CHL1    C5 8926   6.753   0.669   7.186 -0.4027  0.3956 -0.6976
   88CHL1    C6 8927   6.841   0.718   7.274  1.1695 -0.0516 -0.8279
   88CHL1    H6 8928   6.940   0.744   7.234  2.2583 -0.2909  1.5663
   88CHL1    C7 8929   6.808   0.735   7.426  0.1405  0.2087  0.2957
   88CHL1   H7A 8930   6.894   0.692   7.483 -0.7087 -0.1173  1.3550
   88CHL1   H7B 8931   6.795   0.842   7.449 -1.5910  0.2610 -0.8054
   88CHL1    C8 8932   6.670   0.667   7.463  0.4623 -0.9726  0.1698
   88CHL1    H8 8933   6.684   0.557   7.459 -0.2729 -1.0610 -0.0826
   88CHL1   C14 8934   6.628   0.724   7.600 -0.0410  0.4975  0.0262
   88CHL1   H14 8935   6.607   0.833   7.589 -0.8406  0.4843  1.1857
   88CHL1   C15 8936   6.732   0.713   7.716  0.1153 -0.0503  0.5114
   88CHL1  H15A 8937   6.786   0.617   7.706  1.8435  1.0095 -0.9606
   88CHL1  H15B 8938   6.799   0.802   7.721 -0.0524  0.2760 -2.0156
   88CHL1   C16 8939   6.647   0.704   7.839  0.7486  0.9092  0.7860
   88CHL1  H16A 8940   6.654   0.609   7.897 -0.2568 -0.0917 -0.6829
   88CHL1  H16B 8941   6.667   0.781   7.917 -1.0937  0.4011  1.8205
   88CHL1   C17 8942   6.497   0.710   7.792  0.0590 -0.3019 -0.1264
   88CHL1   H17 8943   6.478   0.819   7.784 -1.1199 -0.4546  0.3931
   88CHL1   C13 8944   6.500   0.661   7.647  0.1788 -0.0766  0.5886
   88CHL1   C18 8945   6.504   0.503   7.654 -0.1472  0.1266  0.9459
   88CHL1  H18A 8946   6.406   0.466   7.690 -0.1198 -0.9807 -0.0575
   88CHL1  H18B 8947   6.520   0.457   7.554  0.7001  1.3132  0.5174
   88CHL1  H18C 8948   6.589   0.477   7.722  0.3343 -1.1692 -0.1155
   88CHL1   C12 8949   6.381   0.700   7.549 -0.3412  0.4390  0.3160
   88CHL1  H12A 8950   6.293   0.644   7.586 -0.0444  0.6596  1.4063
   88CHL1  H12B 8951   6.368   0.811   7.554 -0.7950  0.3367  3.6812
   88CHL1   C11 8952   6.417   0.670   7.402  0.0978  0.4347 -0.1208
   88CHL1  H11A 8953   6.406   0.560   7.396  1.3527  0.3290 -0.9097
   88CHL1  H11B 8954   6.345   0.715   7.330 -1.0177 -2.0667 -0.6724
   88CHL1    C9 8955   6.566   0.699   7.354  0.0213  0.2705  0.2217
   88CHL1    H9 8956   6.581   0.809   7.345  0.2414  0.0624 -4.0442
   88CHL1   C10 8957   6.600   0.644   7.214  0.0927 -0.6586  0.6658
   88CHL1   C19 8958   6.574   0.497   7.213 -0.3144  0.2124 -0.5328
   88CHL1  H19A 8959   6.468   0.466   7.208  0.0903 -1.6354  1.0405
   88CHL1  H19B 8960   6.628   0.439   7.135  1.9902  1.9997 -0.3676
   88CHL1  H19C 8961   6.609   0.442   7.304  1.3127 -0.8264 -1.7167
   88CHL1    C1 8962   6.525   0.712   7.105  0.4272 -0.5031 -0.9902
   88CHL1   H1A 8963   6.414   0.700   7.110  0.4951 -0.9650 -0.4738
   88CHL1   H1B 8964   6.549   0.820   7.114 -1.1020 -0.0851 -1.5187
   88CHL1    C2 8965   6.570   0.669   6.964  0.1082  0.3423  0.1611
   88CHL1   H2A 8966   6.501   0.709   6.887 -1.1296  0.4470  1.2872
   88CHL1   H2B 8967   6.544   0.561   6.968  0.6166  0.2292  0.5008
   88CHL1   C20 8968   6.399   0.654   7.888 -0.2465  0.1525 -0.1899
   88CHL1   H20 8969   6.396   0.544   7.876  0.5416  0.1057  0.0533
   88CHL1   C21 8970   6.259   0.705   7.849 -0.8204  0.3335  0.4862
   88CHL1  H21A 8971   6.201   0.716   7.943 -0.4869  2.1913  0.5192
   88CHL1  H21B 8972   6.218   0.634   7.774 -2.0478  0.5639  0.9077
   88CHL1  H21C 8973   6.265   0.804   7.798 -0.8749 -0.6935 -1.6163
   88CHL1   C22 8974   6.417   0.700   8.040 -0.2466 -0.2329 -0.4108
   88CHL1  H22A 8975   6.349   0.663   8.119  0.1324 -0.6888 -0.2929
   88CHL1  H22B 8976   6.510   0.646   8.067  0.3377 -0.1557 -2.1083
   88CHL1   C23 8977   6.442   0.850   8.070  0.0885 -0.0277 -0.4022
   88CHL1  H23A 8978   6.531   0.884   8.013 -0.0152 -0.2728 -0.7128
   88CHL1  H23B 8979   6.353   0.908   8.036 -1.9272 -2.7696 -0.1271
   88CHL1   C24 8980   6.489   0.882   8.215  0.4741 -0.5446  0.1888
   88CHL1  H24A 8981   6.407   0.851   8.283 -0.9315 -2.6730 -2.2971
   88CHL1  H24B 8982   6.572   0.817   8.248  1.1281  0.9032  1.5192
   88CHL1   C25 8983   6.534   1.028   8.242  0.3157 -0.3802  0.7641
   88CHL1   H25 8984   6.465   1.093   8.184  2.6509  1.6126  0.0244
   88CHL1   C26 8985   6.529   1.070   8.386 -0.1528 -0.3426 -0.3002
   88CHL1  H26A 8986   6.593   1.009   8.453 -0.2718 -0.5005 -0.3293
   88CHL1  H26B 8987   6.563   1.174   8.405 -1.7729  0.4491 -1.4499
   88CHL1  H26C 8988   6.426   1.074   8.427  0.1078  0.7755  0.3003
   88CHL1   C27 8989   6.676   1.045   8.194 -0.2801 -0.5965  0.3520
   88CHL1  H27A 8990   6.685   1.039   8.083 -0.6149  0.8149  0.2277
   88CHL1  H27B 8991   6.714   1.146   8.217  1.7708 -1.2724  0.1438
   88CHL1  H27C 8992   6.747   0.982   8.252 -0.3543  0.0648  1.1766
   89CHL1    C3 8993   2.173   3.923   7.170  0.1964  0.4155  0.1063
   89CHL1    H3 8994   2.064   3.941   7.167  0.0968 -0.0391  0.8574
   89CHL1    O3 8995   2.205   3.852   7.050  0.0654 -0.4093  0.5507
   89CHL1   H3' 8996   2.164   3.903   6.979  1.1643  0.0795  0.2514
   89CHL1    C4 8997   2.252   4.052   7.178  0.3738 -0.7431 -0.4042
   89CHL1   H4A 8998   2.358   4.025   7.161 -0.2848 -2.7697 -1.6190
   89CHL1   H4B 8999   2.239   4.109   7.084  4.5970 -1.1805 -1.4449
   89CHL1    C5 9000   2.228   4.123   7.308  0.4699  0.3184 -0.0675
   89CHL1    C6 9001   2.184   4.246   7.313 -0.2663 -0.3292  0.0107
   89CHL1    H6 9002   2.168   4.300   7.219 -2.9128 -2.3699 -0.8548
   89CHL1    C7 9003   2.168   4.326   7.445  0.2774  0.4452 -0.3023
   89CHL1   H7A 9004   2.180   4.437   7.442  0.6603  0.5283  1.9597
   89CHL1   H7B 9005   2.060   4.321   7.474 -0.3353  1.4638 -2.2689
   89CHL1    C8 9006   2.256   4.266   7.565  0.4693 -0.4812 -0.4398
   89CHL1    H8 9007   2.363   4.289   7.546  1.4066 -0.7805  3.5054
   89CHL1   C14 9008   2.201   4.320   7.698 -0.6083  0.2785  0.4535
   89CHL1   H14 9009   2.094   4.290   7.695 -0.2548 -1.0447  0.1569
   89CHL1   C15 9010   2.196   4.475   7.723 -0.7035 -0.5213  0.5035
   89CHL1  H15A 9011   2.290   4.513   7.678 -0.8196  1.1889  1.6125
   89CHL1  H15B 9012   2.105   4.518   7.676 -1.2994 -0.1245  1.9558
   89CHL1   C16 9013   2.187   4.481   7.880 -0.7960 -0.6722  0.5908
   89CHL1  H16A 9014   2.265   4.551   7.919 -0.9527 -0.0358 -0.2075
   89CHL1  H16B 9015   2.084   4.516   7.902 -0.6445 -1.3159  2.6262
   89CHL1   C17 9016   2.209   4.336   7.939 -0.3502 -0.4035 -0.2984
   89CHL1   H17 9017   2.110   4.286   7.933  0.1594 -1.6620  1.1948
   89CHL1   C13 9018   2.279   4.262   7.821 -0.0165 -0.1115  0.1113
   89CHL1   C18 9019   2.426   4.290   7.828 -0.5755  0.2905  0.2908
   89CHL1  H18A 9020   2.469   4.243   7.919 -0.0208 -0.2830 -0.2665
   89CHL1  H18B 9021   2.479   4.251   7.739 -3.2693  0.2679 -1.3967
   89CHL1  H18C 9022   2.453   4.398   7.833 -1.4171  0.5672 -0.7515
   89CHL1   C12 9023   2.260   4.111   7.826  0.2096  0.3342 -0.1313
   89CHL1  H12A 9024   2.301   4.056   7.913 -0.9863  0.6130  0.6236
   89CHL1  H12B 9025   2.152   4.091   7.836 -0.1080  1.0979 -1.6885
   89CHL1   C11 9026   2.303   4.038   7.692  0.1561  0.0407  0.5815
   89CHL1  H11A 9027   2.414   4.049   7.694  0.4583 -2.3394  3.1304
   89CHL1  H11B 9028   2.272   3.931   7.684  1.1991 -0.1642 -1.7759
   89CHL1    C9 9029   2.242   4.112   7.568  0.7653  0.6528 -0.1913
   89CHL1    H9 9030   2.132   4.101   7.579  0.4370  2.0455 -1.5654
   89CHL1   C10 9031   2.273   4.041   7.434 -0.5604 -0.4109 -0.2398
   89CHL1   C19 9032   2.428   4.021   7.432  0.1443  0.0247 -0.4095
   89CHL1  H19A 9033   2.494   4.101   7.471  1.9301 -0.8984 -1.4013
   89CHL1  H19B 9034   2.460   3.933   7.493  0.4672  2.0208  2.5217
   89CHL1  H19C 9035   2.473   3.985   7.337 -0.5668  0.0016 -0.7413
   89CHL1    C1 9036   2.205   3.902   7.430  0.3886 -0.2628  0.9766
   89CHL1   H1A 9037   2.240   3.834   7.510  1.7801 -0.7171  0.0156
   89CHL1   H1B 9038   2.096   3.920   7.439  0.3803  0.9570 -1.0085
   89CHL1    C2 9039   2.205   3.828   7.294  0.3023 -0.9669  0.7248
   89CHL1   H2A 9040   2.133   3.745   7.285  1.0982 -1.6057  0.0347
   89CHL1   H2B 9041   2.303   3.780   7.276  0.3915 -0.3447 -0.5726
   89CHL1   C20 9042   2.250   4.325   8.082  0.1288  0.2078 -0.2866
   89CHL1   H20 9043   2.278   4.219   8.093 -2.2961 -0.7121 -2.0001
   89CHL1   C21 9044   2.128   4.344   8.172 -0.4493 -0.6185 -0.4457
   89CHL1  H21A 9045   2.161   4.343   8.278  0.3116  1.3700 -0.5989
   89CHL1  H21B 9046   2.054   4.263   8.156 -2.0505  0.8142 -0.5782
   89CHL1  H21C 9047   2.063   4.432   8.151 -0.2081 -0.5501 -0.9412
   89CHL1   C22 9048   2.365   4.421   8.121  0.2082  0.5697 -0.6550
   89CHL1  H22A 9049   2.447   4.421   8.046 -0.3706 -1.9513 -1.3847
   89CHL1  H22B 9050   2.336   4.524   8.148  1.3783  0.4700  1.1666
   89CHL1   C23 9051   2.436   4.378   8.255  1.0370  0.3151  0.1463
   89CHL1  H23A 9052   2.510   4.460   8.252  0.4599  0.8228 -1.5892
   89CHL1  H23B 9053   2.380   4.405   8.347 -2.6934 -1.1294 -1.5017
   89CHL1   C24 9054   2.512   4.244   8.276 -0.0660  0.1686  0.0038
   89CHL1  H24A 9055   2.449   4.155   8.255  1.6532 -0.4871 -3.0420
   89CHL1  H24B 9056   2.593   4.230   8.201  1.0751 -1.5982  1.4725
   89CHL1   C25 9057   2.575   4.230   8.422  0.3459 -0.0324 -1.0260
   89CHL1   H25 9058   2.631   4.324   8.441 -0.1519 -0.0238  0.4747
   89CHL1   C26 9059   2.469   4.219   8.543  0.2941 -0.0172  0.4792
   89CHL1  H26A 9060   2.429   4.321   8.563  0.0997 -0.6282  3.7536
   89CHL1  H26B 9061   2.382   4.157   8.515  0.7016  0.2173 -1.4150
   89CHL1  H26C 9062   2.518   4.179   8.635  0.5327 -0.8557 -0.0062
   89CHL1   C27 9063   2.667   4.106   8.425 -0.6475  0.2750  0.4007
   89CHL1  H27A 9064   2.753   4.122   8.357 -1.7420  0.6639 -0.9314
   89CHL1  H27B 9065   2.703   4.087   8.529 -2.0818 -1.3867  0.6563
   89CHL1  H27C 9066   2.605   4.023   8.385 -1.4690  0.7510  0.6719
   90CHL1    C3 9067   3.162   3.842   6.923  0.6401  0.1688  0.2606
   90CHL1    H3 9068   3.083   3.772   6.888  1.6672  0.0918 -2.1054
   90CHL1    O3 9069   3.245   3.841   6.807  0.1543 -0.3669  0.1576
   90CHL1   H3' 9070   3.322   3.896   6.823 -2.6022  5.1002 -2.6285
   90CHL1    C4 9071   3.096   3.981   6.959  0.0628  0.2398  0.3711
   90CHL1   H4A 9072   3.174   4.059   6.950  0.5982 -0.4972 -2.5451
   90CHL1   H4B 9073   3.014   3.996   6.885  2.6201  2.4909 -2.2538
   90CHL1    C5 9074   3.032   3.980   7.094 -0.0459  0.2813 -0.8487
   90CHL1    C6 9075   2.906   4.032   7.118 -0.6066 -0.0195  0.3537
   90CHL1    H6 9076   2.862   4.072   7.026  1.1457  0.7915 -0.1715
   90CHL1    C7 9077   2.840   4.057   7.253 -0.5922 -0.0349  0.0803
   90CHL1   H7A 9078   2.805   4.162   7.252 -1.0216 -0.1692  0.4359
   90CHL1   H7B 9079   2.757   3.984   7.267  0.0252 -1.3016 -2.2393
   90CHL1    C8 9080   2.939   4.024   7.362  0.9344 -0.8287  0.0192
   90CHL1    H8 9081   3.013   4.107   7.369  1.3103 -1.2810  1.9468
   90CHL1   C14 9082   2.870   4.019   7.494 -0.0654  0.4798 -0.4073
   90CHL1   H14 9083   2.805   3.930   7.485  0.1348  0.2227  0.5622
   90CHL1   C15 9084   2.786   4.147   7.547 -0.2587  0.4610 -0.1177
   90CHL1  H15A 9085   2.841   4.240   7.519  0.3058 -0.4244 -2.0941
   90CHL1  H15B 9086   2.690   4.162   7.494  0.0083  2.7000 -0.1023
   90CHL1   C16 9087   2.756   4.109   7.692 -0.1296  0.9347  0.3195
   90CHL1  H16A 9088   2.780   4.204   7.745  0.1083  1.5407 -0.8609
   90CHL1  H16B 9089   2.649   4.084   7.709  0.2569 -1.1939 -0.0836
   90CHL1   C17 9090   2.860   4.002   7.736  0.0009 -0.3423 -0.5174
   90CHL1   H17 9091   2.797   3.911   7.725 -1.5926  0.8242 -1.4598
   90CHL1   C13 9092   2.961   3.989   7.616  0.9079 -0.4740 -0.4215
   90CHL1   C18 9093   3.065   4.109   7.633 -0.0597  0.5383  0.4430
   90CHL1  H18A 9094   3.116   4.134   7.538  2.3813 -2.3173  0.8494
   90CHL1  H18B 9095   3.028   4.206   7.674  2.1005  1.6104  0.0428
   90CHL1  H18C 9096   3.138   4.076   7.711  1.0357  1.4506 -0.1604
   90CHL1   C12 9097   3.032   3.859   7.593  0.6295 -0.2643 -0.0563
   90CHL1  H12A 9098   3.106   3.821   7.667 -0.2727 -1.5068  0.2526
   90CHL1  H12B 9099   2.954   3.780   7.587  0.0823 -0.0616  2.8701
   90CHL1   C11 9100   3.113   3.852   7.459  0.4452 -0.3786 -0.0730
   90CHL1  H11A 9101   3.200   3.920   7.469 -0.2733  0.3144  1.8305
   90CHL1  H11B 9102   3.138   3.744   7.445  0.2446 -0.6940  1.6680
   90CHL1    C9 9103   3.023   3.898   7.337 -0.0909 -0.1389  0.2287
   90CHL1    H9 9104   2.945   3.822   7.315 -0.7301  0.6799 -0.3658
   90CHL1   C10 9105   3.110   3.906   7.210 -0.4141  0.1258  0.3998
   90CHL1   C19 9106   3.239   3.996   7.239 -0.2200 -0.5850 -0.0451
   90CHL1  H19A 9107   3.279   4.029   7.140 -1.3476 -0.2058 -0.3907
   90CHL1  H19B 9108   3.208   4.085   7.298  2.4482  0.0502  0.5419
   90CHL1  H19C 9109   3.319   3.941   7.293 -0.3386 -1.3622 -0.6442
   90CHL1    C1 9110   3.151   3.766   7.163 -0.1473  0.2658 -0.5134
   90CHL1   H1A 9111   3.223   3.723   7.237  0.6786 -0.7521 -1.8602
   90CHL1   H1B 9112   3.059   3.707   7.146 -1.2409  1.0258  2.1899
   90CHL1    C2 9113   3.233   3.769   7.034  1.1284 -0.1725 -0.8192
   90CHL1   H2A 9114   3.265   3.671   6.992  2.9586  0.7483 -1.7147
   90CHL1   H2B 9115   3.329   3.820   7.058 -0.2897  1.9532  0.7052
   90CHL1   C20 9116   2.891   4.018   7.884  0.3824 -0.6879  0.0734
   90CHL1   H20 9117   2.950   4.112   7.895 -2.7152  1.4009  0.0581
   90CHL1   C21 9118   2.970   3.888   7.919 -0.0234 -0.0784  0.3053
   90CHL1  H21A 9119   2.975   3.875   8.029  2.0325  1.7573  0.5109
   90CHL1  H21B 9120   3.076   3.886   7.886  0.0008 -1.3567  0.4161
   90CHL1  H21C 9121   2.923   3.799   7.873 -0.4569  0.5546 -0.5142
   90CHL1   C22 9122   2.766   4.038   7.977  0.2377  0.0568  0.7885
   90CHL1  H22A 9123   2.798   4.077   8.076  1.5597 -0.8491  0.7422
   90CHL1  H22B 9124   2.707   4.120   7.931 -0.9462  0.8113  3.4722
   90CHL1   C23 9125   2.685   3.917   8.000 -0.0811  0.3432  0.6953
   90CHL1  H23A 9126   2.637   3.881   7.906  0.7888 -0.0948  0.4084
   90CHL1  H23B 9127   2.751   3.837   8.040  0.1305  0.2137  0.1000
   90CHL1   C24 9128   2.573   3.935   8.097 -0.1371 -0.3055  0.1490
   90CHL1  H24A 9129   2.619   3.973   8.190 -1.0507  0.5670  0.2679
   90CHL1  H24B 9130   2.509   4.016   8.055 -0.8558 -1.2023 -0.5240
   90CHL1   C25 9131   2.492   3.813   8.131  0.6297  0.0627  0.2300
   90CHL1   H25 9132   2.559   3.736   8.175 -0.8715 -0.2335  2.1164
   90CHL1   C26 9133   2.381   3.842   8.234 -0.5052  0.0541 -0.4308
   90CHL1  H26A 9134   2.320   3.926   8.193 -1.6297 -0.2319  0.5960
   90CHL1  H26B 9135   2.313   3.755   8.241 -2.0303  1.3277  2.4394
   90CHL1  H26C 9136   2.423   3.861   8.335 -0.3103 -1.0522 -0.2980
   90CHL1   C27 9137   2.429   3.756   8.004  0.5612 -0.1283 -0.3691
   90CHL1  H27A 9138   2.499   3.688   7.952  1.9468  0.0012  1.2216
   90CHL1  H27B 9139   2.344   3.690   8.028 -0.2941  0.9710 -0.2654
   90CHL1  H27C 9140   2.394   3.833   7.932  0.8610 -1.6999 -2.2687
   91CHL1    C3 9141   3.748   6.058   6.991 -0.1840  0.1857  0.6495
   91CHL1    H3 9142   3.805   6.153   6.986 -1.1858  0.7985  0.5501
   91CHL1    O3 9143   3.703   6.022   6.858 -0.1646 -0.3113 -0.4844
   91CHL1   H3' 9144   3.626   5.970   6.881  0.7847 -1.5400  0.0871
   91CHL1    C4 9145   3.827   5.937   7.049 -0.2467 -0.7698  0.0516
   91CHL1   H4A 9146   3.775   5.840   7.034  1.0301 -1.3472 -0.7594
   91CHL1   H4B 9147   3.909   5.935   6.975 -1.3261  0.8705 -1.2781
   91CHL1    C5 9148   3.876   5.970   7.190 -0.7500  0.4612 -0.4935
   91CHL1    C6 9149   4.004   5.951   7.220  0.7061  0.6272  0.2570
   91CHL1    H6 9150   4.077   5.910   7.149  0.3263 -2.3850  1.4392
   91CHL1    C7 9151   4.063   5.960   7.361  0.4226 -0.0333  0.2194
   91CHL1   H7A 9152   4.129   5.874   7.385 -0.0530 -0.4541  0.0494
   91CHL1   H7B 9153   4.112   6.059   7.370  2.1426 -0.9691  1.9795
   91CHL1    C8 9154   3.944   5.970   7.466  0.0934  0.6574 -0.2703
   91CHL1    H8 9155   3.905   5.866   7.465  2.7791 -0.4280 -0.8929
   91CHL1   C14 9156   3.995   6.012   7.602  0.4417 -0.2133  0.0954
   91CHL1   H14 9157   4.029   6.116   7.586 -2.8118  1.1571  1.1704
   91CHL1   C15 9158   4.113   5.938   7.654 -0.6419  0.4396  0.3244
   91CHL1  H15A 9159   4.105   5.828   7.652 -0.4440  0.3368  2.4516
   91CHL1  H15B 9160   4.204   5.974   7.602 -0.3393  0.0526  0.5778
   91CHL1   C16 9161   4.113   5.986   7.799 -0.1507  0.0570 -0.0268
   91CHL1  H16A 9162   4.142   5.900   7.863  1.3473  1.6913  1.6596
   91CHL1  H16B 9163   4.190   6.066   7.805 -0.8950  0.8188 -0.3166
   91CHL1   C17 9164   3.984   6.063   7.829 -0.2669  0.0314  0.3704
   91CHL1   H17 9165   3.994   6.173   7.826 -0.0755  0.0124  0.2905
   91CHL1   C13 9166   3.890   6.020   7.711  0.1049  0.5131 -0.0901
   91CHL1   C18 9167   3.832   5.875   7.738 -0.1474 -0.1121  0.1439
   91CHL1  H18A 9168   3.805   5.827   7.641 -0.7275 -1.6555  1.0249
   91CHL1  H18B 9169   3.912   5.818   7.791 -0.0586  1.2810  1.5736
   91CHL1  H18C 9170   3.739   5.875   7.800 -1.0449 -2.3199 -1.0563
   91CHL1   C12 9171   3.787   6.123   7.661 -0.8141 -0.2544 -0.2859
   91CHL1  H12A 9172   3.699   6.131   7.728 -1.8295 -2.2053 -1.2898
   91CHL1  H12B 9173   3.840   6.218   7.639  2.1234 -1.5324  0.7075
   91CHL1   C11 9174   3.728   6.087   7.529 -0.4844 -0.5233 -0.1235
   91CHL1  H11A 9175   3.658   6.005   7.558 -2.9219  1.5083  0.0969
   91CHL1  H11B 9176   3.653   6.162   7.496  0.9088  0.7492 -0.5058
   91CHL1    C9 9177   3.830   6.058   7.414  0.6413  0.0416  0.1373
   91CHL1    H9 9178   3.871   6.159   7.393 -1.2394  0.3706 -2.6315
   91CHL1   C10 9179   3.768   6.015   7.282  0.5506 -0.1078  0.1390
   91CHL1   C19 9180   3.680   5.890   7.300 -0.0968 -0.5039  0.0194
   91CHL1  H19A 9181   3.645   5.840   7.207 -0.0815  0.2401 -0.3937
   91CHL1  H19B 9182   3.731   5.811   7.359 -1.0928 -0.7326  0.6087
   91CHL1  H19C 9183   3.587   5.910   7.359 -0.9880  0.3213 -1.6036
   91CHL1    C1 9184   3.690   6.133   7.228 -0.3580  0.6540  1.3308
   91CHL1   H1A 9185   3.607   6.154   7.299 -0.2787  3.1647  0.7615
   91CHL1   H1B 9186   3.751   6.223   7.211  0.7467 -0.4493 -0.9202
   91CHL1    C2 9187   3.634   6.095   7.085 -0.0283  0.0053 -0.6965
   91CHL1   H2A 9188   3.578   6.179   7.037  0.9417  1.6862  0.9704
   91CHL1   H2B 9189   3.565   6.010   7.103  1.1604 -1.2378 -1.7610
   91CHL1   C20 9190   3.935   6.027   7.972 -0.3598  0.3300  0.0491
   91CHL1   H20 9191   3.908   5.920   7.985  0.0380  0.5281  3.0250
   91CHL1   C21 9192   3.799   6.094   7.995  0.5658  0.2377 -0.0032
   91CHL1  H21A 9193   3.716   6.047   7.938 -0.2881 -0.5105  1.7532
   91CHL1  H21B 9194   3.802   6.200   7.962  0.4280  0.2706  0.0860
   91CHL1  H21C 9195   3.769   6.108   8.101  1.1843 -2.8097  0.6646
   91CHL1   C22 9196   4.041   6.059   8.081 -0.1133 -0.3405  0.4750
   91CHL1  H22A 9197   3.993   6.026   8.176 -1.4135  1.3906  0.4876
   91CHL1  H22B 9198   4.128   5.992   8.065 -2.0013 -2.1159 -4.2636
   91CHL1   C23 9199   4.097   6.204   8.093 -0.2586 -0.4085 -0.1483
   91CHL1  H23A 9200   4.155   6.240   8.005  0.4412 -0.1736  0.4063
   91CHL1  H23B 9201   4.001   6.259   8.099 -0.6083 -0.2597 -4.2614
   91CHL1   C24 9202   4.173   6.218   8.228  0.3709 -0.2437 -0.1612
   91CHL1  H24A 9203   4.113   6.174   8.310  0.6841 -1.9208 -0.7824
   91CHL1  H24B 9204   4.261   6.151   8.218  0.1742 -0.4161 -0.7959
   91CHL1   C25 9205   4.230   6.360   8.251  0.3292 -0.2550  0.2560
   91CHL1   H25 9206   4.294   6.378   8.162 -0.7185  0.9898 -0.2893
   91CHL1   C26 9207   4.121   6.467   8.261  1.3352  0.0393  0.2092
   91CHL1  H26A 9208   4.175   6.560   8.292  2.3739 -0.5214  0.1218
   91CHL1  H26B 9209   4.072   6.483   8.162  0.1410 -1.7522  0.4852
   91CHL1  H26C 9210   4.044   6.435   8.333 -0.0754  1.5454 -0.5498
   91CHL1   C27 9211   4.313   6.363   8.377  0.4399  0.3034 -0.0698
   91CHL1  H27A 9212   4.362   6.458   8.406 -1.8263  1.6122 -0.3433
   91CHL1  H27B 9213   4.237   6.354   8.457  0.0839 -0.6979 -0.4992
   91CHL1  H27C 9214   4.392   6.285   8.390  2.4290  2.3745  1.0779
   92CHL1    C3 9215   6.521   1.075   6.676  0.2194 -0.7198  0.1852
   92CHL1    H3 9216   6.451   0.991   6.700 -0.5563 -1.0958 -2.9231
   92CHL1    O3 9217   6.548   1.070   6.534 -0.4893  0.2509 -0.1319
   92CHL1   H3' 9218   6.466   1.086   6.485  0.0559 -1.4549 -1.7276
   92CHL1    C4 9219   6.447   1.208   6.705  0.0155 -0.2121  0.2571
   92CHL1   H4A 9220   6.508   1.296   6.676 -2.5926  0.8845 -2.3252
   92CHL1   H4B 9221   6.366   1.216   6.630 -0.0028  2.1022  0.4737
   92CHL1    C5 9222   6.391   1.220   6.849 -0.5741  0.2466  0.4738
   92CHL1    C6 9223   6.260   1.226   6.881 -0.4751 -0.4565  0.1312
   92CHL1    H6 9224   6.179   1.234   6.807  1.5358 -1.8734 -2.3588
   92CHL1    C7 9225   6.215   1.235   7.023  0.2280  0.7620  0.2544
   92CHL1   H7A 9226   6.136   1.306   7.056  0.0735 -0.1376  1.9070
   92CHL1   H7B 9227   6.168   1.138   7.048 -0.5032  1.7604  3.0990
   92CHL1    C8 9228   6.329   1.258   7.123 -0.0124 -0.2435  0.2230
   92CHL1    H8 9229   6.360   1.364   7.112  1.3081 -0.7846 -1.6233
   92CHL1   C14 9230   6.278   1.235   7.267  0.6956  0.0967  0.7079
   92CHL1   H14 9231   6.248   1.129   7.279 -0.4649  0.2527 -0.5331
   92CHL1   C15 9232   6.157   1.317   7.314 -0.8393  0.1605  0.1652
   92CHL1  H15A 9233   6.159   1.426   7.290 -1.3926  0.3524  0.9435
   92CHL1  H15B 9234   6.059   1.281   7.277 -0.9388 -1.1726  1.6140
   92CHL1   C16 9235   6.163   1.309   7.468  0.1720  0.5394  0.6911
   92CHL1  H16A 9236   6.160   1.410   7.514  2.1714 -0.5627  3.4574
   92CHL1  H16B 9237   6.077   1.255   7.513  1.2094 -1.7202  0.0829
   92CHL1   C17 9238   6.290   1.241   7.504 -0.4813 -0.0093  0.5561
   92CHL1   H17 9239   6.262   1.134   7.516 -0.6066 -0.0065  0.2915
   92CHL1   C13 9240   6.382   1.252   7.378  0.2860 -0.6346  0.1737
   92CHL1   C18 9241   6.454   1.387   7.364 -0.0473 -0.9400  0.5316
   92CHL1  H18A 9242   6.504   1.420   7.270  2.1372  2.6775  2.7041
   92CHL1  H18B 9243   6.396   1.480   7.382  1.6242  0.1197  0.6748
   92CHL1  H18C 9244   6.527   1.398   7.448 -1.0653  0.0770  1.3127
   92CHL1   C12 9245   6.481   1.139   7.350  0.4078  0.5566  0.7244
   92CHL1  H12A 9246   6.570   1.120   7.414  0.6163 -0.2649  0.2088
   92CHL1  H12B 9247   6.424   1.044   7.364  1.5849 -0.1182  1.1503
   92CHL1   C11 9248   6.547   1.152   7.209 -0.0342 -0.0821 -0.3494
   92CHL1  H11A 9249   6.616   1.239   7.204  1.4402 -1.2651 -1.6055
   92CHL1  H11B 9250   6.620   1.070   7.195  1.9932  1.7493 -1.0788
   92CHL1    C9 9251   6.448   1.164   7.093  0.2134  0.4731  0.0289
   92CHL1    H9 9252   6.391   1.069   7.101 -0.3977  0.9380  1.5431
   92CHL1   C10 9253   6.506   1.196   6.955 -0.2895  0.8926 -0.1662
   92CHL1   C19 9254   6.608   1.312   6.966 -0.2545 -0.4959  0.2674
   92CHL1  H19A 9255   6.708   1.273   6.997 -0.5369 -0.9226  0.6607
   92CHL1  H19B 9256   6.616   1.377   6.877 -0.2915  2.2335  2.1506
   92CHL1  H19C 9257   6.578   1.389   7.040  0.4578 -1.1245  1.2349
   92CHL1    C1 9258   6.588   1.063   6.913 -0.1354  0.7035 -0.8999
   92CHL1   H1A 9259   6.669   1.058   6.988 -1.3901  2.4892  0.6907
   92CHL1   H1B 9260   6.539   0.965   6.927  2.7309 -0.6298  0.5623
   92CHL1    C2 9261   6.644   1.066   6.764 -0.1383 -0.0415 -0.0552
   92CHL1   H2A 9262   6.692   0.967   6.748  0.8150  0.4155 -0.0941
   92CHL1   H2B 9263   6.722   1.144   6.749 -0.9269  1.9656  4.5983
   92CHL1   C20 9264   6.352   1.292   7.636  0.1210  0.0946 -0.6665
   92CHL1   H20 9265   6.382   1.399   7.636 -1.6134  0.6717  1.3735
   92CHL1   C21 9266   6.482   1.210   7.665  0.1532 -0.3789 -0.2415
   92CHL1  H21A 9267   6.561   1.238   7.592  0.1935  2.2897  0.7266
   92CHL1  H21B 9268   6.460   1.102   7.681  0.4504 -0.1997  1.6251
   92CHL1  H21C 9269   6.534   1.239   7.759 -1.7549 -0.1775  0.7978
   92CHL1   C22 9270   6.258   1.274   7.759 -0.0565 -0.2062 -0.2150
   92CHL1  H22A 9271   6.181   1.354   7.759 -0.4865 -0.6046 -0.9750
   92CHL1  H22B 9272   6.197   1.183   7.743 -2.2214  1.4478 -2.0564
   92CHL1   C23 9273   6.319   1.273   7.900  0.4082  0.1885 -1.1325
   92CHL1  H23A 9274   6.236   1.250   7.969  1.4812 -2.2916 -0.5360
   92CHL1  H23B 9275   6.397   1.199   7.930  0.7186  1.4574  1.4700
   92CHL1   C24 9276   6.385   1.414   7.932 -0.2820 -0.3198  0.7699
   92CHL1  H24A 9277   6.451   1.449   7.851 -0.9424 -0.7731  0.0212
   92CHL1  H24B 9278   6.299   1.483   7.941 -0.7592 -0.9658  1.2716
   92CHL1   C25 9279   6.471   1.417   8.062  0.6996  0.1652 -0.0734
   92CHL1   H25 9280   6.539   1.329   8.058 -0.1072 -0.6845  2.8732
   92CHL1   C26 9281   6.564   1.539   8.068 -0.6441 -0.5161 -0.0858
   92CHL1  H26A 9282   6.501   1.630   8.079 -1.1803 -0.7608 -1.0544
   92CHL1  H26B 9283   6.629   1.530   8.157  0.6367 -1.4994 -1.0831
   92CHL1  H26C 9284   6.626   1.545   7.976  0.6901  1.0579  0.8536
   92CHL1   C27 9285   6.380   1.408   8.181 -0.4702  0.1164  0.3391
   92CHL1  H27A 9286   6.327   1.505   8.192 -1.8609 -0.7794  1.9617
   92CHL1  H27B 9287   6.310   1.322   8.180  0.7871 -0.9756  2.1675
   92CHL1  H27C 9288   6.439   1.392   8.273 -0.1478  0.3897  0.1838
   93CHL1    C3 9289   5.615   6.271   6.911 -0.6036 -0.4300 -0.2556
   93CHL1    H3 9290   5.511   6.231   6.903 -0.4591 -0.8838  0.0809
   93CHL1    O3 9291   5.658   6.300   6.780  0.4215 -0.0832 -0.1047
   93CHL1   H3' 9292   5.666   6.213   6.740  0.2559  0.5576 -1.6114
   93CHL1    C4 9293   5.611   6.399   6.997  0.0982  0.9381 -0.6095
   93CHL1   H4A 9294   5.704   6.458   6.982  0.9611 -0.2579 -0.0913
   93CHL1   H4B 9295   5.538   6.470   6.952  1.5912  1.4420 -2.3737
   93CHL1    C5 9296   5.587   6.362   7.145 -0.6782 -0.3414  0.0024
   93CHL1    C6 9297   5.492   6.413   7.223  0.7393  0.3490  0.1586
   93CHL1    H6 9298   5.417   6.482   7.182  0.0624 -0.5438 -0.1638
   93CHL1    C7 9299   5.480   6.374   7.367  0.6400  0.3290  0.6319
   93CHL1   H7A 9300   5.437   6.464   7.417 -0.7562  1.2400 -2.0447
   93CHL1   H7B 9301   5.405   6.292   7.371 -0.4004  1.2860  1.8559
   93CHL1    C8 9302   5.606   6.322   7.442 -0.3718 -0.0248 -0.3745
   93CHL1    H8 9303   5.682   6.402   7.451  0.9663 -1.5006  3.2734
   93CHL1   C14 9304   5.557   6.263   7.579 -0.7629 -0.8182  0.9809
   93CHL1   H14 9305   5.482   6.185   7.556 -0.6277 -0.5689 -0.4173
   93CHL1   C15 9306   5.484   6.351   7.675  0.5657 -0.2994 -0.6433
   93CHL1  H15A 9307   5.531   6.450   7.690 -0.2682 -0.2603  2.1142
   93CHL1  H15B 9308   5.375   6.353   7.656 -0.1909 -0.6908  3.0059
   93CHL1   C16 9309   5.505   6.285   7.815 -0.0292  0.0695  0.6223
   93CHL1  H16A 9310   5.560   6.359   7.877  2.1822  0.1579 -1.2870
   93CHL1  H16B 9311   5.404   6.261   7.855  0.4724 -1.0664  1.2475
   93CHL1   C17 9312   5.603   6.164   7.784  0.4180 -1.1280  0.3554
   93CHL1   H17 9313   5.530   6.083   7.759 -0.8795  0.1982 -0.3135
   93CHL1   C13 9314   5.675   6.195   7.650 -0.1268 -0.3994 -0.4233
   93CHL1   C18 9315   5.797   6.281   7.674 -0.0472  0.3495  0.0319
   93CHL1  H18A 9316   5.858   6.304   7.585 -0.3737 -1.8749 -0.8328
   93CHL1  H18B 9317   5.769   6.377   7.723 -1.0201 -0.5021  1.2216
   93CHL1  H18C 9318   5.863   6.216   7.735  1.5116  0.5225 -1.4259
   93CHL1   C12 9319   5.718   6.078   7.566  0.1225  0.5639  0.3042
   93CHL1  H12A 9320   5.797   6.012   7.608  1.0016  1.2239 -0.2737
   93CHL1  H12B 9321   5.633   6.008   7.544  2.2627 -2.6704  1.5292
   93CHL1   C11 9322   5.764   6.118   7.422 -0.1713 -0.0004  0.6682
   93CHL1  H11A 9323   5.865   6.165   7.427 -0.0161 -0.2613  0.0709
   93CHL1  H11B 9324   5.770   6.028   7.358 -1.2166  0.3632  0.0342
   93CHL1    C9 9325   5.664   6.213   7.349  0.0968  0.5154 -0.0140
   93CHL1    H9 9326   5.577   6.145   7.332  0.3631 -0.1059  1.0386
   93CHL1   C10 9327   5.697   6.267   7.205  0.9380 -0.2540  0.4319
   93CHL1   C19 9328   5.836   6.331   7.207 -0.3729 -0.2548  0.0843
   93CHL1  H19A 9329   5.865   6.370   7.107 -1.2175  0.5853  0.1544
   93CHL1  H19B 9330   5.830   6.425   7.266  0.7849 -0.9283  1.3193
   93CHL1  H19C 9331   5.921   6.272   7.246 -0.9530 -0.7207  0.6594
   93CHL1    C1 9332   5.691   6.138   7.121  0.2353 -0.7517 -0.6792
   93CHL1   H1A 9333   5.771   6.072   7.162 -0.8107  0.0151  3.0046
   93CHL1   H1B 9334   5.591   6.090   7.115  0.2499 -1.3399  2.3068
   93CHL1    C2 9335   5.711   6.160   6.968  0.2718  0.7305 -0.4030
   93CHL1   H2A 9336   5.721   6.069   6.905  0.4184  0.0833  0.5334
   93CHL1   H2B 9337   5.812   6.206   6.969 -0.3099  2.0426  0.2261
   93CHL1   C20 9338   5.681   6.122   7.910 -1.0950 -0.4621  0.7810
   93CHL1   H20 9339   5.759   6.199   7.932 -1.4235 -0.1258  0.7792
   93CHL1   C21 9340   5.753   5.986   7.883 -0.2677 -0.5978  0.2545
   93CHL1  H21A 9341   5.831   5.987   7.803  1.0432 -3.2607  1.4007
   93CHL1  H21B 9342   5.673   5.914   7.857  0.3280 -1.3681  0.5231
   93CHL1  H21C 9343   5.804   5.947   7.973  0.4251 -0.2470  0.0206
   93CHL1   C22 9344   5.601   6.123   8.039  0.1870 -0.8623 -0.2899
   93CHL1  H22A 9345   5.568   6.229   8.049 -1.6866 -1.6187  2.4653
   93CHL1  H22B 9346   5.512   6.057   8.033  0.8766 -1.9132  0.7006
   93CHL1   C23 9347   5.674   6.092   8.175  0.4600 -0.3782  0.6335
   93CHL1  H23A 9348   5.708   5.986   8.184 -2.1643 -1.7163 -3.0351
   93CHL1  H23B 9349   5.772   6.144   8.179  1.3975 -2.0830  1.0687
   93CHL1   C24 9350   5.598   6.136   8.298  0.0605  0.0251 -0.0585
   93CHL1  H24A 9351   5.576   6.244   8.283 -0.3119 -0.3879 -3.3057
   93CHL1  H24B 9352   5.507   6.072   8.304  0.5258 -0.6602 -0.3294
   93CHL1   C25 9353   5.665   6.117   8.436  0.6878  0.6970 -0.0936
   93CHL1   H25 9354   5.685   6.008   8.437  2.0662  0.9198  0.9426
   93CHL1   C26 9355   5.801   6.196   8.459 -0.3105 -0.2365 -0.3481
   93CHL1  H26A 9356   5.837   6.191   8.564  0.6375 -2.9125 -0.7185
   93CHL1  H26B 9357   5.877   6.141   8.399 -0.7910 -1.8752  0.4849
   93CHL1  H26C 9358   5.805   6.301   8.425 -1.1620  0.1209  0.6214
   93CHL1   C27 9359   5.562   6.152   8.546 -0.6241 -0.0120  0.5956
   93CHL1  H27A 9360   5.566   6.101   8.645 -0.7106 -1.6565 -0.2108
   93CHL1  H27B 9361   5.569   6.262   8.560 -1.1049  0.1906 -0.7224
   93CHL1  H27C 9362   5.465   6.124   8.500  0.4295 -1.4453 -0.8427
   94CHL1    C3 9363   6.417   0.313   6.824 -0.1549 -0.2795  0.6180
   94CHL1    H3 9364   6.508   0.358   6.868 -1.6301  0.3025  3.3284
   94CHL1    O3 9365   6.449   0.289   6.690  0.1721 -0.2624 -0.1188
   94CHL1   H3' 9366   6.433   0.196   6.677 -1.4580 -0.0710  0.3384
   94CHL1    C4 9367   6.390   0.184   6.894  0.0058 -0.0397  0.5004
   94CHL1   H4A 9368   6.313   0.134   6.830 -0.5281  0.5187  0.6994
   94CHL1   H4B 9369   6.472   0.109   6.895 -0.2799 -0.3609  0.2147
   94CHL1    C5 9370   6.346   0.199   7.037 -0.2156 -0.5028  1.2552
   94CHL1    C6 9371   6.423   0.151   7.134 -0.6495  0.5254  0.5083
   94CHL1    H6 9372   6.515   0.098   7.109 -1.5215 -0.1392 -1.4741
   94CHL1    C7 9373   6.385   0.156   7.273  0.2748  1.0378  0.4771
   94CHL1   H7A 9374   6.380   0.050   7.306 -2.1928  0.4507 -1.5019
   94CHL1   H7B 9375   6.449   0.226   7.330  0.4455  1.1758  0.1135
   94CHL1    C8 9376   6.236   0.203   7.296  0.0357 -0.5735 -0.5106
   94CHL1    H8 9377   6.169   0.117   7.271  2.2555 -3.0031  1.2539
   94CHL1   C14 9378   6.219   0.248   7.442 -0.2713  0.0342  0.4433
   94CHL1   H14 9379   6.280   0.340   7.456  0.7996 -0.4183 -0.9403
   94CHL1   C15 9380   6.257   0.149   7.555 -0.5350 -1.0044 -0.1818
   94CHL1  H15A 9381   6.197   0.058   7.534 -0.6911 -0.9291 -0.0561
   94CHL1  H15B 9382   6.366   0.126   7.550  0.0540  1.3097  0.8175
   94CHL1   C16 9383   6.180   0.213   7.683 -0.1508  0.3568  0.7441
   94CHL1  H16A 9384   6.098   0.146   7.717 -0.8130  1.0338  0.4979
   94CHL1  H16B 9385   6.257   0.224   7.762 -0.7956 -3.1219  2.0597
   94CHL1   C17 9386   6.109   0.341   7.637 -0.0011 -0.2562 -0.5974
   94CHL1   H17 9387   6.178   0.428   7.639  0.6103 -0.7111 -1.3356
   94CHL1   C13 9388   6.081   0.311   7.488 -0.3543 -0.0455  0.4004
   94CHL1   C18 9389   5.967   0.203   7.477  0.2066 -0.2452 -0.1245
   94CHL1  H18A 9390   5.872   0.259   7.467  0.2354 -0.1385  0.1799
   94CHL1  H18B 9391   5.992   0.134   7.394  0.4474  2.6503 -2.5967
   94CHL1  H18C 9392   5.964   0.137   7.567  0.4638 -1.3310 -0.8851
   94CHL1   C12 9393   6.046   0.428   7.394 -0.4010 -0.1705  0.1368
   94CHL1  H12A 9394   5.946   0.469   7.419 -0.1805 -0.7104  2.0475
   94CHL1  H12B 9395   6.122   0.506   7.418 -1.3347  1.3863 -1.7128
   94CHL1   C11 9396   6.063   0.386   7.251 -0.3750  0.4269 -0.4783
   94CHL1  H11A 9397   5.989   0.305   7.235 -1.0219  1.2610 -1.8513
   94CHL1  H11B 9398   6.031   0.468   7.183 -2.1811  0.0817 -0.0975
   94CHL1    C9 9399   6.199   0.324   7.208 -0.1951  0.2737 -0.7994
   94CHL1    H9 9400   6.273   0.400   7.240  1.4922 -1.0037 -1.4889
   94CHL1   C10 9401   6.222   0.292   7.057  0.2690  0.4979 -0.4814
   94CHL1   C19 9402   6.103   0.214   6.995  0.1689  0.0545  0.4711
   94CHL1  H19A 9403   6.086   0.121   7.054 -0.1100  0.0876  0.4458
   94CHL1  H19B 9404   6.009   0.273   6.995  0.1071 -0.0382 -0.6202
   94CHL1  H19C 9405   6.115   0.183   6.889 -4.1610  1.0108 -0.5073
   94CHL1    C1 9406   6.252   0.425   6.987  1.0117 -0.3129  0.0236
   94CHL1   H1A 9407   6.155   0.478   6.986  0.0433 -2.0017  0.1715
   94CHL1   H1B 9408   6.313   0.493   7.050  1.9059 -2.3445  1.4895
   94CHL1    C2 9409   6.304   0.420   6.845  0.2952  0.2066  0.3538
   94CHL1   H2A 9410   6.340   0.521   6.814  0.9264 -0.1915 -0.2737
   94CHL1   H2B 9411   6.218   0.373   6.793 -0.0436 -0.9899  1.9422
   94CHL1   C20 9412   5.984   0.378   7.723  0.6577  0.1395  0.7022
   94CHL1   H20 9413   5.896   0.311   7.707  1.0367 -0.1329 -0.3636
   94CHL1   C21 9414   5.932   0.520   7.679 -0.5555  0.2556  0.1800
   94CHL1  H21A 9415   6.024   0.576   7.651 -0.7983  0.5958  0.0464
   94CHL1  H21B 9416   5.877   0.573   7.760 -1.0946 -1.1412  0.7511
   94CHL1  H21C 9417   5.863   0.517   7.592 -1.2943 -0.6235  0.7806
   94CHL1   C22 9418   6.012   0.380   7.870 -0.3500 -0.7831  0.0016
   94CHL1  H22A 9419   6.044   0.276   7.889  0.6702 -0.5633 -0.4923
   94CHL1  H22B 9420   6.097   0.450   7.884 -1.1324 -0.3201  3.1363
   94CHL1   C23 9421   5.885   0.404   7.959  0.1030 -0.0502  0.0250
   94CHL1  H23A 9422   5.862   0.513   7.956  0.9836  0.1560  0.5972
   94CHL1  H23B 9423   5.800   0.345   7.917 -0.5435  0.3103  0.8078
   94CHL1   C24 9424   5.920   0.372   8.103  0.4456  0.0437  0.1787
   94CHL1  H24A 9425   5.827   0.378   8.165  0.7758 -2.5685  1.0581
   94CHL1  H24B 9426   5.954   0.268   8.118 -2.4527 -0.8876  0.9376
   94CHL1   C25 9427   6.033   0.450   8.168  0.0949 -0.4353 -0.3315
   94CHL1   H25 9428   6.127   0.435   8.110  0.8308  4.2744 -0.8140
   94CHL1   C26 9429   6.014   0.603   8.156 -0.2443  0.2191 -0.4482
   94CHL1  H26A 9430   5.912   0.631   8.189  0.4976  0.0170  2.3280
   94CHL1  H26B 9431   6.094   0.653   8.215 -0.1131 -0.7420  0.2179
   94CHL1  H26C 9432   6.041   0.634   8.053  0.0746  1.6894  0.0448
   94CHL1   C27 9433   6.065   0.400   8.311  0.2736  0.4336  0.3529
   94CHL1  H27A 9434   6.140   0.468   8.356  0.0386  2.0447 -1.5680
   94CHL1  H27B 9435   5.974   0.406   8.374 -0.4666 -2.5596 -0.2394
   94CHL1  H27C 9436   6.099   0.294   8.315 -1.6140 -0.1997  0.5971
   95CHL1    C3 9437   0.649   5.718   6.536  0.0925 -0.3716 -0.4919
   95CHL1    H3 9438   0.610   5.617   6.562  0.5052  0.2322  2.8948
   95CHL1    O3 9439   0.684   5.715   6.400  0.0530  0.1374 -0.0676
   95CHL1   H3' 9440   0.767   5.667   6.411  1.4244  2.5569  1.1045
   95CHL1    C4 9441   0.542   5.831   6.558 -0.3210 -0.1479  0.3086
   95CHL1   H4A 9442   0.582   5.927   6.519  4.0988 -2.4232 -1.4836
   95CHL1   H4B 9443   0.456   5.814   6.490 -0.5003  0.2776  0.4277
   95CHL1    C5 9444   0.500   5.834   6.705  0.1893 -0.5757  0.7146
   95CHL1    C6 9445   0.375   5.810   6.730  1.1995 -0.2177  0.4951
   95CHL1    H6 9446   0.309   5.788   6.645  2.7693 -0.3125 -0.7494
   95CHL1    C7 9447   0.323   5.824   6.870 -0.0918  0.6741 -0.3734
   95CHL1   H7A 9448   0.232   5.887   6.876 -0.2224  0.3668  1.6320
   95CHL1   H7B 9449   0.296   5.720   6.898  1.4387 -0.2812 -2.2182
   95CHL1    C8 9450   0.423   5.892   6.964 -0.2633 -0.4305 -0.7735
   95CHL1    H8 9451   0.423   6.000   6.938  0.5752 -0.4339 -0.8269
   95CHL1   C14 9452   0.377   5.870   7.104 -0.4530 -0.1618 -0.7573
   95CHL1   H14 9453   0.373   5.759   7.109  0.5707 -0.3322 -2.8135
   95CHL1   C15 9454   0.232   5.915   7.137 -0.2140 -0.3444  0.4701
   95CHL1  H15A 9455   0.219   6.022   7.110 -0.8942 -0.3101  0.9121
   95CHL1  H15B 9456   0.163   5.853   7.075  1.5795 -0.6077 -1.3595
   95CHL1   C16 9457   0.231   5.899   7.283 -0.1245  0.0827 -0.7988
   95CHL1  H16A 9458   0.169   5.979   7.328  0.4821  0.8961 -1.3852
   95CHL1  H16B 9459   0.181   5.802   7.304  1.2010 -0.4839 -0.1795
   95CHL1   C17 9460   0.376   5.878   7.337 -0.7736 -0.6259 -0.0568
   95CHL1   H17 9461   0.396   5.770   7.349 -0.1957 -0.2770  2.9361
   95CHL1   C13 9462   0.465   5.924   7.220 -0.0551 -0.4748 -0.4545
   95CHL1   C18 9463   0.466   6.077   7.228  0.6038 -1.2425  0.6566
   95CHL1  H18A 9464   0.373   6.133   7.252  0.4619 -0.4008 -1.6365
   95CHL1  H18B 9465   0.550   6.108   7.294 -0.2501  1.9319  0.4048
   95CHL1  H18C 9466   0.486   6.115   7.126 -3.3266 -1.9448 -0.5452
   95CHL1   C12 9467   0.610   5.874   7.205 -0.8955 -0.2840 -0.1332
   95CHL1  H12A 9468   0.675   5.923   7.281 -0.2972 -0.8853 -0.2460
   95CHL1  H12B 9469   0.621   5.765   7.227  2.7595 -0.1487 -0.7326
   95CHL1   C11 9470   0.663   5.899   7.057  0.1797 -0.2122  0.3522
   95CHL1  H11A 9471   0.682   6.005   7.030 -0.0676 -0.5998 -1.5035
   95CHL1  H11B 9472   0.759   5.849   7.033  1.4053  1.9557  0.5228
   95CHL1    C9 9473   0.569   5.844   6.948  0.5067  0.2598 -0.4009
   95CHL1    H9 9474   0.566   5.734   6.965  1.6041  0.4120  0.9208
   95CHL1   C10 9475   0.615   5.864   6.805  0.1504  0.8035  0.8967
   95CHL1   C19 9476   0.666   6.004   6.776 -0.3682 -0.3501 -0.1842
   95CHL1  H19A 9477   0.678   6.025   6.668  0.1427 -0.5666 -0.1727
   95CHL1  H19B 9478   0.592   6.082   6.806 -2.0749 -1.7758 -0.5346
   95CHL1  H19C 9479   0.762   6.022   6.829 -0.2320  2.1863 -1.1491
   95CHL1    C1 9480   0.726   5.762   6.776  0.5033  0.6517 -0.5990
   95CHL1   H1A 9481   0.809   5.808   6.834 -1.1855 -0.2977  2.8397
   95CHL1   H1B 9482   0.708   5.666   6.829  1.7182  0.8306  0.1988
   95CHL1    C2 9483   0.764   5.745   6.630  0.1431 -0.0312 -0.1792
   95CHL1   H2A 9484   0.843   5.668   6.631  0.2273  0.0267 -1.3716
   95CHL1   H2B 9485   0.815   5.831   6.582 -0.2702 -0.2805 -1.0721
   95CHL1   C20 9486   0.400   5.934   7.479 -0.8086  0.6272 -0.3086
   95CHL1   H20 9487   0.376   6.042   7.489 -1.2172  0.6312 -1.1940
   95CHL1   C21 9488   0.551   5.908   7.511 -0.1102  0.2190 -0.0326
   95CHL1  H21A 9489   0.579   5.902   7.619 -0.7306 -2.2370  0.0356
   95CHL1  H21B 9490   0.614   5.988   7.465 -2.5757  1.5905 -1.2287
   95CHL1  H21C 9491   0.573   5.812   7.461 -0.9533  0.6193 -1.2023
   95CHL1   C22 9492   0.313   5.862   7.584 -0.6227  0.3691  0.2765
   95CHL1  H22A 9493   0.209   5.860   7.546  0.7257  1.4648 -4.1081
   95CHL1  H22B 9494   0.341   5.755   7.589 -0.4788  0.4282  0.7473
   95CHL1   C23 9495   0.314   5.909   7.730 -0.2854 -0.5007  0.4139
   95CHL1  H23A 9496   0.414   5.932   7.774  0.4320 -0.3691 -1.2361
   95CHL1  H23B 9497   0.274   6.012   7.719 -1.4435 -1.1307 -1.8208
   95CHL1   C24 9498   0.221   5.838   7.825 -0.0971  0.5496 -0.3526
   95CHL1  H24A 9499   0.121   5.841   7.777  0.4077 -0.5174 -1.4948
   95CHL1  H24B 9500   0.260   5.735   7.840  0.4671  0.5270 -1.8465
   95CHL1   C25 9501   0.205   5.893   7.964  0.4076 -0.2127  0.2005
   95CHL1   H25 9502   0.153   5.813   8.022 -2.6157 -0.7068 -2.8899
   95CHL1   C26 9503   0.333   5.907   8.048 -0.2056 -0.0310  0.9288
   95CHL1  H26A 9504   0.311   5.950   8.148 -3.1306  0.2771  0.2670
   95CHL1  H26B 9505   0.374   5.805   8.062 -3.9053 -1.6986  0.7308
   95CHL1  H26C 9506   0.395   5.981   7.992 -1.5074  0.1684 -0.3081
   95CHL1   C27 9507   0.115   6.024   7.970 -0.0936 -0.3209 -0.1656
   95CHL1  H27A 9508   0.025   5.983   7.919 -0.5541 -0.7548  0.9699
   95CHL1  H27B 9509   0.090   6.046   8.076 -0.1250 -2.3553  0.2872
   95CHL1  H27C 9510   0.172   6.102   7.915  1.1605 -0.6181  0.6800
   96CHL1    C3 9511   1.191   4.941   6.586  0.8168 -0.2468  0.2566
   96CHL1    H3 9512   1.102   5.004   6.607  0.3298  0.0585 -2.3785
   96CHL1    O3 9513   1.185   4.900   6.454  0.3735  0.1729  0.2958
   96CHL1   H3' 9514   1.272   4.931   6.428 -0.0568  0.6989 -0.5591
   96CHL1    C4 9515   1.321   5.017   6.614 -0.3038 -0.0651  0.1708
   96CHL1   H4A 9516   1.406   4.948   6.593  0.2863  0.3888  1.0065
   96CHL1   H4B 9517   1.324   5.110   6.552  0.0477  0.0262  0.3213
   96CHL1    C5 9518   1.324   5.042   6.769 -0.6087 -0.1902  0.6400
   96CHL1    C6 9519   1.333   5.165   6.823 -0.4833  0.5679  0.0979
   96CHL1    H6 9520   1.331   5.250   6.753  2.6327  1.2380  0.6799
   96CHL1    C7 9521   1.340   5.200   6.966 -0.2201 -0.4453 -0.8077
   96CHL1   H7A 9522   1.416   5.279   6.983 -0.5965 -0.5735  1.9228
   96CHL1   H7B 9523   1.243   5.245   6.996 -0.9617 -2.7896  0.6065
   96CHL1    C8 9524   1.384   5.084   7.058 -0.0513 -0.0945 -0.0246
   96CHL1    H8 9525   1.492   5.071   7.038  0.1844  1.3441  0.2051
   96CHL1   C14 9526   1.347   5.119   7.198  0.1648 -0.2550 -0.1416
   96CHL1   H14 9527   1.238   5.142   7.206 -0.4132 -3.1395  2.1578
   96CHL1   C15 9528   1.423   5.247   7.245  0.0260 -0.4729  0.3830
   96CHL1  H15A 9529   1.530   5.251   7.218 -0.4002  0.3414 -1.3415
   96CHL1  H15B 9530   1.383   5.349   7.229  0.0905 -0.3729  0.8281
   96CHL1   C16 9531   1.408   5.231   7.407 -0.2051  0.0830 -0.6511
   96CHL1  H16A 9532   1.508   5.251   7.451 -0.9394 -0.3710  1.3502
   96CHL1  H16B 9533   1.338   5.303   7.456  1.1513 -0.4130  2.2211
   96CHL1   C17 9534   1.359   5.085   7.438  0.2245 -0.0158  0.2183
   96CHL1   H17 9535   1.250   5.087   7.458 -0.1397  0.4255 -1.6420
   96CHL1   C13 9536   1.375   5.014   7.302 -0.0113 -0.5932 -0.1686
   96CHL1   C18 9537   1.525   4.982   7.296 -0.2382  0.2921 -0.3757
   96CHL1  H18A 9538   1.589   5.057   7.347  1.0742 -1.6758  1.0124
   96CHL1  H18B 9539   1.540   4.893   7.361  1.1860  1.8607  1.5756
   96CHL1  H18C 9540   1.573   4.976   7.196  1.2129  0.1078  0.2985
   96CHL1   C12 9541   1.289   4.898   7.264 -0.0613 -0.4050  0.8876
   96CHL1  H12A 9542   1.286   4.815   7.338  1.6134 -1.8946 -0.6041
   96CHL1  H12B 9543   1.182   4.926   7.269 -0.0054  0.1368 -0.5828
   96CHL1   C11 9544   1.311   4.853   7.114  0.1316  0.4290  0.3641
   96CHL1  H11A 9545   1.419   4.829   7.124 -0.0296 -0.2103  0.6783
   96CHL1  H11B 9546   1.261   4.761   7.076  1.4256 -0.2426  0.2089
   96CHL1    C9 9547   1.301   4.964   7.017  0.8961 -0.6125 -0.1716
   96CHL1    H9 9548   1.194   4.992   7.026  0.8127 -1.1610  0.7365
   96CHL1   C10 9549   1.318   4.926   6.869 -0.2210 -0.7121 -0.6476
   96CHL1   C19 9550   1.439   4.841   6.858 -0.0530 -0.2947 -0.3453
   96CHL1  H19A 9551   1.523   4.882   6.919 -0.2380  1.3731 -1.1574
   96CHL1  H19B 9552   1.417   4.738   6.893 -0.3714  0.0460  0.4937
   96CHL1  H19C 9553   1.479   4.822   6.756  3.5787  0.9860  0.6521
   96CHL1    C1 9554   1.199   4.829   6.823  0.1283  0.4814  0.1506
   96CHL1   H1A 9555   1.207   4.736   6.882  1.0621  0.5312  0.1265
   96CHL1   H1B 9556   1.101   4.875   6.851  0.7011  0.5482  2.2595
   96CHL1    C2 9557   1.185   4.809   6.676  0.1348 -0.1429 -0.1042
   96CHL1   H2A 9558   1.093   4.748   6.660 -0.6467 -0.2049  3.6076
   96CHL1   H2B 9559   1.265   4.740   6.644  0.9124 -1.3590  3.9217
   96CHL1   C20 9560   1.426   5.026   7.562  0.3579 -0.3079  0.2266
   96CHL1   H20 9561   1.536   5.019   7.545  1.1083  6.6906 -0.6851
   96CHL1   C21 9562   1.364   4.885   7.588  0.0365  0.2749  0.0989
   96CHL1  H21A 9563   1.394   4.852   7.690 -0.2752  0.4007  0.2321
   96CHL1  H21B 9564   1.411   4.809   7.522  1.9948 -0.2147  1.9163
   96CHL1  H21C 9565   1.253   4.884   7.586  0.0239 -1.4348  0.0123
   96CHL1   C22 9566   1.412   5.115   7.688 -0.0865  0.9655 -0.3116
   96CHL1  H22A 9567   1.456   5.071   7.780 -2.0218  0.5538  0.4543
   96CHL1  H22B 9568   1.470   5.209   7.672  0.1988  0.9554  0.6518
   96CHL1   C23 9569   1.267   5.129   7.735 -0.2932 -0.6725  0.3903
   96CHL1  H23A 9570   1.206   5.183   7.659 -2.0879  0.2755  2.3861
   96CHL1  H23B 9571   1.217   5.034   7.764 -1.0488 -1.0327 -1.8321
   96CHL1   C24 9572   1.250   5.208   7.866  0.4303  0.4679 -1.0495
   96CHL1  H24A 9573   1.146   5.194   7.902  0.6955 -1.3616 -0.9206
   96CHL1  H24B 9574   1.308   5.151   7.942 -0.8256 -1.6609 -1.5969
   96CHL1   C25 9575   1.290   5.354   7.864  0.1024  0.5118 -0.0555
   96CHL1   H25 9576   1.392   5.355   7.820  0.3267  0.1536  0.4403
   96CHL1   C26 9577   1.188   5.436   7.785 -0.2448  0.2205 -0.3920
   96CHL1  H26A 9578   1.221   5.539   7.760 -1.4849  0.3160 -1.8328
   96CHL1  H26B 9579   1.170   5.399   7.682 -3.1275  1.0863 -0.2930
   96CHL1  H26C 9580   1.087   5.444   7.831  0.5600 -1.8610  1.9358
   96CHL1   C27 9581   1.289   5.410   8.010  0.1632 -0.8334  0.5773
   96CHL1  H27A 9582   1.194   5.421   8.067  0.4057  0.9184  0.6945
   96CHL1  H27B 9583   1.347   5.334   8.067 -1.0172 -1.1010  1.4541
   96CHL1  H27C 9584   1.354   5.500   8.010 -0.5331 -0.2992 -1.0811
   97OSM      N 9585   5.181   0.052  10.862  0.1316 -0.3019  0.5139
   97OSM    C15 9586   5.126   0.093  10.997  0.4061 -0.8010  0.1393
   97OSM   H15A 9587   5.041   0.160  10.990 -0.8053 -2.2270  0.5584
   97OSM   H15B 9588   5.199   0.149  11.053  1.4724 -0.7837 -1.2077
   97OSM   H15C 9589   5.096   0.003  11.049 -0.8164  0.0897  1.0087
   97OSM    C14 9590   5.070  -0.019  10.788  0.5154 -0.8050  0.1054
   97OSM   H14A 9591   4.999   0.061  10.772 -0.6395 -1.9592 -0.7571
   97OSM   H14B 9592   5.019  -0.097  10.843 -1.5121  0.5093  0.1958
   97OSM   H14C 9593   5.096  -0.056  10.690 -1.5293 -2.4248  0.0967
   97OSM    C13 9594   5.221   0.176  10.784  1.0092 -0.0452 -0.3944
   97OSM   H13A 9595   5.289   0.230  10.848  0.4867 -1.1165  1.1405
   97OSM   H13B 9596   5.139   0.244  10.772  0.5512 -0.3441  0.8451
   97OSM   H13C 9597   5.251   0.153  10.683 -2.1536  2.2503 -1.9844
   97OSM    C12 9598   5.310  -0.027  10.879  0.3917 -0.6531  0.5677
   97OSM   H12A 9599   5.381   0.029  10.939 -0.4059  1.5168 -0.4089
   97OSM   H12B 9600   5.339  -0.030  10.775 -1.3396  1.8575 -0.0882
   97OSM    C11 9601   5.294  -0.170  10.927  0.2523  0.2968  0.2499
   97OSM   H11A 9602   5.392  -0.223  10.925 -0.5856 -1.3487  0.8507
   97OSM   H11B 9603   5.225  -0.221  10.857  0.1663  0.1358  0.4529
   97OSM      P 9604   5.119  -0.259  11.117 -0.2245 -0.3565  0.4233
   97OSM    O13 9605   5.155  -0.322  11.247  0.1309  0.1227  0.1090
   97OSM    O14 9606   5.002  -0.167  11.109 -0.4190  0.0778 -0.2526
   97OSM    O11 9607   5.091  -0.366  11.008 -0.0275 -0.3474 -0.0783
   97OSM    O12 9608   5.249  -0.177  11.065  0.4497  0.3489  0.3526
   97OSM    C1S 9609   4.996  -0.382  10.906  0.4926 -0.5060  0.1912
   97OSM    H1S 9610   4.962  -0.288  10.858 -1.6726 -1.7043 -0.8104
   97OSM    H1T 9611   4.909  -0.433  10.952 -1.3745  0.8676 -1.6430
   97OSM     NF 9612   4.951  -0.460  10.675  0.3715  0.7496  0.9125
   97OSM    HNF 9613   4.901  -0.544  10.655  0.5264  1.2824 -2.3496
   97OSM    C2S 9614   5.039  -0.470  10.791 -0.2776  0.8351  0.4255
   97OSM    H2S 9615   5.137  -0.428  10.763  1.2661 -1.4791  1.9867
   97OSM    C3S 9616   5.045  -0.613  10.850 -0.2583 -0.9727  0.4063
   97OSM    H3S 9617   4.939  -0.628  10.880 -0.8670  0.0897 -1.0735
   97OSM     O3 9618   5.135  -0.622  10.964 -0.2606 -0.4265 -0.8351
   97OSM    HO3 9619   5.154  -0.533  10.994 -0.0601 -1.2044  1.5143
   97OSM    C4S 9620   5.087  -0.717  10.749  0.3226 -1.0177 -0.2379
   97OSM    H4S 9621   5.183  -0.702  10.697  0.8900 -1.6080  0.6126
   97OSM    C5S 9622   5.025  -0.828  10.723 -0.1656  0.0768 -0.2534
   97OSM    H5S 9623   4.935  -0.847  10.784  1.6684 -1.6221  2.0938
   97OSM    C6S 9624   5.063  -0.935  10.624 -0.6755 -0.5439 -0.5919
   97OSM    H6S 9625   5.022  -1.029  10.666  0.0694 -0.9056 -0.6566
   97OSM    H6T 9626   5.174  -0.929  10.620 -0.7209  0.5594 -0.5996
   97OSM    C7S 9627   4.996  -0.913  10.485  0.6649 -0.2272  0.7857
   97OSM    H7S 9628   5.038  -0.816  10.450  0.5488 -0.5241 -0.1967
   97OSM    H7T 9629   4.886  -0.908  10.499  0.4104 -0.4060 -0.9902
   97OSM    C8S 9630   5.037  -1.010  10.370 -0.2637  0.2520 -0.2073
   97OSM    H8S 9631   5.004  -1.111  10.404  0.2586  0.5768  1.3836
   97OSM    H8T 9632   5.147  -1.023  10.365 -0.1123  0.8387  1.0727
   97OSM    C9S 9633   4.984  -0.977  10.235 -0.5743  0.0733 -0.1811
   97OSM    H9S 9634   4.990  -0.866  10.230  0.1908  0.0055 -1.1924
   97OSM    H9T 9635   4.876  -1.004  10.239 -0.4766 -0.2801  0.1593
   97OSM   C10S 9636   5.054  -1.036  10.113  0.2593  0.0171 -0.0191
   97OSM   H10S 9637   5.052  -1.144  10.136 -0.8401  0.0560  0.0976
   97OSM   H10T 9638   5.160  -1.003  10.113  0.3481 -0.2359 -1.0061
   97OSM   C11S 9639   4.982  -1.000   9.990  0.3734  0.2753  0.9473
   97OSM   H11S 9640   4.976  -0.889   9.980 -1.3393  0.2016  0.7756
   97OSM   H11T 9641   4.879  -1.040  10.003  0.0698  0.5537 -0.3805
   97OSM   C12S 9642   5.036  -1.055   9.854 -0.6029 -0.8101 -0.3116
   97OSM   H12S 9643   5.038  -1.166   9.864  1.9416 -0.9228 -1.2804
   97OSM   H12T 9644   5.143  -1.030   9.838 -0.8067 -0.7684 -1.7831
   97OSM   C13S 9645   4.957  -0.995   9.731  0.1941  0.1239 -0.1575
   97OSM   H13S 9646   4.942  -0.884   9.734 -0.7268  0.0306  3.0388
   97OSM   H13T 9647   4.852  -1.032   9.738  0.4786 -0.5900  0.3534
   97OSM   C14S 9648   5.026  -1.045   9.599 -0.7285  0.6853 -0.8431
   97OSM   H14S 9649   5.037  -1.155   9.594 -0.8278  0.5865  0.7575
   97OSM   H14T 9650   5.130  -1.006   9.593 -0.5596  0.2931 -0.4964
   97OSM   C15S 9651   4.952  -1.014   9.470 -0.2112  0.1392  0.0852
   97OSM   H15S 9652   4.954  -0.906   9.440  2.9587  0.6294  1.6849
   97OSM   H15T 9653   4.845  -1.042   9.485 -0.0745  0.4888  1.9495
   97OSM   C16S 9654   5.022  -1.085   9.355 -0.4093  0.6117  0.4824
   97OSM   H16S 9655   5.004  -1.191   9.382 -1.2774  0.2993 -1.2492
   97OSM   H16T 9656   5.130  -1.063   9.369 -0.6670  0.8557  2.3870
   97OSM   C17S 9657   4.962  -1.052   9.219 -0.0528 -0.4610 -0.9639
   97OSM   H17S 9658   4.852  -1.064   9.234  0.0329 -0.1083 -0.0099
   97OSM   H17T 9659   4.998  -1.127   9.145 -1.0711 -1.3396 -0.6104
   97OSM   C18S 9660   4.993  -0.912   9.169  0.4531  0.2657  0.3658
   97OSM   H18S 9661   5.102  -0.900   9.185  0.2477  0.8587  1.4386
   97OSM   H18T 9662   4.943  -0.834   9.230  0.1315 -0.2605  0.7916
   97OSM   H18U 9663   4.947  -0.906   9.068  0.4397 -2.6900  0.1078
   97OSM    C1F 9664   4.934  -0.347  10.596 -0.1275  0.4497 -0.3597
   97OSM     OF 9665   4.997  -0.242  10.623 -0.9335 -0.1295 -0.1502
   97OSM    C2F 9666   4.843  -0.358  10.477 -0.3769  0.5685  0.2070
   97OSM    H2F 9667   4.743  -0.332  10.519 -0.1636 -1.4202  2.1605
   97OSM    H2G 9668   4.843  -0.461  10.435 -1.3909  1.6240 -2.6046
   97OSM    C3F 9669   4.888  -0.267  10.356  0.0205 -0.2208 -0.4662
   97OSM    H3F 9670   4.887  -0.167  10.403  2.5270 -0.7906  1.0189
   97OSM    H3G 9671   4.821  -0.259  10.268 -1.0559  1.6696  0.4728
   97OSM    C4F 9672   5.031  -0.286  10.309  0.9008 -0.1897 -0.3816
   97OSM    H4F 9673   5.101  -0.307  10.392  0.2961  1.1171  0.4918
   97OSM    H4G 9674   5.067  -0.184  10.281 -1.9194  1.0115  0.0646
   97OSM    C5F 9675   5.050  -0.396  10.196 -0.9972  0.2117 -0.1969
   97OSM    H5F 9676   4.990  -0.481  10.235 -0.3602  0.7787  2.2109
   97OSM    H5G 9677   5.147  -0.449  10.188 -1.4071 -0.8841  1.3969
   97OSM    C6F 9678   5.009  -0.347  10.062  0.2708 -0.2820  0.4112
   97OSM    H6F 9679   5.066  -0.252  10.048 -1.5345  0.9813  1.2817
   97OSM    H6G 9680   4.901  -0.326  10.078  0.1228 -1.7016  1.4914
   97OSM    C7F 9681   5.038  -0.435   9.945  0.5039  0.1437  0.5731
   97OSM    H7F 9682   5.009  -0.540   9.964  0.0580  0.1832  0.1378
   97OSM    H7G 9683   5.148  -0.436   9.929  0.5331 -0.4154  0.7885
   97OSM    C8F 9684   4.969  -0.387   9.816  0.1057 -0.1095  0.0585
   97OSM    H8F 9685   5.003  -0.285   9.786 -0.1059 -0.1900 -0.4517
   97OSM    H8G 9686   4.859  -0.383   9.833 -0.1021  0.4800 -1.3355
   97OSM    C9F 9687   4.998  -0.478   9.700 -0.1045  0.4357  0.0950
   97OSM    H9F 9688   4.957  -0.578   9.718  3.3427 -1.2709 -0.6724
   97OSM   C10F 9689   5.056  -0.464   9.583 -0.0680 -0.3879 -0.1333
   97OSM   H10F 9690   5.049  -0.552   9.517 -0.9656 -0.7610  0.4232
   97OSM   C11F 9691   5.115  -0.337   9.522  0.2272 -0.0324  0.4491
   97OSM   H11F 9692   5.198  -0.308   9.589 -0.3412 -0.4254  1.3342
   97OSM   H11G 9693   5.040  -0.256   9.516 -1.1871 -1.3839 -3.2131
   97OSM   C12F 9694   5.164  -0.341   9.374  0.3234  0.3178  0.6871
   97OSM   H12F 9695   5.228  -0.431   9.364  1.0556  1.0428 -1.8164
   97OSM   H12G 9696   5.219  -0.252   9.338  0.4222 -0.3369 -0.8641
   97OSM   C13F 9697   5.045  -0.375   9.273 -0.6693 -0.2877 -0.2199
   97OSM   H13F 9698   4.969  -0.296   9.285  1.1692  2.1068 -2.9015
   97OSM   H13G 9699   5.010  -0.477   9.301 -1.2644 -0.1188 -0.3366
   97OSM   C14F 9700   5.090  -0.381   9.131  0.8763 -0.5707 -0.4822
   97OSM   H14F 9701   5.180  -0.444   9.113  0.8092 -0.4279 -1.3286
   97OSM   H14G 9702   5.124  -0.277   9.112 -0.0587 -0.0337  0.6582
   97OSM   C15F 9703   4.987  -0.426   9.034  0.4161  0.1400 -0.1040
   97OSM   H15F 9704   4.906  -0.360   9.072  1.0931  0.0011  1.6624
   97OSM   H15G 9705   4.958  -0.529   9.061 -0.3495  0.1922 -0.6707
   97OSM   C16F 9706   5.009  -0.389   8.886  0.3764  0.1698  0.3191
   97OSM   H16F 9707   5.026  -0.281   8.868 -0.4836 -0.0901 -2.6707
   97OSM   H16G 9708   4.915  -0.404   8.828  1.2876  0.0515 -1.2019
   97OSM   C17F 9709   5.112  -0.468   8.807  0.2015  0.6626 -0.3169
   97OSM   H17F 9710   5.214  -0.450   8.847 -0.0236 -0.9724  1.0941
   97OSM   H17G 9711   5.104  -0.439   8.700  1.0048  0.6122 -0.3998
   97OSM   C18F 9712   5.101  -0.619   8.817  0.1733  0.2285 -0.9676
   97OSM   H18F 9713   5.104  -0.650   8.923 -1.2263  0.1459 -0.9308
   97OSM   H18G 9714   5.189  -0.670   8.774  0.1875 -1.4253  0.9156
   97OSM   H18H 9715   5.013  -0.667   8.767 -0.0000 -0.1476 -0.3074
   98OSM      N 9716   4.246   0.635  10.970 -0.2202 -0.7656 -0.3245
   98OSM    C15 9717   4.176   0.521  11.033 -0.3522  1.0785  0.2561
   98OSM   H15A 9718   4.234   0.468  11.107 -0.2743  1.1235  0.2271
   98OSM   H15B 9719   4.134   0.457  10.957  2.1843  1.0691 -1.2328
   98OSM   H15C 9720   4.092   0.564  11.085  0.3412  2.5926  0.1754
   98OSM    C14 9721   4.148   0.701  10.871 -0.2367  0.5211  0.3117
   98OSM   H14A 9722   4.062   0.729  10.930 -1.4324 -1.7346 -0.2222
   98OSM   H14B 9723   4.105   0.626  10.806  2.0026  0.6906 -1.4623
   98OSM   H14C 9724   4.193   0.779  10.812  2.0997 -0.7265  0.3550
   98OSM    C13 9725   4.285   0.745  11.053 -0.3009  0.1078 -0.0029
   98OSM   H13A 9726   4.215   0.770  11.131  1.5390 -3.4546  3.1339
   98OSM   H13B 9727   4.312   0.834  10.997 -0.0761 -0.9167 -1.5797
   98OSM   H13C 9728   4.377   0.720  11.106  0.3863  0.8844 -0.7975
   98OSM    C12 9729   4.370   0.574  10.911  0.1926 -0.6640 -0.4446
   98OSM   H12A 9730   4.423   0.659  10.869  2.8953 -0.9251  2.1557
   98OSM   H12B 9731   4.343   0.516  10.824 -2.2902  1.1133 -0.9785
   98OSM    C11 9732   4.461   0.499  11.005 -0.2975 -0.2004 -0.3809
   98OSM   H11A 9733   4.467   0.564  11.094  0.1700 -1.4135  0.4954
   98OSM   H11B 9734   4.564   0.489  10.963 -0.6376 -1.7358 -0.9167
   98OSM      P 9735   4.433   0.238  10.982 -0.1423 -0.0095 -0.6172
   98OSM    O13 9736   4.573   0.191  11.010  0.4674  0.6421 -0.0819
   98OSM    O14 9737   4.319   0.153  11.019  0.7730  0.2120 -0.7071
   98OSM    O11 9738   4.430   0.256  10.823  0.5169 -0.3425  0.4197
   98OSM    O12 9739   4.408   0.378  11.049  0.1672 -0.0845  0.7599
   98OSM    C1S 9740   4.534   0.290  10.729  0.2453 -0.7677  0.0872
   98OSM    H1S 9741   4.617   0.338  10.784  0.5733  1.6094 -2.2929
   98OSM    H1T 9742   4.497   0.370  10.662  1.2225  2.4127  3.0349
   98OSM     NF 9743   4.693   0.223  10.558 -0.3693 -0.6501 -0.6949
   98OSM    HNF 9744   4.660   0.267  10.475 -3.5516  0.3677  0.9073
   98OSM    C2S 9745   4.582   0.175  10.645 -0.0559  0.6123 -0.0329
   98OSM    H2S 9746   4.621   0.108  10.724 -1.3918 -0.1459  0.0032
   98OSM    C3S 9747   4.467   0.103  10.576  0.5482 -0.9940 -0.2145
   98OSM    H3S 9748   4.410   0.173  10.511  0.9389 -0.8090 -0.3629
   98OSM     O3 9749   4.360   0.058  10.661  0.2454 -0.1874  0.5669
   98OSM    HO3 9750   4.353   0.119  10.735 -0.2482 -0.0525  0.4112
   98OSM    C4S 9751   4.515  -0.019  10.493  0.3011  0.4003 -0.0915
   98OSM    H4S 9752   4.587  -0.085  10.543 -0.3679 -0.3919 -0.1534
   98OSM    C5S 9753   4.479  -0.049  10.364 -0.8122 -0.0423 -0.1252
   98OSM    H5S 9754   4.413   0.018  10.307  0.8979  0.2906 -1.8318
   98OSM    C6S 9755   4.536  -0.164  10.291 -0.0858 -0.0073 -0.0645
   98OSM    H6S 9756   4.460  -0.243  10.276  0.4375 -0.2658 -1.4587
   98OSM    H6T 9757   4.621  -0.223  10.330  0.5934 -0.4125 -2.0584
   98OSM    C7S 9758   4.571  -0.110  10.155  0.2927  0.1349 -0.3613
   98OSM    H7S 9759   4.666  -0.052  10.153  1.5932 -1.8617  0.3609
   98OSM    H7T 9760   4.492  -0.046  10.111 -0.8187 -0.7974  0.2291
   98OSM    C8S 9761   4.591  -0.226  10.057  0.4878  0.9478 -0.0839
   98OSM    H8S 9762   4.496  -0.283  10.055  1.9538 -1.6767 -2.4790
   98OSM    H8T 9763   4.674  -0.292  10.090 -0.0902  0.5653  0.6323
   98OSM    C9S 9764   4.603  -0.174   9.910 -0.1099 -0.0197  0.1057
   98OSM    H9S 9765   4.511  -0.124   9.872 -0.4743 -1.9210 -1.6735
   98OSM    H9T 9766   4.629  -0.260   9.844 -0.0074  1.3082 -1.6619
   98OSM   C10S 9767   4.724  -0.076   9.898  0.3645  0.7676  0.1736
   98OSM   H10S 9768   4.812  -0.122   9.949  0.5807 -1.5039 -2.0075
   98OSM   H10T 9769   4.696   0.027   9.927 -1.0809  0.3409  0.3629
   98OSM   C11S 9770   4.758  -0.062   9.746  0.2925  0.2609  0.7078
   98OSM   H11S 9771   4.788  -0.159   9.700  2.3278  1.4967 -0.7703
   98OSM   H11T 9772   4.846   0.004   9.731 -0.1783  0.8850  0.6662
   98OSM   C12S 9773   4.648  -0.003   9.661  0.0062  0.5622  0.3636
   98OSM   H12S 9774   4.582   0.058   9.726 -1.1056  0.2217 -0.4223
   98OSM   H12T 9775   4.591  -0.085   9.613  1.6255  0.9433 -2.3988
   98OSM   C13S 9776   4.680   0.080   9.534 -0.5833  0.1102  0.7459
   98OSM   H13S 9777   4.758   0.158   9.547  0.3101 -0.5925 -0.2210
   98OSM   H13T 9778   4.583   0.121   9.500 -1.0413 -0.9314  0.7671
   98OSM   C14S 9779   4.723  -0.005   9.409  0.1764 -0.4538 -0.3310
   98OSM   H14S 9780   4.652  -0.089   9.398 -1.5854  0.8828  0.3533
   98OSM   H14T 9781   4.822  -0.048   9.436 -0.5011 -1.5582  0.4574
   98OSM   C15S 9782   4.729   0.079   9.277 -0.2107 -1.0394 -0.0480
   98OSM   H15S 9783   4.818   0.144   9.292  0.0905 -1.1982 -1.0507
   98OSM   H15T 9784   4.641   0.147   9.268 -1.1946 -2.2203  0.2991
   98OSM   C16S 9785   4.743  -0.004   9.151 -0.3228 -0.3214 -0.4841
   98OSM   H16S 9786   4.655  -0.071   9.142 -2.0989  1.7681  0.1909
   98OSM   H16T 9787   4.836  -0.064   9.146  0.7669  0.9593  2.1940
   98OSM   C17S 9788   4.749   0.079   9.024 -0.1233 -0.3638  0.5071
   98OSM   H17S 9789   4.843   0.137   9.015  0.6977 -1.7231 -0.0251
   98OSM   H17T 9790   4.671   0.157   9.029 -1.3292 -1.2952 -2.1035
   98OSM   C18S 9791   4.720  -0.011   8.903 -0.3132 -0.1719 -0.0699
   98OSM   H18S 9792   4.696   0.049   8.813 -1.3985  1.8766  1.5070
   98OSM   H18T 9793   4.629  -0.072   8.920 -2.4629  3.0736  0.8999
   98OSM   H18U 9794   4.811  -0.074   8.888 -0.5768 -0.3848 -0.8307
   98OSM    C1F 9795   4.816   0.250  10.602  0.5269  0.4565  0.1106
   98OSM     OF 9796   4.838   0.247  10.721  0.8345 -0.6225  0.3334
   98OSM    C2F 9797   4.917   0.291  10.500  0.1734  0.5214  0.7669
   98OSM    H2F 9798   5.006   0.345  10.540  1.5321 -0.4668 -0.7664
   98OSM    H2G 9799   4.872   0.376  10.444 -0.1512  0.3662  0.7914
   98OSM    C3F 9800   4.960   0.167  10.417 -0.0603 -0.0263 -0.5167
   98OSM    H3F 9801   4.884   0.086  10.430  0.5658 -0.4260  0.8348
   98OSM    H3G 9802   5.055   0.120  10.453  0.5462  0.1783 -1.7874
   98OSM    C4F 9803   4.959   0.204  10.271  0.1207  0.2364  1.0751
   98OSM    H4F 9804   5.019   0.297  10.267  2.7767 -1.2928  2.5675
   98OSM    H4G 9805   4.855   0.219  10.236  0.4333 -2.0046 -1.0952
   98OSM    C5F 9806   5.027   0.102  10.177 -0.4586 -0.2667 -0.1420
   98OSM    H5F 9807   4.972   0.005  10.181 -2.0369  0.6269  1.0683
   98OSM    H5G 9808   5.122   0.073  10.226 -0.5318  1.2117  0.9104
   98OSM    C6F 9809   5.041   0.166  10.041  0.2809  0.5405  0.0516
   98OSM    H6F 9810   5.106   0.256  10.043 -0.7655  1.4189 -2.0454
   98OSM    H6G 9811   4.941   0.200  10.006  0.6460  0.1908 -1.4400
   98OSM    C7F 9812   5.095   0.069   9.938 -0.2600  0.1775  0.3580
   98OSM    H7F 9813   5.020  -0.012   9.933 -1.9747  1.6585  1.1419
   98OSM    H7G 9814   5.196   0.036   9.973  0.6772  0.9085 -1.4982
   98OSM    C8F 9815   5.119   0.130   9.801  0.0451 -0.4456  0.2482
   98OSM    H8F 9816   5.183   0.220   9.797  0.0417 -0.4048 -3.8497
   98OSM    H8G 9817   5.026   0.180   9.764  1.1873  0.2313 -1.8609
   98OSM    C9F 9818   5.162   0.011   9.713  0.0003 -0.5383 -0.1246
   98OSM    H9F 9819   5.176  -0.088   9.760  1.9944 -0.5153 -0.6059
   98OSM   C10F 9820   5.201   0.021   9.586  0.2019 -0.5590  0.5414
   98OSM   H10F 9821   5.227  -0.072   9.533 -1.5318 -0.0607 -1.2963
   98OSM   C11F 9822   5.212   0.151   9.512 -0.3472 -0.1021  0.3576
   98OSM   H11F 9823   5.308   0.163   9.459  0.3709 -1.0515  1.3938
   98OSM   H11G 9824   5.200   0.242   9.575 -0.8635  0.7492 -0.9255
   98OSM   C12F 9825   5.110   0.160   9.401  0.4980  0.0308  0.0508
   98OSM   H12F 9826   5.109   0.263   9.359  1.3618  0.7059  1.5784
   98OSM   H12G 9827   5.008   0.148   9.441  1.0700  0.4871  1.7507
   98OSM   C13F 9828   5.129   0.069   9.283 -0.0288 -0.2723 -0.0884
   98OSM   H13F 9829   5.048  -0.007   9.275 -1.2816  1.0897 -0.9464
   98OSM   H13G 9830   5.226   0.015   9.295 -0.0288 -0.8131 -2.0740
   98OSM   C14F 9831   5.135   0.137   9.144 -0.2511  0.2532 -0.9493
   98OSM   H14F 9832   5.225   0.202   9.135  0.7967 -0.8515  0.7902
   98OSM   H14G 9833   5.038   0.190   9.132 -1.2338  0.1371  4.0326
   98OSM   C15F 9834   5.152   0.024   9.040  0.1968 -0.3809  0.3530
   98OSM   H15F 9835   5.077  -0.057   9.051 -1.2528  0.9462  0.5935
   98OSM   H15G 9836   5.253  -0.021   9.049 -0.0572 -0.6887  2.0286
   98OSM   C16F 9837   5.120   0.084   8.901  0.2566 -0.2474 -0.0311
   98OSM   H16F 9838   5.188   0.170   8.886  1.9072 -1.5676 -0.4057
   98OSM   H16G 9839   5.012   0.110   8.898  0.0779 -0.1686  3.4224
   98OSM   C17F 9840   5.156  -0.009   8.787  0.3675  0.4965  0.1480
   98OSM   H17F 9841   5.105  -0.108   8.796 -1.8316  1.6569  1.1269
   98OSM   H17G 9842   5.265  -0.029   8.796  0.2942 -0.5431 -0.9843
   98OSM   C18F 9843   5.113   0.047   8.647 -0.3532 -0.1394 -0.2325
   98OSM   H18F 9844   5.149  -0.016   8.562  4.3273  3.4334 -1.3464
   98OSM   H18G 9845   5.168   0.143   8.635 -0.1042 -0.2735 -0.1816
   98OSM   H18H 9846   5.002   0.051   8.650 -0.3679 -0.5665  3.1170
   99OSM      N 9847   0.116   1.237  10.529 -0.0342 -0.3835 -0.0530
   99OSM    C15 9848   0.207   1.194  10.418 -0.1317 -0.2233 -0.0180
   99OSM   H15A 9849   0.156   1.148  10.335 -1.4439 -1.8978  1.6354
   99OSM   H15B 9850   0.293   1.132  10.440 -0.5953 -1.0013 -0.3577
   99OSM   H15C 9851   0.250   1.287  10.384  2.1935 -0.9377  0.7443
   99OSM    C14 9852   0.202   1.294  10.637  0.0069  0.1289 -0.0997
   99OSM   H14A 9853   0.282   1.226  10.659 -0.6252 -0.7951 -0.5725
   99OSM   H14B 9854   0.146   1.311  10.728  0.9012 -2.0692  0.9232
   99OSM   H14C 9855   0.226   1.395  10.606 -0.9508 -0.1560 -1.8874
   99OSM    C13 9856   0.026   1.340  10.476 -0.2318 -0.1251 -1.0410
   99OSM   H13A 9857  -0.054   1.359  10.545 -0.3837 -0.9131 -0.9908
   99OSM   H13B 9858  -0.027   1.302  10.390 -1.9952  3.0057 -1.4946
   99OSM   H13C 9859   0.070   1.435  10.450 -1.3715  0.2969 -1.4801
   99OSM    C12 9860   0.049   1.111  10.583  0.6176 -0.6192 -0.0878
   99OSM   H12A 9861   0.117   1.030  10.602  1.1621  0.3065  2.3229
   99OSM   H12B 9862  -0.022   1.073  10.511 -1.7013  0.5721  1.4478
   99OSM    C11 9863  -0.034   1.127  10.716 -0.0775  0.5191 -0.0018
   99OSM   H11A 9864   0.030   1.142  10.806  0.5713 -1.3270 -0.0984
   99OSM   H11B 9865  -0.074   1.024  10.725 -0.3859  0.6058 -0.3645
   99OSM      P 9866  -0.271   1.200  10.643 -0.1832 -0.3371  0.3310
   99OSM    O13 9867  -0.353   1.109  10.726  0.5095 -0.6988  0.0803
   99OSM    O14 9868  -0.333   1.332  10.619  0.8760  0.3543  0.1827
   99OSM    O11 9869  -0.238   1.133  10.502 -0.1799 -0.0297  0.1900
   99OSM    O12 9870  -0.132   1.226  10.718  0.0529 -0.4344 -0.4865
   99OSM    C1S 9871  -0.330   1.124  10.396  0.6506  0.0811 -0.6226
   99OSM    H1S 9872  -0.311   1.214  10.334  1.0421 -0.4225 -1.2509
   99OSM    H1T 9873  -0.432   1.107  10.437  2.1777 -2.4066  2.6115
   99OSM     NF 9874  -0.392   1.014  10.185  0.4095 -0.2021 -0.1076
   99OSM    HNF 9875  -0.478   0.965  10.181 -0.9169  1.9178  0.6915
   99OSM    C2S 9876  -0.301   1.006  10.302  0.0823 -0.1597  0.4262
   99OSM    H2S 9877  -0.196   1.024  10.271  0.6152 -0.1277  2.1000
   99OSM    C3S 9878  -0.295   0.864  10.377  0.7186 -0.4841 -0.6212
   99OSM    H3S 9879  -0.395   0.837  10.418  0.6792 -0.2523 -0.5640
   99OSM     O3 9880  -0.203   0.864  10.488 -0.2733 -0.4232 -0.1475
   99OSM    HO3 9881  -0.186   0.957  10.499 -1.7812 -0.3601  2.6308
   99OSM    C4S 9882  -0.241   0.755  10.286 -0.4439 -0.1589  0.5383
   99OSM    H4S 9883  -0.139   0.773  10.249  0.3837 -4.1642  0.4439
   99OSM    C5S 9884  -0.303   0.643  10.239  0.8841 -0.8390 -0.3078
   99OSM    H5S 9885  -0.404   0.614  10.273  1.5228 -3.1553 -0.2306
   99OSM    C6S 9886  -0.237   0.547  10.149 -0.5872  0.0890  1.1152
   99OSM    H6S 9887  -0.314   0.531  10.071 -1.2326  1.2497  1.4872
   99OSM    H6T 9888  -0.220   0.443  10.184  0.4905 -0.2447 -0.2740
   99OSM    C7S 9889  -0.106   0.574  10.071  0.7612  0.1337 -0.3788
   99OSM    H7S 9890  -0.093   0.481  10.011  0.1899  0.1248 -0.4885
   99OSM    H7T 9891  -0.024   0.580  10.146 -0.3463  0.2164  0.8570
   99OSM    C8S 9892  -0.104   0.700   9.983  0.4732 -0.0464 -0.5455
   99OSM    H8S 9893   0.000   0.739   9.987  0.6973 -0.5708 -1.0204
   99OSM    H8T 9894  -0.180   0.769  10.025  0.9053  0.3679 -0.4383
   99OSM    C9S 9895  -0.133   0.683   9.836  0.2629  0.2281 -0.2305
   99OSM    H9S 9896  -0.119   0.780   9.783 -3.5437  0.5915 -0.8362
   99OSM    H9T 9897  -0.240   0.655   9.824  0.1232  0.2271  0.9823
   99OSM   C10S 9898  -0.048   0.583   9.750  0.1153 -0.4912 -0.2691
   99OSM   H10S 9899  -0.092   0.577   9.648 -1.6829 -1.0464  0.4955
   99OSM   H10T 9900  -0.069   0.484   9.797 -1.3676 -0.2026 -0.2542
   99OSM   C11S 9901   0.107   0.598   9.745  0.6639 -0.6380 -0.3438
   99OSM   H11S 9902   0.152   0.497   9.734  0.0087 -1.2645  2.1171
   99OSM   H11T 9903   0.147   0.634   9.842 -0.7649  1.5303 -0.5021
   99OSM   C12S 9904   0.154   0.689   9.640  0.5250 -0.1521  0.3125
   99OSM   H12S 9905   0.110   0.651   9.545  2.5312  0.3774 -0.8852
   99OSM   H12T 9906   0.105   0.788   9.651 -0.8857 -0.6602 -1.0339
   99OSM   C13S 9907   0.306   0.697   9.634  0.1895  0.3097 -0.0636
   99OSM   H13S 9908   0.352   0.597   9.619  2.3818  0.9910  1.6321
   99OSM   H13T 9909   0.348   0.738   9.728 -1.2456  0.1858  0.6585
   99OSM   C14S 9910   0.361   0.781   9.521 -0.1002 -0.4417  0.3900
   99OSM   H14S 9911   0.471   0.789   9.539  0.3316  1.2027 -2.4479
   99OSM   H14T 9912   0.317   0.882   9.506 -0.2963 -0.5305  0.3647
   99OSM   C15S 9913   0.359   0.712   9.384  0.1588 -0.0035  0.2327
   99OSM   H15S 9914   0.256   0.670   9.373  0.3510 -0.1003 -1.5175
   99OSM   H15T 9915   0.427   0.625   9.393  2.2129  1.4092 -0.8696
   99OSM   C16S 9916   0.394   0.797   9.260 -0.6249 -0.6789 -0.2212
   99OSM   H16S 9917   0.460   0.880   9.294 -1.4142  0.0889 -0.5319
   99OSM   H16T 9918   0.305   0.852   9.222  0.8324  1.2947 -0.9752
   99OSM   C17S 9919   0.439   0.728   9.126  0.3078 -0.6749 -0.2884
   99OSM   H17S 9920   0.352   0.699   9.064 -0.2018 -0.1213  0.1597
   99OSM   H17T 9921   0.509   0.643   9.141  1.1845  0.1918  0.7151
   99OSM   C18S 9922   0.503   0.833   9.023  0.2925 -0.8510 -0.4240
   99OSM   H18S 9923   0.434   0.920   9.021  0.4903 -0.6891 -0.2567
   99OSM   H18T 9924   0.490   0.809   8.915  1.0150  0.5085 -0.8309
   99OSM   H18U 9925   0.609   0.857   9.047  0.4638 -0.1863 -1.7577
   99OSM    C1F 9926  -0.359   1.104  10.097  0.1001 -0.3598 -0.0417
   99OSM     OF 9927  -0.253   1.163  10.103 -0.1138  0.3382 -0.5508
   99OSM    C2F 9928  -0.460   1.132   9.985 -0.6229 -0.5190  0.3616
   99OSM    H2F 9929  -0.516   1.219  10.027 -0.1848 -0.1280  0.1422
   99OSM    H2G 9930  -0.531   1.047   9.978  1.1793 -1.9621 -2.7653
   99OSM    C3F 9931  -0.400   1.178   9.851 -0.4090 -0.0948 -0.4567
   99OSM    H3F 9932  -0.482   1.197   9.778  0.8643 -1.0791 -2.2131
   99OSM    H3G 9933  -0.339   1.270   9.859 -0.8159  0.0711  0.9933
   99OSM    C4F 9934  -0.311   1.069   9.790 -0.5067 -0.4791  0.4751
   99OSM    H4F 9935  -0.356   0.969   9.806  2.1085 -1.8282 -0.0956
   99OSM    H4G 9936  -0.219   1.074   9.852  1.4643 -1.9754 -2.1201
   99OSM    C5F 9937  -0.287   1.087   9.634 -0.6958 -0.1129  0.1825
   99OSM    H5F 9938  -0.251   1.192   9.621 -0.5670 -0.3370 -1.6498
   99OSM    H5G 9939  -0.386   1.075   9.585 -1.1178  0.0340  0.9849
   99OSM    C6F 9940  -0.188   0.982   9.579  0.4833 -0.2852  0.0058
   99OSM    H6F 9941  -0.218   0.879   9.608  1.9271  0.1403  3.5852
   99OSM    H6G 9942  -0.097   0.979   9.642 -1.0205  0.3584  2.3278
   99OSM    C7F 9943  -0.154   0.994   9.430  0.5064 -0.1107 -0.0401
   99OSM    H7F 9944  -0.119   1.099   9.415 -2.2446  0.9007 -0.1263
   99OSM    H7G 9945  -0.247   0.991   9.369  1.5615  1.7391 -1.8685
   99OSM    C8F 9946  -0.046   0.892   9.391 -0.0912 -0.0210 -0.3664
   99OSM    H8F 9947   0.034   0.905   9.467 -0.2351 -0.7566 -0.0823
   99OSM    H8G 9948  -0.018   0.929   9.290 -1.2090  0.9253 -0.3519
   99OSM    C9F 9949  -0.090   0.751   9.398  0.3561  0.5856  0.1484
   99OSM    H9F 9950  -0.134   0.709   9.490  2.7708 -1.3795  0.5281
   99OSM   C10F 9951  -0.080   0.661   9.298  0.6902 -0.7469  0.1714
   99OSM   H10F 9952  -0.123   0.560   9.308 -0.4367 -0.3597 -0.5120
   99OSM   C11F 9953  -0.032   0.682   9.153  0.3107  0.1408 -0.1322
   99OSM   H11F 9954  -0.046   0.583   9.105 -0.3277  0.0244  0.2696
   99OSM   H11G 9955   0.076   0.707   9.149 -0.1112  3.0983  2.6650
   99OSM   C12F 9956  -0.109   0.787   9.066 -0.3554  0.7500 -0.0275
   99OSM   H12F 9957  -0.091   0.893   9.096 -0.1864  1.1874 -1.5475
   99OSM   H12G 9958  -0.219   0.783   9.079 -0.8716  3.1924 -2.5209
   99OSM   C13F 9959  -0.065   0.780   8.923 -0.9809 -0.0562  0.4818
   99OSM   H13F 9960  -0.124   0.850   8.860  0.8533  0.1686 -1.0912
   99OSM   H13G 9961  -0.078   0.679   8.878  0.1056 -0.9230  2.0352
   99OSM   C14F 9962   0.087   0.824   8.905 -0.2098 -0.5709 -0.3754
   99OSM   H14F 9963   0.146   0.730   8.903  0.7123  0.0107 -1.1086
   99OSM   H14G 9964   0.117   0.889   8.990  1.9465 -1.8607 -0.0856
   99OSM   C15F 9965   0.110   0.901   8.775 -0.0226  0.7209  0.3332
   99OSM   H15F 9966   0.215   0.937   8.773  1.2562 -2.7052 -1.0844
   99OSM   H15G 9967   0.031   0.977   8.757  0.4759  1.2576  0.3847
   99OSM   C16F 9968   0.100   0.814   8.655 -0.4215  0.5536  0.7113
   99OSM   H16F 9969  -0.007   0.788   8.645 -0.3276  0.0358  1.0148
   99OSM   H16G 9970   0.146   0.716   8.679  0.1004  0.7663  0.5904
   99OSM   C17F 9971   0.150   0.874   8.524  1.4526  0.4759 -0.7578
   99OSM   H17F 9972   0.260   0.884   8.533  1.5985 -0.7281 -1.1401
   99OSM   H17G 9973   0.101   0.972   8.504 -0.3402 -0.3372 -0.5086
   99OSM   C18F 9974   0.115   0.791   8.398 -0.3180  0.2456  0.4251
   99OSM   H18F 9975   0.145   0.684   8.409  1.3831  0.4204 -1.9304
   99OSM   H18G 9976   0.172   0.817   8.307 -1.4394 -1.1946 -0.7448
   99OSM   H18H 9977   0.006   0.782   8.376 -0.4151 -0.4808  1.1415
  100OSM      N 9978   2.767   0.168  11.032 -0.1009  0.1672  0.3774
  100OSM    C15 9979   2.794   0.193  11.176  0.0881 -0.1466 -0.0264
  100OSM   H15A 9980   2.897   0.221  11.189 -0.3449  1.8286 -0.4119
  100OSM   H15B 9981   2.775   0.102  11.230 -0.8981  0.1489  0.1538
  100OSM   H15C 9982   2.733   0.271  11.221 -1.5680 -0.5320 -1.4993
  100OSM    C14 9983   2.818   0.033  10.996 -0.0771  0.0036 -0.4035
  100OSM   H14A 9984   2.923   0.018  11.014 -0.2993  0.0333  1.0395
  100OSM   H14B 9985   2.785   0.015  10.895  1.0471  2.1217 -1.2127
  100OSM   H14C 9986   2.788  -0.042  11.067  1.4673 -0.2969 -0.0400
  100OSM    C13 9987   2.624   0.172  11.003 -0.1530  0.1600  0.0341
  100OSM   H13A 9988   2.608   0.175  10.896 -2.3344  0.6531  0.3422
  100OSM   H13B 9989   2.568   0.248  11.054  0.6036  1.1741 -0.6173
  100OSM   H13C 9990   2.580   0.079  11.036  0.8311 -0.0132  0.9108
  100OSM    C12 9991   2.838   0.275  10.941 -0.6630  0.2057 -0.1843
  100OSM   H12A 9992   2.940   0.274  10.976 -0.0931 -0.2811 -1.7999
  100OSM   H12B 9993   2.805   0.374  10.971  2.1064  1.9502 -2.4131
  100OSM    C11 9994   2.836   0.276  10.786 -0.5797  0.0793  0.2189
  100OSM   H11A 9995   2.876   0.177  10.757 -3.0102 -0.2442 -2.5199
  100OSM   H11B 9996   2.921   0.336  10.746  0.7764 -0.9500  1.4761
  100OSM      P 9997   2.635   0.436  10.729 -0.3490  0.4507 -0.2494
  100OSM    O13 9998   2.493   0.405  10.739 -0.2173 -0.2918  0.0335
  100OSM    O14 9999   2.687   0.530  10.834 -0.2048  0.1395 -0.0992
  100OSM    O1110000   2.673   0.505  10.590  0.5661  0.4309 -0.1820
  100OSM    O1210001   2.705   0.298  10.740  0.4148  0.1491  0.9105
  100OSM    C1S10002   2.606   0.476  10.465  0.1123  0.6795 -0.1422
  100OSM    H1S10003   2.510   0.531  10.467 -0.0165  0.4592 -0.2936
  100OSM    H1T10004   2.579   0.371  10.443 -2.4755  1.4377 -0.9662
  100OSM     NF10005   2.605   0.537  10.222  0.4293 -0.0023 -0.6195
  100OSM    HNF10006   2.608   0.468  10.151 -0.9734  0.3285 -1.0348
  100OSM    C2S10007   2.693   0.530  10.339  0.0672 -0.0709  0.1826
  100OSM    H2S10008   2.732   0.632  10.362  0.5694  0.2760 -2.0424
  100OSM    C3S10009   2.818   0.439  10.318  0.1122  1.0734  0.2289
  100OSM    H3S10010   2.785   0.334  10.300 -0.4531  0.9404  1.8599
  100OSM     O310011   2.895   0.433  10.435 -0.0407  0.4381  0.1831
  100OSM    HO310012   2.836   0.465  10.504 -0.2862  0.3597  0.0095
  100OSM    C4S10013   2.905   0.488  10.201  0.2433  0.4708 -0.9610
  100OSM    H4S10014   2.905   0.597  10.188  0.5624  0.4908 -0.7911
  100OSM    C5S10015   2.970   0.400  10.125  0.4673  0.3885  0.0509
  100OSM    H5S10016   2.962   0.292  10.144  0.5500  0.3713 -0.0136
  100OSM    C6S10017   3.056   0.437  10.007  0.5353 -0.5263  0.2590
  100OSM    H6S10018   3.160   0.467  10.028 -0.7191  4.5216  0.4751
  100OSM    H6T10019   3.023   0.539   9.979  0.6802 -0.6351 -0.3388
  100OSM    C7S10020   3.038   0.347   9.883 -0.2010 -0.2008 -0.5932
  100OSM    H7S10021   2.942   0.292   9.878  0.4026 -1.2186 -1.5046
  100OSM    H7T10022   3.118   0.270   9.890 -1.3055 -1.3726 -0.5049
  100OSM    C8S10023   3.063   0.415   9.753 -0.0980  0.2253 -0.1436
  100OSM    H8S10024   3.166   0.457   9.750  0.0017  0.6609  4.0554
  100OSM    H8T10025   2.979   0.487   9.744 -0.8678 -0.5231  0.8253
  100OSM    C9S10026   3.038   0.321   9.636 -0.5953 -0.4106  0.6163
  100OSM    H9S10027   2.930   0.296   9.635 -0.3340 -1.6000 -0.3032
  100OSM    H9T10028   3.087   0.223   9.655 -0.4556 -0.5310 -0.3013
  100OSM   C10S10029   3.085   0.378   9.497 -0.1393 -0.4571  0.1218
  100OSM   H10S10030   3.194   0.398   9.487 -0.5735  0.9484 -4.1222
  100OSM   H10T10031   3.022   0.468   9.479  0.0722 -0.1905  0.7136
  100OSM   C11S10032   3.038   0.291   9.379  0.5456  0.0366  0.3418
  100OSM   H11S10033   2.928   0.309   9.377  0.3613 -1.0756 -0.1559
  100OSM   H11T10034   3.050   0.183   9.400 -1.0222  0.0748  1.5837
  100OSM   C12S10035   3.092   0.329   9.245  0.2665 -0.0016  0.1641
  100OSM   H12S10036   3.203   0.322   9.242  0.2717 -1.0083  1.5099
  100OSM   H12T10037   3.062   0.435   9.230 -1.5220 -0.4142  0.5936
  100OSM   C13S10038   3.040   0.261   9.109  0.1071 -0.0978 -0.4965
  100OSM   H13S10039   2.929   0.270   9.113  0.1381  0.1847 -0.2139
  100OSM   H13T10040   3.072   0.155   9.123 -0.8197 -0.2130  1.0494
  100OSM   C14S10041   3.116   0.325   8.985  0.6426  0.6017 -0.4015
  100OSM   H14S10042   3.198   0.397   9.005  0.5542  1.2174 -2.1683
  100OSM   H14T10043   3.037   0.387   8.938  0.5399 -0.0773 -1.1550
  100OSM   C15S10044   3.160   0.224   8.880  0.3345  0.1199 -0.5470
  100OSM   H15S10045   3.085   0.143   8.891  0.2914  0.4769  2.6554
  100OSM   H15T10046   3.254   0.174   8.913 -2.0580 -3.9124  0.8639
  100OSM   C16S10047   3.186   0.289   8.741 -0.0043 -0.1730  0.3915
  100OSM   H16S10048   3.283   0.342   8.748 -0.9388  1.4403  2.5156
  100OSM   H16T10049   3.102   0.361   8.725 -0.1769 -0.5266 -0.3254
  100OSM   C17S10050   3.202   0.193   8.627 -0.1385  0.6465 -0.1069
  100OSM   H17S10051   3.105   0.141   8.618 -0.0615  0.5922 -0.6151
  100OSM   H17T10052   3.283   0.117   8.634 -0.7086 -0.0460 -0.7912
  100OSM   C18S10053   3.223   0.281   8.499 -0.6147 -0.2028  0.1791
  100OSM   H18S10054   3.222   0.211   8.412 -1.2172 -0.9697  0.7796
  100OSM   H18T10055   3.317   0.340   8.504 -0.5029 -0.4811  2.1153
  100OSM   H18U10056   3.136   0.347   8.477  2.1245  2.7420 -2.8287
  100OSM    C1F10057   2.510   0.632  10.209  0.3309  0.4631  1.0474
  100OSM     OF10058   2.496   0.728  10.281 -1.4661  0.3316  0.2503
  100OSM    C2F10059   2.418   0.604  10.097  0.8230  0.4222 -0.6846
  100OSM    H2F10060   2.362   0.516  10.136  1.3595 -0.0216 -0.8838
  100OSM    H2G10061   2.473   0.581  10.003  0.1323  1.9564 -1.5057
  100OSM    C3F10062   2.329   0.721  10.052  0.2872  0.5518  0.1643
  100OSM    H3F10063   2.386   0.813  10.027 -0.7290  1.7932  2.1466
  100OSM    H3G10064   2.253   0.745  10.129 -0.2656 -0.2188 -0.1214
  100OSM    C4F10065   2.252   0.679   9.923 -0.7624 -0.2220  0.1802
  100OSM    H4F10066   2.162   0.744   9.913 -0.8802 -0.4025  0.0722
  100OSM    H4G10067   2.224   0.571   9.926  2.1354 -1.0440  1.9923
  100OSM    C5F10068   2.331   0.694   9.787 -0.0567  0.1723  1.0664
  100OSM    H5F10069   2.403   0.609   9.786  0.9360  0.9986  1.0378
  100OSM    H5G10070   2.378   0.794   9.783  1.0055 -0.2664  1.7878
  100OSM    C6F10071   2.236   0.665   9.674 -0.5647 -0.1718  0.3600
  100OSM    H6F10072   2.163   0.749   9.677  0.2895  0.6050 -0.0762
  100OSM    H6G10073   2.188   0.567   9.693 -0.2208 -0.3575  0.2782
  100OSM    C7F10074   2.315   0.658   9.546 -0.2611 -0.2307 -0.3875
  100OSM    H7F10075   2.354   0.555   9.533 -0.4563 -0.0812 -2.4640
  100OSM    H7G10076   2.406   0.719   9.563 -0.7723  0.2523  0.6809
  100OSM    C8F10077   2.244   0.698   9.419 -0.4328  0.0305  0.6595
  100OSM    H8F10078   2.318   0.727   9.341  1.5289 -1.5423  1.8723
  100OSM    H8G10079   2.201   0.797   9.448  0.7193  0.5864  0.5230
  100OSM    C9F10080   2.140   0.595   9.369  0.6229 -0.1905  0.1799
  100OSM    H9F10081   2.037   0.616   9.402  0.9683  0.0759  1.1159
  100OSM   C10F10082   2.162   0.482   9.299  0.4705 -0.0190 -0.5768
  100OSM   H10F10083   2.090   0.399   9.300 -0.6510  0.8336  2.6173
  100OSM   C11F10084   2.298   0.445   9.241  1.0460 -0.2368 -0.2534
  100OSM   H11F10085   2.332   0.345   9.272 -0.1461 -1.6935 -3.2283
  100OSM   H11G10086   2.371   0.519   9.281  0.2153  0.3988  0.1289
  100OSM   C12F10087   2.306   0.468   9.088 -0.2749 -0.4701  0.0782
  100OSM   H12F10088   2.412   0.453   9.058 -0.2600 -1.1772  0.4566
  100OSM   H12G10089   2.281   0.572   9.060  1.2327  0.2090  1.1089
  100OSM   C13F10090   2.219   0.370   9.022 -0.6347  0.0021 -0.0304
  100OSM   H13F10091   2.121   0.367   9.075 -1.0351  2.2078 -0.5489
  100OSM   H13G10092   2.252   0.264   9.033 -1.7532 -0.2851  0.7269
  100OSM   C14F10093   2.199   0.409   8.873 -0.1218 -0.6066 -0.0794
  100OSM   H14F10094   2.296   0.395   8.822  0.9238  2.5674  0.8307
  100OSM   H14G10095   2.175   0.517   8.864 -2.3684 -1.1029 -0.7163
  100OSM   C15F10096   2.097   0.330   8.796 -0.5844 -0.3970  0.1285
  100OSM   H15F10097   2.118   0.363   8.692 -1.6864  1.2242  0.3900
  100OSM   H15G10098   1.991   0.349   8.824 -1.1201  0.4301 -2.2575
  100OSM   C16F10099   2.129   0.182   8.790 -0.4146  0.4350  0.3202
  100OSM   H16F10100   2.095   0.125   8.878  0.6099 -1.1639 -0.2831
  100OSM   H16G10101   2.238   0.160   8.780 -0.1440  2.2711 -1.4748
  100OSM   C17F10102   2.065   0.120   8.665  0.2743 -0.1710 -0.1613
  100OSM   H17F10103   2.091   0.166   8.567  1.4029 -1.6588 -0.6120
  100OSM   H17G10104   1.956   0.139   8.674  0.5083  0.7555  1.0571
  100OSM   C18F10105   2.089  -0.035   8.665  0.2584 -0.6113  0.4067
  100OSM   H18F10106   2.047  -0.075   8.570 -2.1848 -0.1130  1.2263
  100OSM   H18G10107   2.046  -0.077   8.758  0.2469  2.3402  1.8519
  100OSM   H18H10108   2.196  -0.063   8.678  0.0787 -2.4024 -1.4124
  101OSM      N10109   5.280   0.700  10.954 -0.4557  0.6856  0.0972
  101OSM    C1510110   5.398   0.793  10.954 -0.6531 -0.5037  0.5283
  101OSM   H15A10111   5.396   0.844  11.049  2.2286  0.7577  0.0287
  101OSM   H15B10112   5.404   0.869  10.878  1.1563 -0.6671  0.4603
  101OSM   H15C10113   5.488   0.732  10.956  0.6564  1.3509  1.5999
  101OSM    C1410114   5.284   0.616  10.832  0.6031 -0.1258 -0.5426
  101OSM   H14A10115   5.291   0.672  10.740 -0.9796  1.2197  0.1314
  101OSM   H14B10116   5.191   0.561  10.829  0.1948  0.5852 -1.0021
  101OSM   H14C10117   5.364   0.544  10.845 -0.5797 -1.3420  0.3212
  101OSM    C1310118   5.299   0.610  11.067  0.4594  0.3894  0.2617
  101OSM   H13A10119   5.373   0.536  11.041  0.3599  1.2519 -2.8262
  101OSM   H13B10120   5.210   0.549  11.078 -0.5320  1.5128 -1.2521
  101OSM   H13C10121   5.329   0.663  11.156  2.6090  0.6263 -0.5506
  101OSM    C1210122   5.142   0.770  10.961  0.2410  0.4517  0.1131
  101OSM   H12A10123   5.136   0.827  11.052  1.8544 -1.3113  1.3883
  101OSM   H12B10124   5.064   0.699  10.983  0.3931 -0.0098 -0.7948
  101OSM    C1110125   5.093   0.852  10.836 -0.4072 -0.3944  0.4121
  101OSM   H11A10126   5.000   0.904  10.867 -0.3375  0.5608 -0.8822
  101OSM   H11B10127   5.085   0.801  10.738 -0.9178 -1.8255  1.1642
  101OSM      P10128   5.191   1.093  10.878 -0.0285 -0.8882  0.1689
  101OSM    O1310129   5.173   1.085  11.021 -0.7820 -0.3318 -0.0783
  101OSM    O1410130   5.319   1.152  10.828 -0.5846  0.0754  0.3112
  101OSM    O1110131   5.060   1.166  10.812 -0.6219 -0.0834 -0.5898
  101OSM    O1210132   5.184   0.954  10.806  0.2019  0.9312 -0.0103
  101OSM    C1S10133   5.089   1.212  10.674 -0.0569  0.0916 -0.1992
  101OSM    H1S10134   5.175   1.164  10.622 -0.5132 -0.3811 -0.5301
  101OSM    H1T10135   5.119   1.318  10.684 -0.9011  0.2674  0.6559
  101OSM     NF10136   4.982   1.229  10.449 -0.2006 -0.1043 -0.0337
  101OSM    HNF10137   4.959   1.321  10.419 -1.1214 -0.9713 -2.1501
  101OSM    C2S10138   4.961   1.190  10.590  1.0036  0.4593  0.3989
  101OSM    H2S10139   4.933   1.083  10.593  2.0225  0.1015 -1.6908
  101OSM    C3S10140   4.832   1.269  10.656 -0.3794  0.3459  0.1038
  101OSM    H3S10141   4.858   1.376  10.657 -1.0449  0.5137  1.2477
  101OSM     O310142   4.812   1.238  10.791  0.2254  0.2113 -0.3291
  101OSM    HO310143   4.889   1.184  10.810 -0.8522 -0.6420  1.7616
  101OSM    C4S10144   4.711   1.244  10.575 -0.7362 -0.9226 -0.6616
  101OSM    H4S10145   4.706   1.315  10.491  0.2205 -0.0691 -0.0162
  101OSM    C5S10146   4.611   1.157  10.594  0.3778  0.0715 -0.1787
  101OSM    H5S10147   4.622   1.092  10.681  2.2567 -0.3457 -0.6849
  101OSM    C6S10148   4.492   1.125  10.515  0.2669 -0.0939 -0.5111
  101OSM    H6S10149   4.408   1.172  10.570 -0.8429 -2.1199 -0.3857
  101OSM    H6T10150   4.472   1.016  10.510 -0.5552  0.0051  0.4262
  101OSM    C7S10151   4.496   1.176  10.369 -0.3310 -0.5912 -0.9037
  101OSM    H7S10152   4.581   1.132  10.313 -1.5562 -2.1535 -1.6064
  101OSM    H7T10153   4.508   1.287  10.362 -3.5089 -0.1608 -0.9522
  101OSM    C8S10154   4.379   1.123  10.293  0.3996  0.1100  0.1022
  101OSM    H8S10155   4.298   1.195  10.316  1.1188  0.8709  0.3332
  101OSM    H8T10156   4.366   1.021  10.335  1.9079 -0.0868  0.1576
  101OSM    C9S10157   4.402   1.139  10.143  0.2569  0.2242  0.5651
  101OSM    H9S10158   4.499   1.093  10.114  0.2681  0.6603 -0.1160
  101OSM    H9T10159   4.406   1.249  10.129 -1.2491  0.2199 -0.1037
  101OSM   C10S10160   4.294   1.069  10.060  0.1726 -0.1249 -0.6038
  101OSM   H10S10161   4.190   1.107  10.071 -0.1160 -1.5245  3.1053
  101OSM   H10T10162   4.277   0.968  10.103 -0.4076  1.4007  3.1791
  101OSM   C11S10163   4.329   1.079   9.908 -0.0709  0.3505  0.0470
  101OSM   H11S10164   4.440   1.073   9.897  0.0153  2.7964 -0.9503
  101OSM   H11T10165   4.309   1.183   9.876 -1.2575  0.3926  0.8994
  101OSM   C12S10166   4.246   0.983   9.810 -0.1118 -0.6499 -0.9484
  101OSM   H12S10167   4.141   1.017   9.813  1.1187  3.6179 -0.6214
  101OSM   H12T10168   4.242   0.879   9.850 -1.1151  0.2047  1.3650
  101OSM   C13S10169   4.304   0.995   9.668  0.3951  0.3658 -0.7197
  101OSM   H13S10170   4.395   0.931   9.673 -0.7002 -1.1404  1.9562
  101OSM   H13T10171   4.326   1.103   9.652  0.9764  0.7014  1.8255
  101OSM   C14S10172   4.210   0.936   9.564 -0.2489 -0.8372  0.4115
  101OSM   H14S10173   4.120   1.000   9.564  0.3126  0.1560 -2.9480
  101OSM   H14T10174   4.184   0.833   9.596 -0.8618 -0.4998  1.0119
  101OSM   C15S10175   4.272   0.932   9.420  0.5580  0.6064 -0.1650
  101OSM   H15S10176   4.366   0.875   9.411  1.6367  2.3991 -0.7507
  101OSM   H15T10177   4.298   1.027   9.369  2.0167 -1.0637 -2.7276
  101OSM   C16S10178   4.168   0.874   9.321 -0.1185  0.2662  0.7186
  101OSM   H16S10179   4.082   0.944   9.314 -0.0813  0.3330  0.9373
  101OSM   H16T10180   4.140   0.771   9.351 -0.0864 -0.3097 -1.0612
  101OSM   C17S10181   4.225   0.855   9.182 -0.0914  0.0868  0.3072
  101OSM   H17S10182   4.317   0.795   9.193 -0.3387 -0.3055  0.2847
  101OSM   H17T10183   4.266   0.948   9.138  0.2385 -0.2416 -0.0836
  101OSM   C18S10184   4.136   0.801   9.075 -0.8087  0.0273 -0.0753
  101OSM   H18S10185   4.192   0.772   8.983  0.9657  0.8388  0.6978
  101OSM   H18T10186   4.054   0.872   9.055 -3.4181 -2.2824  1.6168
  101OSM   H18U10187   4.083   0.711   9.112 -1.5907 -0.6278 -2.6014
  101OSM    C1F10188   5.062   1.158  10.376 -0.2219  0.5667  0.4587
  101OSM     OF10189   5.107   1.054  10.423 -0.0404  0.0446 -0.1582
  101OSM    C2F10190   5.115   1.209  10.251  0.1763  0.4581  0.0636
  101OSM    H2F10191   5.214   1.255  10.269  0.1463 -0.1200  1.8682
  101OSM    H2G10192   5.054   1.290  10.206 -1.5401 -0.3989  0.7559
  101OSM    C3F10193   5.124   1.092  10.151  0.7213 -0.0109 -0.8711
  101OSM    H3F10194   5.026   1.040  10.147  0.6818  0.0439 -0.5888
  101OSM    H3G10195   5.207   1.029  10.189  0.4695 -1.3476 -2.4369
  101OSM    C4F10196   5.161   1.157  10.015 -0.0799 -0.1367 -0.8844
  101OSM    H4F10197   5.235   1.238  10.034 -0.8124  0.4825 -0.6396
  101OSM    H4G10198   5.076   1.212   9.968  2.2023  0.6404 -4.5857
  101OSM    C5F10199   5.211   1.059   9.908 -0.6514 -0.0397 -0.2706
  101OSM    H5F10200   5.133   0.980   9.912 -1.3998  0.5380 -2.1952
  101OSM    H5G10201   5.306   1.008   9.933  1.2175  2.3299 -2.0554
  101OSM    C6F10202   5.213   1.126   9.768  0.6351 -0.3870 -0.1941
  101OSM    H6F10203   5.128   1.195   9.751  1.8882  1.3213  0.1212
  101OSM    H6G10204   5.308   1.181   9.751  1.9414 -1.9137  1.7720
  101OSM    C7F10205   5.224   1.017   9.647 -0.2045  0.4422 -0.9210
  101OSM    H7F10206   5.139   0.946   9.657 -0.8495  1.2124 -0.8284
  101OSM    H7G10207   5.318   0.957   9.644  1.0224  2.3094 -0.9934
  101OSM    C8F10208   5.223   1.094   9.513  0.4083 -0.6069 -0.4554
  101OSM    H8F10209   5.300   1.172   9.533 -1.3851  0.4836  2.9295
  101OSM    H8G10210   5.129   1.149   9.493  1.5102  1.1560 -1.0802
  101OSM    C9F10211   5.254   1.010   9.388 -0.2405 -0.0989  0.2124
  101OSM    H9F10212   5.297   0.910   9.402  1.1743  0.6246  1.3728
  101OSM   C10F10213   5.256   1.044   9.261  0.0482 -0.6164  0.6370
  101OSM   H10F10214   5.297   0.971   9.190  0.8644 -1.9707  2.4412
  101OSM   C11F10215   5.226   1.185   9.223 -0.8294 -1.0026  0.2773
  101OSM   H11F10216   5.308   1.253   9.255 -0.6509  2.1194 -5.5214
  101OSM   H11G10217   5.129   1.218   9.266 -0.7665  0.1134 -0.3957
  101OSM   C12F10218   5.210   1.204   9.074  0.6536 -0.1787 -0.2147
  101OSM   H12F10219   5.136   1.132   9.034  0.7888 -1.5271  1.8405
  101OSM   H12G10220   5.309   1.189   9.025  2.2716 -0.8773  3.0303
  101OSM   C13F10221   5.162   1.348   9.031  0.5362 -0.7189  1.7864
  101OSM   H13F10222   5.224   1.424   9.084 -0.9650  0.3420  2.0847
  101OSM   H13G10223   5.055   1.374   9.048  0.7198  0.8106  0.8333
  101OSM   C14F10224   5.183   1.372   8.876  0.3107  0.3861 -0.0315
  101OSM   H14F10225   5.091   1.341   8.823 -1.9157  3.8833  1.4346
  101OSM   H14G10226   5.272   1.313   8.842  0.5574  1.3547 -1.1025
  101OSM   C15F10227   5.198   1.516   8.835  0.7243 -0.2651 -0.3511
  101OSM   H15F10228   5.250   1.513   8.736  0.2134  0.0596 -0.6358
  101OSM   H15G10229   5.253   1.572   8.913 -0.1462 -2.4479  1.9699
  101OSM   C16F10230   5.060   1.589   8.823 -0.2671  0.0746  0.0522
  101OSM   H16F10231   5.000   1.568   8.913  1.7989 -0.3706  1.3950
  101OSM   H16G10232   5.012   1.539   8.736 -0.7109 -2.8486  1.8823
  101OSM   C17F10233   5.072   1.739   8.804  0.8494 -0.9035 -0.4031
  101OSM   H17F10234   5.119   1.765   8.707 -0.6877  2.6511 -0.3685
  101OSM   H17G10235   5.139   1.781   8.882  0.5248  0.8964 -1.0598
  101OSM   C18F10236   4.929   1.804   8.822  0.1744 -0.0970  0.2054
  101OSM   H18F10237   4.946   1.901   8.873  1.3659 -0.3915  0.4051
  101OSM   H18G10238   4.858   1.742   8.879  1.9971 -2.1895  0.3356
  101OSM   H18H10239   4.886   1.839   8.726  2.7752  2.4555 -0.1717
  102OSM      N10240   0.739   2.686  10.634 -0.4186 -0.5234  0.4852
  102OSM    C1510241   0.630   2.787  10.637  0.4822 -0.2561  0.4587
  102OSM   H15A10242   0.645   2.862  10.714 -1.5605  0.6816  0.0097
  102OSM   H15B10243   0.532   2.742  10.639  0.7759 -0.9887 -0.9166
  102OSM   H15C10244   0.626   2.849  10.549  0.1511 -1.4001 -0.3509
  102OSM    C1410245   0.754   2.632  10.490 -0.9615 -0.2110  0.4161
  102OSM   H14A10246   0.778   2.711  10.421 -0.8543 -0.8494 -0.2843
  102OSM   H14B10247   0.654   2.597  10.470 -2.6974  3.1448  2.2871
  102OSM   H14C10248   0.833   2.559  10.478 -0.2237  0.2074  2.2570
  102OSM    C1310249   0.869   2.758  10.664 -0.8065 -0.3807 -0.0501
  102OSM   H13A10250   0.877   2.846  10.602 -2.2111 -0.0193  0.2551
  102OSM   H13B10251   0.950   2.685  10.665 -2.0775 -1.8332  0.6453
  102OSM   H13C10252   0.854   2.804  10.760 -1.6856  2.9027 -1.6315
  102OSM    C1210253   0.727   2.574  10.729 -0.6756 -0.6000 -0.0194
  102OSM   H12A10254   0.725   2.605  10.833 -0.1564 -1.7371  0.3475
  102OSM   H12B10255   0.817   2.517  10.716 -0.9901 -0.6372 -2.5225
  102OSM    C1110256   0.612   2.472  10.709  0.1836 -0.3275 -0.1021
  102OSM   H11A10257   0.615   2.395  10.789  0.5723  1.1148  1.3265
  102OSM   H11B10258   0.645   2.415  10.619 -0.7968 -2.0884  0.6045
  102OSM      P10259   0.382   2.505  10.594 -0.5231  0.3346  0.1169
  102OSM    O1310260   0.327   2.368  10.628 -0.0356 -0.5288  0.3547
  102OSM    O1410261   0.283   2.621  10.596 -0.2751  0.4769  0.2515
  102OSM    O1110262   0.458   2.509  10.453 -0.0999  0.1602  0.0068
  102OSM    O1210263   0.489   2.542  10.701  0.1416  0.1271 -0.6842
  102OSM    C1S10264   0.385   2.560  10.347 -0.3287  0.2618 -0.0811
  102OSM    H1S10265   0.341   2.660  10.367  2.0581  1.3350  0.1050
  102OSM    H1T10266   0.298   2.493  10.329  0.2527 -0.9972  1.5323
  102OSM     NF10267   0.397   2.626  10.109  0.6382 -0.3000 -0.0308
  102OSM    HNF10268   0.354   2.575  10.035 -1.3362 -1.0873  1.5748
  102OSM    C2S10269   0.469   2.556  10.212 -0.3398  0.3749 -0.4462
  102OSM    H2S10270   0.563   2.613  10.225  0.5035 -1.4119  2.1047
  102OSM    C3S10271   0.517   2.411  10.183  0.4241  0.6207  0.3069
  102OSM    H3S10272   0.429   2.345  10.166  0.6057  0.5679 -0.4543
  102OSM     O310273   0.587   2.349  10.287  0.0996 -0.1071 -0.3045
  102OSM    HO310274   0.564   2.393  10.369  2.5878 -0.4790  0.6793
  102OSM    C4S10275   0.592   2.408  10.053 -0.6737  0.0581 -0.0791
  102OSM    H4S10276   0.532   2.433   9.964 -0.8597 -0.9441 -0.2424
  102OSM    C5S10277   0.723   2.386  10.038 -0.0433 -0.2005 -0.0968
  102OSM    H5S10278   0.785   2.369  10.127  2.5038 -1.4772 -1.9616
  102OSM    C6S10279   0.815   2.381   9.912  0.0152 -0.0963  0.0401
  102OSM    H6S10280   0.894   2.303   9.924  1.0204  0.6376 -1.4957
  102OSM    H6T10281   0.871   2.473   9.886  1.9315 -0.4230  2.6348
  102OSM    C7S10282   0.740   2.353   9.782  0.3497  0.1322  0.2393
  102OSM    H7S10283   0.652   2.419   9.770 -0.1873 -0.0772  2.5645
  102OSM    H7T10284   0.711   2.246   9.773 -1.2832  0.7213 -3.0137
  102OSM    C8S10285   0.825   2.369   9.655 -0.7427 -0.0496 -0.0040
  102OSM    H8S10286   0.914   2.301   9.654  0.2868  1.2281 -1.8507
  102OSM    H8T10287   0.852   2.475   9.636 -0.3514 -0.5925 -2.9791
  102OSM    C9S10288   0.749   2.325   9.527  0.0557  0.7323  0.3779
  102OSM    H9S10289   0.744   2.214   9.524 -1.8756  0.8083 -0.4238
  102OSM    H9T10290   0.818   2.354   9.444  0.6073 -0.1059  0.5306
  102OSM   C10S10291   0.620   2.396   9.506  1.3199 -0.5087 -0.2800
  102OSM   H10S10292   0.618   2.505   9.528 -2.1658 -0.0735 -2.0384
  102OSM   H10T10293   0.548   2.364   9.584 -1.8594  1.0631 -2.3555
  102OSM   C11S10294   0.546   2.351   9.383 -0.0345  1.2237  0.2835
  102OSM   H11S10295   0.449   2.406   9.386 -1.1875 -0.6442 -0.7905
  102OSM   H11T10296   0.513   2.245   9.385 -1.2124  1.5650  2.3651
  102OSM   C12S10297   0.618   2.382   9.244  0.3105 -0.1594  0.3752
  102OSM   H12S10298   0.719   2.339   9.228  0.7520  0.8139  0.4407
  102OSM   H12T10299   0.638   2.491   9.257  0.3230  0.0002 -0.9052
  102OSM   C13S10300   0.536   2.368   9.114  0.7870  0.4230 -0.2814
  102OSM   H13S10301   0.549   2.265   9.075 -1.8436 -0.3718  0.7110
  102OSM   H13T10302   0.576   2.445   9.045  1.3072  1.1916  0.8420
  102OSM   C14S10303   0.382   2.378   9.125  0.0082  0.7925 -0.6400
  102OSM   H14S10304   0.363   2.467   9.188  1.5105 -0.6635  2.0644
  102OSM   H14T10305   0.342   2.293   9.186  2.7390  0.1398  0.3890
  102OSM   C15S10306   0.296   2.383   8.995 -0.0843  0.1392  0.8425
  102OSM   H15S10307   0.326   2.475   8.940  1.1816  0.8765  2.6462
  102OSM   H15T10308   0.189   2.402   9.014  0.1420  0.8839  1.4241
  102OSM   C16S10309   0.315   2.258   8.907 -0.7672 -0.2532 -0.1138
  102OSM   H16S10310   0.298   2.160   8.958  0.2958 -0.9434 -1.0294
  102OSM   H16T10311   0.423   2.264   8.882 -0.2310 -0.4173  2.0103
  102OSM   C17S10312   0.228   2.252   8.778 -0.2206 -0.1863  0.5563
  102OSM   H17S10313   0.239   2.349   8.726 -2.3550  0.6124  1.4820
  102OSM   H17T10314   0.121   2.242   8.807 -0.8535  1.9492 -0.8171
  102OSM   C18S10315   0.277   2.142   8.690 -0.6064  0.4841 -0.3792
  102OSM   H18S10316   0.219   2.140   8.595 -2.1984 -0.2350  0.5787
  102OSM   H18T10317   0.282   2.042   8.739  1.7119 -1.0535 -3.3746
  102OSM   H18U10318   0.384   2.163   8.669 -0.2230 -0.2279  0.8179
  102OSM    C1F10319   0.377   2.758  10.114 -0.3220  0.1466  0.1906
  102OSM     OF10320   0.435   2.821  10.200  0.2760 -0.0374 -0.2598
  102OSM    C2F10321   0.274   2.813  10.009 -0.7137 -0.3004 -0.3938
  102OSM    H2F10322   0.213   2.888  10.062 -0.0288  0.1561 -0.2375
  102OSM    H2G10323   0.201   2.736   9.976  0.5875 -1.6876 -0.1496
  102OSM    C3F10324   0.343   2.884   9.887 -0.6479 -0.6197 -0.1147
  102OSM    H3F10325   0.409   2.962   9.929 -0.7407  0.6312 -2.1698
  102OSM    H3G10326   0.276   2.937   9.816 -1.2137 -2.0832 -0.7260
  102OSM    C4F10327   0.426   2.788   9.805 -0.3778  0.1940 -0.1192
  102OSM    H4F10328   0.365   2.699   9.778 -5.1641  2.9492  0.4764
  102OSM    H4G10329   0.509   2.755   9.871  0.9353  1.9326 -0.8199
  102OSM    C5F10330   0.494   2.863   9.688 -0.1402 -0.3231 -0.1581
  102OSM    H5F10331   0.573   2.805   9.636 -0.5670 -0.8841 -0.1998
  102OSM    H5G10332   0.542   2.954   9.730  0.4225  0.8436 -3.1092
  102OSM    C6F10333   0.403   2.893   9.571  0.1558 -0.4153  0.0567
  102OSM    H6F10334   0.329   2.971   9.603 -0.0067 -0.3652 -0.4230
  102OSM    H6G10335   0.357   2.793   9.557  0.7259 -0.7401  0.5013
  102OSM    C7F10336   0.477   2.949   9.453 -0.3646 -0.1690  0.1126
  102OSM    H7F10337   0.539   2.862   9.422  0.3173 -0.0126  0.9836
  102OSM    H7G10338   0.540   3.033   9.488 -0.4487  0.2145 -0.6497
  102OSM    C8F10339   0.379   2.988   9.347 -0.7102 -0.5358  0.2784
  102OSM    H8F10340   0.418   3.039   9.256  1.4457 -0.0435  1.4005
  102OSM    H8G10341   0.310   3.063   9.390 -0.9793 -0.4201 -0.3460
  102OSM    C9F10342   0.293   2.870   9.298 -0.1499 -1.0112 -0.6517
  102OSM    H9F10343   0.216   2.832   9.368  0.0397  0.6373  0.5030
  102OSM   C10F10344   0.305   2.815   9.182  0.5859 -0.1726  0.4098
  102OSM   H10F10345   0.234   2.733   9.160 -0.4284  0.4496  1.2620
  102OSM   C11F10346   0.414   2.846   9.077 -0.2132  0.3240  0.3454
  102OSM   H11F10347   0.422   2.957   9.071 -0.3905  0.3173 -0.0977
  102OSM   H11G10348   0.374   2.798   8.985  0.6442 -0.7931  0.5430
  102OSM   C12F10349   0.550   2.783   9.124  0.1366  0.0907 -0.1457
  102OSM   H12F10350   0.540   2.687   9.180  0.8299  0.5163  0.7355
  102OSM   H12G10351   0.604   2.846   9.198  0.3823 -0.2480 -0.0364
  102OSM   C13F10352   0.642   2.760   9.005  0.0233  0.3872 -0.1266
  102OSM   H13F10353   0.646   2.860   8.956 -1.8315  1.5449  1.9476
  102OSM   H13G10354   0.598   2.687   8.934 -0.2848 -0.4038  0.8616
  102OSM   C14F10355   0.782   2.724   9.041 -0.6906  0.4498  0.8880
  102OSM   H14F10356   0.782   2.620   9.081 -0.2372  0.5013  1.0261
  102OSM   H14G10357   0.826   2.798   9.111  0.4853  1.6628 -1.0741
  102OSM   C15F10358   0.880   2.738   8.921 -0.1008  0.8314 -0.1680
  102OSM   H15F10359   0.854   2.839   8.882 -3.1858 -0.1073 -0.8220
  102OSM   H15G10360   0.847   2.679   8.833  0.0102  2.4840 -1.3757
  102OSM   C16F10361   1.022   2.713   8.952 -0.5899 -0.0148 -0.6681
  102OSM   H16F10362   1.059   2.608   8.958 -0.2889  0.0563 -1.1736
  102OSM   H16G10363   1.045   2.760   9.050 -2.0954  0.9760 -0.7587
  102OSM   C17F10364   1.119   2.783   8.850  0.3543 -0.4117 -0.1637
  102OSM   H17F10365   1.201   2.820   8.916  0.3261 -0.2302 -0.2307
  102OSM   H17G10366   1.077   2.878   8.811 -1.2772 -0.6504  0.8987
  102OSM   C18F10367   1.180   2.703   8.737  0.1100  0.1864 -0.4600
  102OSM   H18F10368   1.112   2.638   8.678  0.7160  0.0001 -0.9701
  102OSM   H18G10369   1.256   2.630   8.772  1.1872  1.6769  0.3938
  102OSM   H18H10370   1.231   2.766   8.661 -0.5222  0.7792 -0.3959
  103OSM      N10371   6.079   6.741  11.147 -0.5697  0.5808 -0.2520
  103OSM    C1510372   6.073   6.628  11.243 -0.2100  0.2085  0.1740
  103OSM   H15A10373   6.135   6.552  11.197 -0.0142  0.7485 -0.4701
  103OSM   H15B10374   5.972   6.592  11.256 -0.0491 -1.4800 -2.3857
  103OSM   H15C10375   6.122   6.652  11.336  2.1362  0.9023 -1.1555
  103OSM    C1410376   6.028   6.867  11.211 -0.8422  0.3172 -0.2661
  103OSM   H14A10377   5.928   6.858  11.251 -0.9898 -2.9730 -1.1249
  103OSM   H14B10378   6.023   6.948  11.140 -2.3369  1.1496  0.7320
  103OSM   H14C10379   6.090   6.900  11.293  1.5321  0.0675 -1.8471
  103OSM    C1310380   6.228   6.757  11.121  0.5124 -0.3009  0.3849
  103OSM   H13A10381   6.257   6.859  11.098 -0.0940  0.1725  1.6189
  103OSM   H13B10382   6.265   6.691  11.045 -2.7938 -0.1713 -1.5060
  103OSM   H13C10383   6.284   6.726  11.208  0.9953  3.0280  1.4300
  103OSM    C1210384   6.009   6.716  11.018 -0.4126 -0.0512  0.5380
  103OSM   H12A10385   6.026   6.801  10.953  0.8564 -1.4069 -0.9769
  103OSM   H12B10386   5.902   6.723  11.031 -0.1953  0.3211  2.4850
  103OSM    C1110387   6.050   6.586  10.938 -0.2141 -0.2599 -0.1015
  103OSM   H11A10388   5.978   6.568  10.855 -0.2756 -0.1804 -0.0658
  103OSM   H11B10389   6.039   6.498  11.005  1.4412  0.4071  1.1077
  103OSM      P10390   6.239   6.665  10.779 -0.2437 -0.3774  0.0678
  103OSM    O1310391   6.142   6.781  10.766 -0.7448 -0.3454 -0.2560
  103OSM    O1410392   6.378   6.690  10.824 -0.0528  0.0525 -0.0836
  103OSM    O1110393   6.237   6.595  10.639  0.4185 -0.1775 -0.1017
  103OSM    O1210394   6.179   6.566  10.885  0.0498 -0.1674  0.2080
  103OSM    C1S10395   6.177   6.464  10.620  0.6794  0.1065 -0.5108
  103OSM    H1S10396   6.070   6.469  10.649  1.1749  0.7203  1.3467
  103OSM    H1T10397   6.225   6.388  10.686 -0.7940 -0.7630 -0.4094
  103OSM     NF10398   6.142   6.272  10.471 -0.2563  0.3891 -0.0211
  103OSM    HNF10399   6.197   6.189  10.463 -0.3213  0.1129  1.9281
  103OSM    C2S10400   6.202   6.407  10.481 -0.4293  0.2123 -0.3705
  103OSM    H2S10401   6.155   6.472  10.403 -0.6571  0.5550  0.0469
  103OSM    C3S10402   6.352   6.397  10.445 -0.2964  0.6194 -0.9372
  103OSM    H3S10403   6.395   6.330  10.523 -0.1364 -1.0509 -2.4015
  103OSM     O310404   6.423   6.510  10.473  0.5770  0.3165 -0.5024
  103OSM    HO310405   6.368   6.580  10.508  0.6180  0.1727 -0.1520
  103OSM    C4S10406   6.369   6.339  10.312 -0.0491  1.3549  0.4277
  103OSM    H4S10407   6.369   6.230  10.295 -0.1982  1.5463 -0.8748
  103OSM    C5S10408   6.371   6.416  10.198  1.3569 -0.1840  0.3275
  103OSM    H5S10409   6.377   6.525  10.213  2.4774 -0.2693  0.6383
  103OSM    C6S10410   6.386   6.376  10.051 -0.3352 -0.8923 -0.0797
  103OSM    H6S10411   6.332   6.285  10.017  1.3383 -0.8799 -3.1415
  103OSM    H6T10412   6.496   6.363  10.041 -0.2033 -0.1773  0.4163
  103OSM    C7S10413   6.341   6.501   9.963 -0.0884  0.4446 -0.5884
  103OSM    H7S10414   6.402   6.585  10.004 -0.8522  0.5601  0.3598
  103OSM    H7T10415   6.235   6.528   9.983 -0.5082 -0.5998 -1.3570
  103OSM    C8S10416   6.346   6.460   9.822  0.0270  0.1215  0.6528
  103OSM    H8S10417   6.291   6.366   9.801 -3.9244  2.3626  0.0233
  103OSM    H8T10418   6.455   6.442   9.804  0.0415  0.3098  0.5574
  103OSM    C9S10419   6.299   6.562   9.710  0.3615  0.4894  0.4584
  103OSM    H9S10420   6.367   6.649   9.716  0.2105  0.6596 -0.2481
  103OSM    H9T10421   6.190   6.584   9.725 -0.2161  0.1111 -2.5641
  103OSM   C10S10422   6.295   6.502   9.569 -0.5164  0.6468 -0.3028
  103OSM   H10S10423   6.228   6.416   9.552 -0.1217  0.4606 -0.9575
  103OSM   H10T10424   6.397   6.468   9.542 -0.9413  1.0296 -2.5196
  103OSM   C11S10425   6.244   6.597   9.464  0.4779  0.1597 -0.2365
  103OSM   H11S10426   6.309   6.686   9.450 -1.1772  1.8822  2.1681
  103OSM   H11T10427   6.144   6.620   9.504  0.4520 -0.9285  0.3584
  103OSM   C12S10428   6.212   6.536   9.324  0.0204 -0.1604 -0.1103
  103OSM   H12S10429   6.145   6.449   9.342  0.6141 -0.2054  2.1339
  103OSM   H12T10430   6.301   6.489   9.277  0.0396 -0.3882  0.1529
  103OSM   C13S10431   6.150   6.639   9.232  0.4277 -0.2095  0.1043
  103OSM   H13S10432   6.217   6.726   9.211 -0.3110  0.4288  0.3416
  103OSM   H13T10433   6.050   6.667   9.270  0.0462  0.1264 -1.0846
  103OSM   C14S10434   6.139   6.578   9.083 -0.9942 -0.1431 -0.8846
  103OSM   H14S10435   6.100   6.476   9.103 -0.4524  0.2613  3.3636
  103OSM   H14T10436   6.244   6.586   9.047  0.1000  1.6754  2.2407
  103OSM   C15S10437   6.042   6.655   8.993 -0.0737 -0.5636  0.2643
  103OSM   H15S10438   6.029   6.753   9.042  4.1596  1.1545 -1.5675
  103OSM   H15T10439   5.942   6.606   8.994 -0.6194  0.5218  0.5962
  103OSM   C16S10440   6.103   6.667   8.850  0.0855 -0.2176 -0.0479
  103OSM   H16S10441   6.213   6.677   8.862 -0.1363  0.9449  1.2297
  103OSM   H16T10442   6.071   6.767   8.815 -1.3555  0.3028  2.5115
  103OSM   C17S10443   6.047   6.559   8.753 -0.3428  0.5281 -0.2360
  103OSM   H17S10444   5.939   6.570   8.732 -1.1506 -1.9440  2.0229
  103OSM   H17T10445   6.053   6.461   8.806 -1.2765  0.9150  0.6229
  103OSM   C18S10446   6.123   6.566   8.624  0.2441 -0.3637  1.2799
  103OSM   H18S10447   6.076   6.503   8.545 -3.3224 -1.6081  4.1544
  103OSM   H18T10448   6.233   6.549   8.632  0.7410  0.7866 -1.6170
  103OSM   H18U10449   6.121   6.669   8.580  1.9105 -0.3110  1.2590
  103OSM    C1F10450   6.013   6.255  10.473  0.6400  0.7799  0.1816
  103OSM     OF10451   5.936   6.353  10.487  0.2545  0.4899  0.2989
  103OSM    C2F10452   5.957   6.124  10.477 -0.1418  0.7076  0.2536
  103OSM    H2F10453   5.886   6.133  10.562  1.0107 -1.9774  1.5910
  103OSM    H2G10454   6.030   6.043  10.496 -0.7625 -0.1040 -0.6750
  103OSM    C3F10455   5.873   6.087  10.355 -0.0317  0.0922  0.2650
  103OSM    H3F10456   5.787   6.156  10.340 -0.2853 -0.1119  0.7587
  103OSM    H3G10457   5.836   5.986  10.384  0.0524 -0.2233 -0.6801
  103OSM    C4F10458   5.942   6.094  10.219  0.4932 -0.8874  0.2241
  103OSM    H4F10459   6.041   6.044  10.218  0.4284 -1.0160 -0.6885
  103OSM    H4G10460   5.944   6.203  10.198 -1.8645 -0.5235  1.5049
  103OSM    C5F10461   5.857   6.034  10.101  0.1620 -0.1235  0.2476
  103OSM    H5F10462   5.762   6.091  10.093  0.4744  0.2667 -0.7800
  103OSM    H5G10463   5.845   5.924  10.104  0.8500 -0.2066  0.1641
  103OSM    C6F10464   5.932   6.071   9.965 -0.5825  0.6680 -0.7545
  103OSM    H6F10465   5.920   5.982   9.900 -1.3841  0.1395  0.0753
  103OSM    H6G10466   6.039   6.088   9.988 -1.0235  0.5600  1.6409
  103OSM    C7F10467   5.902   6.195   9.886  0.0152 -0.2836  0.4204
  103OSM    H7F10468   5.893   6.269   9.968  2.1434  0.4208  0.0770
  103OSM    H7G10469   5.802   6.174   9.842  0.4109 -1.0047 -0.1525
  103OSM    C8F10470   6.013   6.241   9.788  0.6808  0.3580  0.8333
  103OSM    H8F10471   6.105   6.253   9.850  0.4863  1.4144  0.9280
  103OSM    H8G10472   5.981   6.341   9.754  1.1525 -0.7801 -3.5665
  103OSM    C9F10473   6.037   6.143   9.678 -0.1606 -0.3142 -0.2604
  103OSM    H9F10474   6.081   6.046   9.706  1.9118 -1.1732 -5.4016
  103OSM   C10F10475   6.016   6.165   9.547 -0.6800  0.6725 -0.0669
  103OSM   H10F10476   6.064   6.103   9.471 -0.5059  1.5618 -0.6966
  103OSM   C11F10477   5.958   6.292   9.496  0.1112  0.0647 -0.2432
  103OSM   H11F10478   6.018   6.383   9.516  0.3831  0.0858 -1.1061
  103OSM   H11G10479   5.861   6.312   9.546  0.9954 -0.4704  1.7918
  103OSM   C12F10480   5.927   6.296   9.348  0.3682 -0.5009  0.3234
  103OSM   H12F10481   6.024   6.284   9.297 -0.5130 -0.1565 -1.4919
  103OSM   H12G10482   5.886   6.397   9.328  0.8874 -0.4374 -0.4459
  103OSM   C13F10483   5.827   6.180   9.309  0.4818 -0.3730  0.6340
  103OSM   H13F10484   5.727   6.191   9.355  0.2021  0.8712 -0.2003
  103OSM   H13G10485   5.872   6.086   9.347  0.9157 -1.3299 -2.0327
  103OSM   C14F10486   5.839   6.173   9.155 -0.2102 -0.6463  0.5761
  103OSM   H14F10487   5.804   6.071   9.127  0.2243 -0.2933 -1.3181
  103OSM   H14G10488   5.942   6.169   9.116 -0.3711 -2.8269  0.2398
  103OSM   C15F10489   5.742   6.279   9.086  0.0225 -0.0975 -0.1597
  103OSM   H15F10490   5.773   6.383   9.110 -1.7521  0.4182  0.0275
  103OSM   H15G10491   5.643   6.266   9.136  0.1939  0.0523  0.2230
  103OSM   C16F10492   5.726   6.261   8.931 -0.0915 -0.1658  0.3736
  103OSM   H16F10493   5.665   6.171   8.907  0.2730 -0.8488  1.8988
  103OSM   H16G10494   5.829   6.243   8.894 -0.6037 -0.8503 -0.7629
  103OSM   C17F10495   5.679   6.388   8.854 -0.3688  0.0883 -0.3094
  103OSM   H17F10496   5.682   6.365   8.745 -0.7221  2.4953 -0.8899
  103OSM   H17G10497   5.746   6.474   8.873  2.0640 -1.1897 -2.4294
  103OSM   C18F10498   5.538   6.419   8.886  0.6412 -0.6641  0.0953
  103OSM   H18F10499   5.497   6.499   8.820  0.7685  1.6677  2.6682
  103OSM   H18G10500   5.524   6.447   8.993 -0.4179 -0.5099 -0.0644
  103OSM   H18H10501   5.487   6.326   8.854  0.3426  0.5864 -3.4936
  104OSM      N10502   1.491   4.999  10.936 -0.6868 -0.4206  0.4948
  104OSM    C1510503   1.561   4.857  10.954 -0.4379  0.1103 -0.2175
  104OSM   H15A10504   1.608   4.857  11.051 -0.0055 -1.2816 -0.4047
  104OSM   H15B10505   1.629   4.832  10.874 -1.3559 -0.2964 -0.8999
  104OSM   H15C10506   1.485   4.780  10.946 -1.6414  1.2296  0.0286
  104OSM    C1410507   1.371   5.006  11.030 -0.0581  0.0271 -0.0964
  104OSM   H14A10508   1.345   5.110  11.034  0.4023  0.1025  2.1781
  104OSM   H14B10509   1.395   4.973  11.130  1.9221 -0.8490 -0.7933
  104OSM   H14C10510   1.284   4.950  11.001 -1.1365  0.9750  1.2143
  104OSM    C1310511   1.594   5.106  10.963 -0.1656 -0.0936  0.1683
  104OSM   H13A10512   1.547   5.204  10.962  2.6244  1.3732  0.9579
  104OSM   H13B10513   1.673   5.088  10.892 -1.6064  1.3925 -1.9530
  104OSM   H13C10514   1.629   5.080  11.062 -1.7311 -2.6632  0.1269
  104OSM    C1210515   1.445   5.009  10.798  0.1812  0.0082  0.1421
  104OSM   H12A10516   1.377   4.927  10.782 -1.7974  1.2267  1.8898
  104OSM   H12B10517   1.536   4.995  10.741 -0.1672 -1.6983 -0.0372
  104OSM    C1110518   1.374   5.138  10.753  0.6272 -0.0459 -0.4304
  104OSM   H11A10519   1.352   5.149  10.645 -1.6084  1.5192  0.1138
  104OSM   H11B10520   1.439   5.224  10.781  0.1348 -0.1541  1.1671
  104OSM      P10521   1.118   5.081  10.792  0.2599  0.0911 -0.0496
  104OSM    O1310522   1.139   4.947  10.841 -1.0077  0.1999 -0.2379
  104OSM    O1410523   1.002   5.150  10.853  0.1126  0.6793 -0.0343
  104OSM    O1110524   1.096   5.075  10.641  0.1833 -0.0192 -0.0559
  104OSM    O1210525   1.247   5.163  10.821  0.4976  0.3402 -0.8027
  104OSM    C1S10526   1.093   5.203  10.567  0.2627  0.6054 -0.3666
  104OSM    H1S10527   1.186   5.263  10.579  0.3346  0.1820  1.3600
  104OSM    H1T10528   1.006   5.265  10.600  0.3936  0.0037  1.1718
  104OSM     NF10529   1.115   5.270  10.319  0.1442 -0.7759 -0.1736
  104OSM    HNF10530   1.063   5.322  10.252 -0.4273 -1.0792  0.0257
  104OSM    C2S10531   1.052   5.179  10.416  0.2901 -0.1699 -0.5018
  104OSM    H2S10532   1.103   5.081  10.403 -0.3684 -0.9043  1.9028
  104OSM    C3S10533   0.900   5.168  10.402 -0.9389  1.0501 -0.3100
  104OSM    H3S10534   0.845   5.264  10.406  3.0354  3.5290 -0.5699
  104OSM     O310535   0.845   5.092  10.508 -0.9068 -0.1884 -0.1087
  104OSM    HO310536   0.924   5.057  10.550 -2.2578 -3.2244  0.1414
  104OSM    C4S10537   0.873   5.096  10.268 -0.9773 -0.2699 -0.3442
  104OSM    H4S10538   0.887   4.988  10.257  1.4974  0.0926 -1.3349
  104OSM    C5S10539   0.824   5.163  10.167 -0.1925 -0.2229  1.7563
  104OSM    H5S10540   0.799   5.270  10.173 -1.4751 -0.2023 -1.7710
  104OSM    C6S10541   0.812   5.101  10.029 -0.3577  0.8771 -0.4681
  104OSM    H6S10542   0.723   5.147   9.981 -1.4304 -2.4482 -2.0438
  104OSM    H6T10543   0.799   4.990  10.027 -0.1015  0.8479 -0.5477
  104OSM    C7S10544   0.942   5.124   9.954  0.2108 -0.1496 -0.3171
  104OSM    H7S10545   1.025   5.082  10.015  0.1378  0.4464  0.2030
  104OSM    H7T10546   0.947   5.232   9.929 -0.9391 -0.6560 -3.2215
  104OSM    C8S10547   0.929   5.055   9.819  0.5384  1.1369  0.3405
  104OSM    H8S10548   0.843   5.092   9.760  0.4295  0.7266  0.2407
  104OSM    H8T10549   0.903   4.950   9.847  3.3418  0.3552  0.3180
  104OSM    C9S10550   1.062   5.047   9.741 -0.0712 -0.5908  0.0026
  104OSM    H9S10551   1.048   4.996   9.643 -1.5200 -1.1392  0.4651
  104OSM    H9T10552   1.143   4.998   9.800 -0.1753 -1.5906 -0.6527
  104OSM   C10S10553   1.105   5.188   9.702  0.4163  0.1418 -0.6215
  104OSM   H10S10554   1.137   5.256   9.784 -0.2471 -0.1942 -0.0781
  104OSM   H10T10555   1.026   5.255   9.661  2.9745  1.2076 -4.2926
  104OSM   C11S10556   1.220   5.181   9.601 -0.1211 -0.5326 -0.8698
  104OSM   H11S10557   1.286   5.095   9.624  1.2241  1.0361  1.5377
  104OSM   H11T10558   1.274   5.278   9.606 -0.6438 -0.0891 -2.8974
  104OSM   C12S10559   1.180   5.163   9.457  0.2862  0.1639 -0.9927
  104OSM   H12S10560   1.089   5.224   9.442  0.3766  1.2564  2.2765
  104OSM   H12T10561   1.155   5.056   9.442 -3.4848  0.3806  2.2510
  104OSM   C13S10562   1.297   5.185   9.359  0.0105 -0.3322  0.6733
  104OSM   H13S10563   1.393   5.146   9.398  0.8638  0.1300 -0.8614
  104OSM   H13T10564   1.316   5.290   9.327 -0.9819  0.2901  2.0358
  104OSM   C14S10565   1.287   5.109   9.222 -0.2759 -0.3277 -0.2511
  104OSM   H14S10566   1.189   5.141   9.179  1.0880  2.4120 -1.5943
  104OSM   H14T10567   1.288   5.000   9.242  2.2767 -0.4053 -0.5220
  104OSM   C15S10568   1.402   5.141   9.132  0.6095  0.5037  0.3207
  104OSM   H15S10569   1.489   5.103   9.189  1.5493  2.8377  0.5536
  104OSM   H15T10570   1.412   5.250   9.115  1.0592  0.4097 -0.0404
  104OSM   C16S10571   1.383   5.078   8.987 -0.0651  0.6468 -0.2415
  104OSM   H16S10572   1.315   5.142   8.928 -1.3060  0.1980  0.6575
  104OSM   H16T10573   1.328   4.982   8.987 -0.6523  0.9419  1.4710
  104OSM   C17S10574   1.525   5.052   8.920 -0.9410  0.3338  0.0023
  104OSM   H17S10575   1.500   4.990   8.831  0.7480 -1.1911  0.5335
  104OSM   H17T10576   1.577   4.979   8.986  2.5693  0.2586 -2.5859
  104OSM   C18S10577   1.582   5.181   8.887  0.2936  0.0560  0.7018
  104OSM   H18S10578   1.498   5.243   8.849 -0.2026  1.2174  3.4494
  104OSM   H18T10579   1.664   5.161   8.814 -0.6804  0.3854 -0.5079
  104OSM   H18U10580   1.632   5.221   8.978  1.1722  1.6557 -0.4319
  104OSM    C1F10581   1.252   5.293  10.317 -0.5294  0.6162 -0.0898
  104OSM     OF10582   1.329   5.218  10.382  0.8867 -0.4716 -0.3695
  104OSM    C2F10583   1.308   5.413  10.250  0.0071 -0.0846 -0.5410
  104OSM    H2F10584   1.359   5.468  10.332  0.0578 -0.0985 -0.5633
  104OSM    H2G10585   1.225   5.473  10.207 -0.3800  0.3763  0.7870
  104OSM    C3F10586   1.415   5.389  10.151  0.8261  0.6268  0.0468
  104OSM    H3F10587   1.503   5.328  10.183 -0.2821 -0.3818  1.2743
  104OSM    H3G10588   1.455   5.488  10.121  0.5368  1.8524  3.3785
  104OSM    C4F10589   1.343   5.318  10.027  0.5033 -0.2731 -0.2617
  104OSM    H4F10590   1.252   5.368   9.988 -0.4503 -2.5442 -1.1048
  104OSM    H4G10591   1.306   5.217  10.057 -5.0948  1.3851 -0.4746
  104OSM    C5F10592   1.446   5.305   9.915  0.4762 -0.4038  0.7015
  104OSM    H5F10593   1.430   5.204   9.872 -0.9650  0.8468 -1.9241
  104OSM    H5G10594   1.549   5.310   9.956  0.8004  0.6808 -0.2220
  104OSM    C6F10595   1.432   5.406   9.801 -0.1784  0.5169 -0.1015
  104OSM    H6F10596   1.468   5.502   9.843  1.4831  0.3249 -0.9944
  104OSM    H6G10597   1.328   5.406   9.760  0.9195 -1.5770 -3.2709
  104OSM    C7F10598   1.522   5.355   9.695  0.2421  0.3817  0.0133
  104OSM    H7F10599   1.502   5.250   9.664  0.4529 -0.0373  1.2638
  104OSM    H7G10600   1.630   5.356   9.721 -0.3114  0.7503  2.4332
  104OSM    C8F10601   1.499   5.439   9.565  0.2493 -0.1943  0.2279
  104OSM    H8F10602   1.547   5.538   9.576  0.0910 -0.0784 -0.1065
  104OSM    H8G10603   1.390   5.452   9.547  0.4789  1.5895  0.0030
  104OSM    C9F10604   1.565   5.364   9.449  0.2091  0.3745 -0.2359
  104OSM    H9F10605   1.614   5.270   9.477  0.4340  0.1502 -1.3526
  104OSM   C10F10606   1.573   5.405   9.318 -0.0313 -0.4879  0.0372
  104OSM   H10F10607   1.637   5.339   9.257  1.9082  0.0646  1.3948
  104OSM   C11F10608   1.508   5.527   9.257  0.1094  0.3215  0.2502
  104OSM   H11F10609   1.496   5.594   9.344  1.4851 -0.8284  1.3725
  104OSM   H11G10610   1.406   5.490   9.232  1.4692 -3.5289 -0.3770
  104OSM   C12F10611   1.593   5.601   9.149 -0.5969 -0.2624 -0.1378
  104OSM   H12F10612   1.698   5.625   9.176 -1.3372  0.0025  2.8971
  104OSM   H12G10613   1.539   5.698   9.145  0.5283  0.4186  0.6801
  104OSM   C13F10614   1.586   5.536   9.012 -0.1252  0.9229  0.2332
  104OSM   H13F10615   1.480   5.548   8.981 -0.0389 -0.3329 -0.6304
  104OSM   H13G10616   1.605   5.427   9.024 -0.5745  0.8075 -0.0584
  104OSM   C14F10617   1.683   5.614   8.914 -0.1701  0.6053  0.4531
  104OSM   H14F10618   1.778   5.631   8.969 -0.2527 -0.8294  1.0758
  104OSM   H14G10619   1.635   5.713   8.894  1.4043  1.6948  1.7805
  104OSM   C15F10620   1.706   5.540   8.784 -0.1889  0.0312 -0.6030
  104OSM   H15F10621   1.726   5.433   8.805  0.2772  0.5940  2.2277
  104OSM   H15G10622   1.807   5.561   8.744  0.0090 -2.5097 -1.6376
  104OSM   C16F10623   1.584   5.546   8.687 -1.4070 -0.4266 -0.5129
  104OSM   H16F10624   1.561   5.646   8.646 -0.7446 -0.3158 -0.6211
  104OSM   H16G10625   1.499   5.508   8.747  0.0389 -0.4681  1.6085
  104OSM   C17F10626   1.601   5.452   8.566 -0.6028  0.0845  0.0709
  104OSM   H17F10627   1.528   5.492   8.493 -0.9651  0.9544  0.8839
  104OSM   H17G10628   1.575   5.351   8.606  0.4691  0.1632  1.0145
  104OSM   C18F10629   1.740   5.456   8.496 -1.0208  0.2395 -0.3040
  104OSM   H18F10630   1.756   5.560   8.460  0.5549  0.0328 -0.2735
  104OSM   H18G10631   1.743   5.387   8.410 -2.0961  2.0810 -1.8927
  104OSM   H18H10632   1.812   5.429   8.576 -0.9732  0.6061 -0.2214
  105OSM      N10633   5.090   2.716  10.806 -0.4243 -0.1525 -0.8823
  105OSM    C1510634   5.019   2.600  10.744  0.2798  0.0833  0.8482
  105OSM   H15A10635   4.935   2.628  10.682  0.9098  0.9713  0.3795
  105OSM   H15B10636   4.997   2.528  10.821 -1.7388  0.6879  0.8875
  105OSM   H15C10637   5.084   2.558  10.668  0.6648  1.3083  0.4875
  105OSM    C1410638   4.978   2.789  10.882  0.5165  0.6980  0.0545
  105OSM   H14A10639   4.920   2.843  10.809  1.3351  0.8308 -0.5151
  105OSM   H14B10640   5.026   2.859  10.949  0.3459 -1.0809  2.1241
  105OSM   H14C10641   4.915   2.719  10.934  2.1109 -0.6331  0.2507
  105OSM    C1310642   5.190   2.663  10.899 -0.0972  0.1250  0.2083
  105OSM   H13A10643   5.147   2.600  10.976  0.6349 -1.3507 -0.5669
  105OSM   H13B10644   5.248   2.747  10.933 -0.6788  0.5748  0.1132
  105OSM   H13C10645   5.239   2.587  10.841  0.2631  0.0654  0.5859
  105OSM    C1210646   5.146   2.802  10.689  0.2183 -0.2954 -0.4712
  105OSM   H12A10647   5.183   2.897  10.724 -1.2592 -0.4985  1.9069
  105OSM   H12B10648   5.063   2.809  10.620 -0.4857  0.2704  0.4150
  105OSM    C1110649   5.262   2.732  10.610 -0.8815 -0.6219 -0.2960
  105OSM   H11A10650   5.293   2.791  10.521  1.0892  0.4833  1.0311
  105OSM   H11B10651   5.221   2.637  10.567 -1.1004 -0.3428 -0.7116
  105OSM      P10652   5.469   2.838  10.729 -0.0007 -0.1680  0.2870
  105OSM    O1310653   5.388   2.920  10.823 -0.5427 -0.4674 -0.3710
  105OSM    O1410654   5.597   2.796  10.790 -0.1364 -0.0573 -0.2526
  105OSM    O1110655   5.493   2.933  10.603  0.1613  0.2456  0.1343
  105OSM    O1210656   5.383   2.715  10.691  0.1177 -0.2014  0.0263
  105OSM    C1S10657   5.573   2.882  10.495 -0.0176  0.1972 -0.3905
  105OSM    H1S10658   5.559   2.773  10.481 -0.9393  0.2603 -0.0434
  105OSM    H1T10659   5.677   2.911  10.522  0.3358  0.1179 -1.6331
  105OSM     NF10660   5.596   2.906  10.239 -0.0530 -0.0345 -0.0244
  105OSM    HNF10661   5.669   2.954  10.192 -0.0907  2.0362  1.8586
  105OSM    C2S10662   5.547   2.968  10.361  0.1152  0.9692 -0.4836
  105OSM    H2S10663   5.436   2.973  10.356  0.1683  0.8303 -3.0109
  105OSM    C3S10664   5.601   3.116  10.388 -0.3662  0.3519 -0.4908
  105OSM    H3S10665   5.710   3.105  10.407 -0.8419 -0.7431  1.9978
  105OSM     O310666   5.545   3.176  10.505 -0.7499  0.6714  0.1349
  105OSM    HO310667   5.519   3.096  10.551  0.6097  0.7477  1.1002
  105OSM    C4S10668   5.571   3.202  10.273  0.2227 -0.3740 -0.1484
  105OSM    H4S10669   5.462   3.204  10.257  0.1733 -1.2275  0.0387
  105OSM    C5S10670   5.652   3.282  10.201  0.6563  0.0117 -0.2478
  105OSM    H5S10671   5.760   3.269  10.222  0.7668  0.2863 -0.6253
  105OSM    C6S10672   5.607   3.369  10.091  0.2844 -0.4825  0.0600
  105OSM    H6S10673   5.644   3.473  10.103 -1.3201  0.0263  0.8972
  105OSM    H6T10674   5.497   3.380  10.100  0.3781  1.2997 -0.4872
  105OSM    C7S10675   5.668   3.309   9.964  0.2316 -0.6878 -0.1840
  105OSM    H7S10676   5.657   3.199   9.969 -1.2022 -0.5236  1.3827
  105OSM    H7T10677   5.777   3.325   9.958  0.5130 -0.2780  3.6444
  105OSM    C8S10678   5.594   3.357   9.838 -0.0054  0.4712  0.1046
  105OSM    H8S10679   5.570   3.466   9.842 -0.2531  0.7304 -4.2772
  105OSM    H8T10680   5.494   3.310   9.828  0.1366  0.1684  0.1048
  105OSM    C9S10681   5.669   3.331   9.704  0.1964  0.7167 -0.4772
  105OSM    H9S10682   5.659   3.221   9.689  0.5369  0.7439 -0.9118
  105OSM    H9T10683   5.774   3.366   9.714  0.1970  1.3316 -2.2828
  105OSM   C10S10684   5.615   3.415   9.581 -0.1897 -0.1429  0.2278
  105OSM   H10S10685   5.629   3.523   9.602  2.4193 -0.8136  2.4869
  105OSM   H10T10686   5.508   3.390   9.568 -0.3071  0.1449  0.6160
  105OSM   C11S10687   5.683   3.371   9.450 -0.3915 -0.4878  0.0989
  105OSM   H11S10688   5.635   3.277   9.416 -2.7198  0.4402  0.6388
  105OSM   H11T10689   5.790   3.352   9.472 -0.0374  0.7054 -0.4940
  105OSM   C12S10690   5.672   3.485   9.346 -1.0003 -1.3372 -0.0720
  105OSM   H12S10691   5.720   3.570   9.400 -1.2738 -1.8928  1.0772
  105OSM   H12T10692   5.564   3.495   9.324 -0.6902  0.7973 -0.9226
  105OSM   C13S10693   5.746   3.440   9.212 -0.4314 -0.0363  0.1018
  105OSM   H13S10694   5.692   3.346   9.187 -0.7606 -0.3141  1.6982
  105OSM   H13T10695   5.856   3.429   9.218 -0.2888  0.9397 -0.5587
  105OSM   C14S10696   5.722   3.538   9.102  0.5273 -0.2210 -0.3301
  105OSM   H14S10697   5.775   3.633   9.124 -0.5309  0.0001  1.5478
  105OSM   H14T10698   5.612   3.556   9.092  0.4026 -0.7671 -0.0143
  105OSM   C15S10699   5.776   3.486   8.974 -0.2893  0.0875  0.4905
  105OSM   H15S10700   5.692   3.440   8.918  0.6951 -1.4456  0.2071
  105OSM   H15T10701   5.855   3.409   8.986  1.5199  1.7697 -0.1182
  105OSM   C16S10702   5.832   3.604   8.888  0.6391  0.4265 -0.2904
  105OSM   H16S10703   5.906   3.664   8.945  0.0041  3.8967 -2.8011
  105OSM   H16T10704   5.747   3.669   8.860 -0.3744 -1.0093 -0.6651
  105OSM   C17S10705   5.904   3.556   8.762  0.7737  0.7914 -0.1441
  105OSM   H17S10706   5.825   3.534   8.687 -1.6919  0.6896  2.2753
  105OSM   H17T10707   5.972   3.471   8.785 -0.9453 -1.2627 -2.1440
  105OSM   C18S10708   5.971   3.674   8.697 -0.1912 -0.5101 -0.8012
  105OSM   H18S10709   5.910   3.765   8.682 -2.2873 -1.7124  0.0204
  105OSM   H18T10710   6.024   3.654   8.601  1.8693  0.2077  0.1266
  105OSM   H18U10711   6.054   3.705   8.764 -0.3302 -0.4910 -0.6389
  105OSM    C1F10712   5.556   2.792  10.182  0.3384  0.2092 -0.2224
  105OSM     OF10713   5.459   2.733  10.223  0.3208 -0.2656  0.0614
  105OSM    C2F10714   5.631   2.750  10.054 -0.2464 -0.4615 -0.7267
  105OSM    H2F10715   5.724   2.699  10.086  0.0021  0.2092 -0.3690
  105OSM    H2G10716   5.641   2.847  10.000 -2.8484 -0.7058 -1.8084
  105OSM    C3F10717   5.564   2.658   9.942 -0.9237 -0.3721 -0.3355
  105OSM    H3F10718   5.456   2.683   9.949 -1.1258 -1.1339 -0.6614
  105OSM    H3G10719   5.585   2.552   9.968  1.5487  0.2428  0.4544
  105OSM    C4F10720   5.621   2.682   9.801  0.4268  0.7686 -0.0007
  105OSM    H4F10721   5.595   2.600   9.730 -5.4285  1.0612  1.2604
  105OSM    H4G10722   5.731   2.692   9.811  0.3908  1.1950 -0.0446
  105OSM    C5F10723   5.565   2.807   9.733  0.6493 -0.1635 -0.2388
  105OSM    H5F10724   5.585   2.888   9.806 -1.8518 -0.2373  0.6202
  105OSM    H5G10725   5.455   2.798   9.721  0.9859 -2.4571 -2.4180
  105OSM    C6F10726   5.623   2.843   9.595 -0.7483 -0.1612 -0.7256
  105OSM    H6F10727   5.546   2.893   9.532  1.3256 -0.6768 -3.9306
  105OSM    H6G10728   5.655   2.749   9.544  0.8223  1.0815 -2.1843
  105OSM    C7F10729   5.745   2.946   9.599 -0.0687  0.2225 -0.6357
  105OSM    H7F10730   5.831   2.901   9.654 -0.6700  0.4246  0.4920
  105OSM    H7G10731   5.717   3.025   9.671 -3.0979 -1.2748  0.0037
  105OSM    C8F10732   5.793   2.978   9.457  0.2107 -0.1743 -0.3985
  105OSM    H8F10733   5.882   3.041   9.475 -1.5104  2.5781 -0.8520
  105OSM    H8G10734   5.717   3.052   9.422 -0.9548 -0.7359  0.8615
  105OSM    C9F10735   5.825   2.870   9.357 -1.0508 -0.0987  0.4396
  105OSM    H9F10736   5.773   2.773   9.363 -3.2516  1.0458  0.9722
  105OSM   C10F10737   5.913   2.886   9.253 -0.9868 -0.4162 -0.4434
  105OSM   H10F10738   5.933   2.798   9.191  0.5158  0.4158 -1.1865
  105OSM   C11F10739   5.987   3.009   9.208  0.1400  0.6039 -0.1270
  105OSM   H11F10740   6.096   2.992   9.196 -0.5029 -3.2961 -1.7921
  105OSM   H11G10741   5.986   3.084   9.290  0.8802 -0.2717  0.7122
  105OSM   C12F10742   5.913   3.083   9.091 -0.1672  0.4219 -0.5181
  105OSM   H12F10743   5.947   3.188   9.095  0.9842  0.0482  0.0942
  105OSM   H12G10744   5.802   3.095   9.091 -0.0591  1.5708  0.5747
  105OSM   C13F10745   5.955   3.023   8.957  0.4032  0.0086 -0.0181
  105OSM   H13F10746   5.911   2.923   8.933  0.6658 -0.2457  0.5395
  105OSM   H13G10747   6.066   3.017   8.956  0.5898  2.1895  1.5906
  105OSM   C14F10748   5.917   3.117   8.842 -0.6754  1.0306 -0.3014
  105OSM   H14F10749   5.951   3.223   8.849  1.5268  0.5185 -2.2892
  105OSM   H14G10750   5.806   3.115   8.836 -0.8912  0.5862  2.4848
  105OSM   C15F10751   5.969   3.063   8.706  0.0471 -0.1345 -0.2284
  105OSM   H15F10752   5.909   2.971   8.691 -0.9225  0.6774 -1.4767
  105OSM   H15G10753   6.079   3.048   8.718  0.0749  0.9365  1.1889
  105OSM   C16F10754   5.937   3.154   8.589 -0.0684  0.7188 -0.1959
  105OSM   H16F10755   5.952   3.087   8.502  0.0009 -1.9277  1.7335
  105OSM   H16G10756   6.017   3.231   8.590 -0.0668  0.7131  0.1077
  105OSM   C17F10757   5.795   3.215   8.577 -0.5312 -0.2718 -0.0128
  105OSM   H17F10758   5.793   3.292   8.497 -4.8674 -0.4961 -0.3872
  105OSM   H17G10759   5.796   3.274   8.670  2.7319  0.0893 -0.1635
  105OSM   C18F10760   5.676   3.113   8.560 -0.1692 -0.4855  0.1432
  105OSM   H18F10761   5.581   3.159   8.594  1.1405  1.8444  0.9575
  105OSM   H18G10762   5.684   3.026   8.628 -2.1073 -1.9854 -1.4496
  105OSM   H18H10763   5.675   3.073   8.457 -1.0767 -1.7263  0.6100
  106OSM      N10764   3.000   0.747  10.812 -0.0948 -0.2483  0.0709
  106OSM    C1510765   3.149   0.757  10.835 -0.0443 -0.8364 -0.4398
  106OSM   H15A10766   3.184   0.860  10.830 -0.3621 -0.2262  4.6042
  106OSM   H15B10767   3.203   0.689  10.772 -0.5811 -2.2518  0.5697
  106OSM   H15C10768   3.174   0.728  10.936  1.3686 -2.2082 -1.1364
  106OSM    C1410769   2.963   0.613  10.862 -0.2103  0.7438  0.3582
  106OSM   H14A10770   2.991   0.601  10.965 -1.5277  0.4528  0.6993
  106OSM   H14B10771   3.015   0.534  10.808 -0.3751 -0.7851  2.3339
  106OSM   H14C10772   2.855   0.606  10.863 -0.1081 -1.3907  1.7820
  106OSM    C1310773   2.939   0.858  10.891 -0.7816  0.2579 -0.5199
  106OSM   H13A10774   2.945   0.842  10.998 -0.5830  0.3024 -0.5252
  106OSM   H13B10775   2.836   0.873  10.862 -1.6437 -1.5419  1.2800
  106OSM   H13C10776   3.000   0.945  10.872 -1.0506  0.1919 -1.7725
  106OSM    C1210777   2.980   0.755  10.661 -0.1309  0.2597  0.5371
  106OSM   H12A10778   3.026   0.674  10.606  1.8474  2.3760 -1.1039
  106OSM   H12B10779   3.032   0.844  10.629 -0.1420  0.9370  2.3157
  106OSM    C1110780   2.833   0.769  10.614 -0.2327 -0.3230  0.0807
  106OSM   H11A10781   2.772   0.698  10.675 -1.5799 -0.5238 -1.4113
  106OSM   H11B10782   2.818   0.737  10.508  0.1586 -0.6292  0.1175
  106OSM      P10783   2.811   1.027  10.555  0.4047  0.3704 -0.0949
  106OSM    O1310784   2.682   1.094  10.538  0.8468 -0.2937  0.1649
  106OSM    O1410785   2.923   1.099  10.619 -0.0389 -0.5881  0.1455
  106OSM    O1110786   2.858   0.962  10.417  0.5204 -0.2112  0.6508
  106OSM    O1210787   2.782   0.899  10.645  0.2229  0.0810  0.0161
  106OSM    C1S10788   2.987   0.950  10.367  0.5775  0.2595  0.0777
  106OSM    H1S10789   3.043   0.875  10.427 -0.5455  0.3907  1.3281
  106OSM    H1T10790   3.032   1.051  10.371  0.5822  0.2226  1.2670
  106OSM     NF10791   3.108   0.895  10.161 -0.4101 -0.3947 -0.0924
  106OSM    HNF10792   3.133   0.977  10.110 -1.3979 -1.7656 -3.0626
  106OSM    C2S10793   2.976   0.897  10.221 -0.5150  0.3482 -0.3197
  106OSM    H2S10794   2.935   0.796  10.239 -2.9140  1.3074  0.0239
  106OSM    C3S10795   2.875   0.983  10.136  0.6239  0.3771  0.9379
  106OSM    H3S10796   2.921   1.079  10.106  1.7167 -0.2423  0.5354
  106OSM     O310797   2.746   1.020  10.190 -0.3739  0.5334 -0.0623
  106OSM    HO310798   2.758   0.994  10.282  0.4790 -1.8184 -0.7559
  106OSM    C4S10799   2.859   0.895  10.007  0.2909 -1.1761 -0.3478
  106OSM    H4S10800   2.931   0.932   9.933  0.3771  0.4853  0.5172
  106OSM    C5S10801   2.767   0.801   9.994  1.2379  0.7466 -0.0837
  106OSM    H5S10802   2.702   0.771  10.077 -2.0024  0.9236 -2.3557
  106OSM    C6S10803   2.753   0.710   9.876  0.1012 -0.1583 -0.1515
  106OSM    H6S10804   2.663   0.644   9.876  1.9967 -2.8899  0.5547
  106OSM    H6T10805   2.831   0.634   9.896  0.2524 -0.0325 -0.2650
  106OSM    C7S10806   2.769   0.772   9.740  0.1555 -0.2381  0.1192
  106OSM    H7S10807   2.869   0.819   9.729  0.4173 -0.7292  0.3750
  106OSM    H7T10808   2.692   0.853   9.742 -1.1873 -1.4683 -0.2573
  106OSM    C8S10809   2.744   0.666   9.640 -0.4534  0.0012  0.3540
  106OSM    H8S10810   2.642   0.625   9.659 -1.2045  1.1266 -1.0232
  106OSM    H8T10811   2.800   0.570   9.639 -0.8002 -0.3019 -2.8614
  106OSM    C9S10812   2.736   0.723   9.500  0.5619 -0.4002  0.4749
  106OSM    H9S10813   2.803   0.809   9.479  1.0468 -1.2235 -1.5204
  106OSM    H9T10814   2.634   0.764   9.485  0.4394 -1.2790 -1.2923
  106OSM   C10S10815   2.748   0.625   9.393 -0.2991 -0.5004 -0.3675
  106OSM   H10S10816   2.653   0.568   9.384 -1.3440  0.9579  0.8720
  106OSM   H10T10817   2.829   0.551   9.412  1.2461  0.8242 -1.4365
  106OSM   C11S10818   2.786   0.693   9.263 -0.3652 -0.7076  0.3336
  106OSM   H11S10819   2.889   0.734   9.268 -0.9564  1.2324 -1.7761
  106OSM   H11T10820   2.712   0.774   9.246  1.3937  1.0049  0.5326
  106OSM   C12S10821   2.781   0.585   9.151 -0.0808  0.3594 -0.6054
  106OSM   H12S10822   2.686   0.527   9.149  0.2725 -0.2193 -2.9080
  106OSM   H12T10823   2.865   0.513   9.164  0.5538  1.4390  1.8482
  106OSM   C13S10824   2.790   0.662   9.017 -0.1971  0.3609  0.0689
  106OSM   H13S10825   2.894   0.700   9.021  0.1454 -0.3783 -1.2048
  106OSM   H13T10826   2.710   0.739   9.025 -0.9684 -0.6257  3.4587
  106OSM   C14S10827   2.771   0.569   8.891  0.2467 -0.5487 -0.7078
  106OSM   H14S10828   2.844   0.491   8.921 -0.4848 -1.2874 -0.8196
  106OSM   H14T10829   2.805   0.624   8.801 -1.2355 -1.3131 -1.7748
  106OSM   C15S10830   2.624   0.527   8.860  0.7368  0.2359  0.0163
  106OSM   H15S10831   2.575   0.605   8.798  0.4028 -0.8629 -1.1352
  106OSM   H15T10832   2.576   0.529   8.960  1.6875  0.8864  0.4802
  106OSM   C16S10833   2.631   0.389   8.794  0.1642  0.8064  0.5239
  106OSM   H16S10834   2.726   0.365   8.741  0.0460  0.9261  0.2556
  106OSM   H16T10835   2.547   0.380   8.722  0.7115  0.5699 -0.0898
  106OSM   C17S10836   2.616   0.283   8.911  0.4396  0.3642 -0.0919
  106OSM   H17S10837   2.540   0.332   8.975  1.0465  1.3341 -0.0912
  106OSM   H17T10838   2.720   0.263   8.946  0.4917 -2.1755 -1.4777
  106OSM   C18S10839   2.558   0.151   8.863  0.2057  0.1783 -0.1859
  106OSM   H18S10840   2.537   0.076   8.943  0.0382 -2.1017 -2.2638
  106OSM   H18T10841   2.618   0.097   8.787 -0.3131  0.9059 -1.1285
  106OSM   H18U10842   2.464   0.180   8.812 -0.6725  0.8206  1.6989
  106OSM    C1F10843   3.190   0.799  10.195 -0.7113 -0.3864  0.3733
  106OSM     OF10844   3.151   0.706  10.257 -0.5080  0.4745 -0.1414
  106OSM    C2F10845   3.339   0.819  10.163  0.3233 -0.0916  0.2674
  106OSM    H2F10846   3.394   0.785  10.253 -0.6311 -0.7691  0.6182
  106OSM    H2G10847   3.349   0.927  10.139  0.2367 -0.0928  0.2218
  106OSM    C3F10848   3.378   0.727  10.053 -0.3304  0.3178 -0.5324
  106OSM    H3F10849   3.377   0.621  10.086  0.3908 -0.1248 -1.8483
  106OSM    H3G10850   3.482   0.757  10.029  1.2250 -2.1721  2.4021
  106OSM    C4F10851   3.298   0.726   9.929 -0.1154  0.3174  0.4121
  106OSM    H4F10852   3.190   0.701   9.935 -0.1342  0.2109 -0.2784
  106OSM    H4G10853   3.345   0.665   9.848  1.8035  1.3663  0.6837
  106OSM    C5F10854   3.290   0.863   9.855 -0.1221 -0.9978 -0.1081
  106OSM    H5F10855   3.396   0.880   9.825 -0.7607 -0.4881 -2.2902
  106OSM    H5G10856   3.258   0.949   9.918  0.0617 -0.1390 -1.1647
  106OSM    C6F10857   3.191   0.859   9.737  0.2381 -0.6400  0.0872
  106OSM    H6F10858   3.193   0.952   9.675 -0.1701 -0.8320 -0.2124
  106OSM    H6G10859   3.091   0.849   9.783 -0.0592  0.2316 -0.3448
  106OSM    C7F10860   3.212   0.745   9.632 -0.0952 -0.2700  0.2283
  106OSM    H7F10861   3.199   0.650   9.688  0.3440  0.3181  1.3643
  106OSM    H7G10862   3.313   0.746   9.586  0.3785  1.1740  1.2381
  106OSM    C8F10863   3.112   0.748   9.517 -0.7025  0.1710 -0.4309
  106OSM    H8F10864   3.017   0.735   9.572 -1.1619 -1.5584 -1.5757
  106OSM    H8G10865   3.123   0.654   9.459  0.0047 -0.3492  0.5229
  106OSM    C9F10866   3.125   0.868   9.419  0.1192 -0.0590 -0.1252
  106OSM    H9F10867   3.058   0.951   9.446 -0.3836  0.6600 -3.1256
  106OSM   C10F10868   3.205   0.883   9.318  0.1726 -0.5155 -0.0412
  106OSM   H10F10869   3.202   0.981   9.268  0.5713  0.3101  1.5173
  106OSM   C11F10870   3.295   0.774   9.264 -0.2921 -0.9012 -0.2167
  106OSM   H11F10871   3.318   0.695   9.339 -1.6606  0.1142  1.3740
  106OSM   H11G10872   3.391   0.826   9.246 -0.2000 -1.2971 -0.9137
  106OSM   C12F10873   3.259   0.697   9.138  0.2696  0.2813 -0.7067
  106OSM   H12F10874   3.162   0.645   9.146 -0.2440  1.4894  2.2709
  106OSM   H12G10875   3.336   0.617   9.129  2.1636  2.1269 -2.1441
  106OSM   C13F10876   3.277   0.791   9.017 -0.3395 -0.2874  0.5732
  106OSM   H13F10877   3.379   0.836   9.017 -0.4341 -0.0202 -0.8910
  106OSM   H13G10878   3.203   0.872   9.038  0.3612  0.2622  0.9623
  106OSM   C14F10879   3.261   0.719   8.882  0.1505  0.7522  0.2243
  106OSM   H14F10880   3.185   0.641   8.900  1.0241 -0.7413 -2.1235
  106OSM   H14G10881   3.354   0.662   8.861  0.7696  1.4662  0.9731
  106OSM   C15F10882   3.233   0.816   8.762 -0.7210 -0.3485  0.0271
  106OSM   H15F10883   3.306   0.898   8.773 -0.5641 -0.5423  0.4697
  106OSM   H15G10884   3.134   0.864   8.776 -1.7394 -1.9662 -1.2229
  106OSM   C16F10885   3.234   0.756   8.624 -0.5153 -0.3530 -0.4671
  106OSM   H16F10886   3.325   0.695   8.605  0.0774  1.0199 -2.2585
  106OSM   H16G10887   3.237   0.836   8.547  1.4980 -0.3472 -0.4365
  106OSM   C17F10888   3.096   0.694   8.598 -0.5221  0.5074  0.9046
  106OSM   H17F10889   3.022   0.766   8.637 -0.1600  0.8183  1.0290
  106OSM   H17G10890   3.086   0.601   8.658  0.4540  0.4846  1.0531
  106OSM   C18F10891   3.078   0.666   8.447  0.7172  0.5010  0.4544
  106OSM   H18F10892   2.969   0.656   8.424  0.4261  2.8047  0.4922
  106OSM   H18G10893   3.130   0.572   8.421  1.4607  0.5427  1.7053
  106OSM   H18H10894   3.109   0.759   8.394 -1.0226  0.3135 -0.9979
  107OSM      N10895   0.438   5.662  10.769 -0.1817 -0.0337 -0.1094
  107OSM    C1510896   0.321   5.673  10.869 -0.0962 -0.1608 -0.2456
  107OSM   H15A10897   0.316   5.600  10.948  1.0469  3.0761  3.0613
  107OSM   H15B10898   0.228   5.677  10.815  0.2614 -1.9873 -1.1082
  107OSM   H15C10899   0.343   5.766  10.919  2.3699 -1.7753  1.9223
  107OSM    C1410900   0.572   5.659  10.842 -0.3374  0.1818 -0.0766
  107OSM   H14A10901   0.593   5.562  10.885  1.9410 -0.4379 -2.3541
  107OSM   H14B10902   0.569   5.728  10.924 -3.1553 -0.3155  0.3494
  107OSM   H14C10903   0.655   5.680  10.776 -0.0205 -0.8082 -0.0182
  107OSM    C1310904   0.435   5.534  10.686 -0.2773  0.4280  0.3068
  107OSM   H13A10905   0.426   5.443  10.742 -0.6601  1.3144  1.7358
  107OSM   H13B10906   0.525   5.526  10.626  0.2003 -0.9476  1.1635
  107OSM   H13C10907   0.355   5.526  10.614 -0.2938 -0.1169  0.3816
  107OSM    C1210908   0.433   5.787  10.684  0.2511 -0.0836  0.9819
  107OSM   H12A10909   0.519   5.792  10.618 -0.5349  2.5229  0.0169
  107OSM   H12B10910   0.445   5.870  10.752  0.7353  1.2514 -0.6385
  107OSM    C1110911   0.313   5.814  10.585 -0.7078 -0.0198  0.2115
  107OSM   H11A10912   0.277   5.722  10.536  1.0954 -1.2920  1.1374
  107OSM   H11B10913   0.337   5.895  10.513 -0.4125  0.8421  1.2501
  107OSM      P10914   0.054   5.791  10.662 -0.1980  0.3295 -0.4458
  107OSM    O1310915   0.062   5.649  10.703 -0.1052 -0.6196  0.1791
  107OSM    O1410916  -0.046   5.863  10.743 -0.0733 -0.2754  0.9055
  107OSM    O1110917   0.013   5.795  10.511  0.2886  0.4368 -0.3916
  107OSM    O1210918   0.204   5.849  10.668  0.6239 -0.0006 -0.4587
  107OSM    C1S10919   0.046   5.902  10.422  0.2821 -0.4886  0.3550
  107OSM    H1S10920   0.155   5.909  10.402  0.1651  0.4409 -0.0062
  107OSM    H1T10921   0.024   6.005  10.458  0.8333  0.1032 -0.9125
  107OSM     NF10922   0.037   5.961  10.185 -0.6336  0.6173 -0.5137
  107OSM    HNF10923  -0.002   6.049  10.159 -0.8810  0.3760 -0.9689
  107OSM    C2S10924  -0.031   5.890  10.291 -0.1916  0.0708 -0.0298
  107OSM    H2S10925  -0.020   5.785  10.257  1.2351  0.1100  0.2232
  107OSM    C3S10926  -0.178   5.934  10.311 -0.3061 -0.3442 -0.3345
  107OSM    H3S10927  -0.181   6.042  10.334 -1.5676 -0.0748 -1.6600
  107OSM     O310928  -0.257   5.858  10.410 -0.4927 -0.3313  0.4941
  107OSM    HO310929  -0.197   5.803  10.460 -1.4309 -0.1947  1.8364
  107OSM    C4S10930  -0.253   5.917  10.186  0.4435  0.1673 -0.1497
  107OSM    H4S10931  -0.253   5.816  10.142  1.3285  0.1555 -0.1490
  107OSM    C5S10932  -0.313   6.014  10.117 -0.1800 -0.5362 -0.8326
  107OSM    H5S10933  -0.312   6.116  10.157  0.2142 -0.8647 -0.0026
  107OSM    C6S10934  -0.380   5.999   9.982 -0.4420  0.0071 -0.0282
  107OSM    H6S10935  -0.476   6.055   9.992 -1.0503 -0.3745 -2.8336
  107OSM    H6T10936  -0.399   5.894   9.954 -0.5878  0.5896 -2.3288
  107OSM    C7S10937  -0.312   6.065   9.863 -0.3025  0.1069  0.4913
  107OSM    H7S10938  -0.229   5.997   9.836  0.7044  1.2069  0.7376
  107OSM    H7T10939  -0.277   6.169   9.883 -1.3215  0.1294  2.4389
  107OSM    C8S10940  -0.412   6.073   9.753 -0.0831 -0.0416 -0.2028
  107OSM    H8S10941  -0.501   6.132   9.785  0.3429  0.4529  0.0711
  107OSM    H8T10942  -0.455   5.975   9.720 -0.2157  0.5905 -2.0538
  107OSM    C9S10943  -0.363   6.145   9.631 -0.0129 -0.6176  0.1692
  107OSM    H9S10944  -0.266   6.098   9.602  0.5614 -0.1291  1.2391
  107OSM    H9T10945  -0.333   6.251   9.642  0.1215 -0.5738 -0.5751
  107OSM   C10S10946  -0.457   6.137   9.511 -0.6940 -0.2900  0.2054
  107OSM   H10S10947  -0.543   6.208   9.515 -1.0862 -0.6494 -1.0995
  107OSM   H10T10948  -0.482   6.030   9.500  0.7651 -0.5395 -0.9438
  107OSM   C11S10949  -0.377   6.157   9.385 -0.4677  0.1457  0.0224
  107OSM   H11S10950  -0.304   6.075   9.365  0.4012  0.0756  3.0648
  107OSM   H11T10951  -0.326   6.254   9.403  0.2101  0.1541 -1.6990
  107OSM   C12S10952  -0.468   6.175   9.262 -0.7074  0.1743  0.0519
  107OSM   H12S10953  -0.519   6.274   9.270  0.4091  0.9614 -2.0492
  107OSM   H12T10954  -0.537   6.088   9.265  1.2816 -1.5345 -1.1369
  107OSM   C13S10955  -0.399   6.166   9.128  0.3268 -0.8519 -0.0646
  107OSM   H13S10956  -0.350   6.067   9.125  1.5142 -0.3206  0.7410
  107OSM   H13T10957  -0.316   6.238   9.107 -1.5945  1.8752  1.0924
  107OSM   C14S10958  -0.505   6.198   9.022 -0.4425  0.1010 -0.0871
  107OSM   H14S10959  -0.575   6.276   9.058  2.5124  2.4267  1.0321
  107OSM   H14T10960  -0.572   6.111   9.012 -4.7421  3.3113 -2.3626
  107OSM   C15S10961  -0.453   6.224   8.880  0.6138  0.1010  0.1708
  107OSM   H15S10962  -0.346   6.196   8.886  1.6668  3.8458  2.2864
  107OSM   H15T10963  -0.446   6.333   8.857 -0.7205  0.5973  1.8914
  107OSM   C16S10964  -0.538   6.165   8.764 -0.1928 -0.4684  0.0184
  107OSM   H16S10965  -0.642   6.201   8.773 -0.6026 -0.9754 -2.0332
  107OSM   H16T10966  -0.525   6.056   8.780  0.7723 -0.2850  0.6145
  107OSM   C17S10967  -0.484   6.206   8.628 -0.6744  0.2736 -1.0693
  107OSM   H17S10968  -0.409   6.127   8.606 -0.6393  0.4987 -1.7725
  107OSM   H17T10969  -0.428   6.302   8.621  0.0660 -0.1184 -0.6348
  107OSM   C18S10970  -0.599   6.213   8.528  0.0592 -0.1931  0.1698
  107OSM   H18S10971  -0.565   6.165   8.434 -0.3847  3.2418 -1.9001
  107OSM   H18T10972  -0.626   6.317   8.499 -1.3475 -1.0647 -1.8890
  107OSM   H18U10973  -0.695   6.171   8.566  0.7715  0.7090  3.3095
  107OSM    C1F10974   0.156   5.924  10.136  0.5898 -0.1343 -0.0079
  107OSM     OF10975   0.195   5.816  10.174  0.0944  0.8776  0.1363
  107OSM    C2F10976   0.232   6.013  10.046 -0.2906  0.8501  0.5066
  107OSM    H2F10977   0.321   6.063  10.090 -1.5859  0.8102  3.3442
  107OSM    H2G10978   0.167   6.099  10.021 -1.4276 -0.3348 -0.7804
  107OSM    C3F10979   0.280   5.937   9.915 -0.8165 -0.0337  0.2146
  107OSM    H3F10980   0.187   5.890   9.877 -0.9941  0.0081  0.5882
  107OSM    H3G10981   0.347   5.853   9.943  0.0555  0.4396 -0.4006
  107OSM    C4F10982   0.363   6.026   9.819 -0.5590  0.1804  0.7434
  107OSM    H4F10983   0.420   5.957   9.753  0.7128  1.1093  0.8392
  107OSM    H4G10984   0.441   6.089   9.866  0.6749 -0.5827 -0.2134
  107OSM    C5F10985   0.274   6.110   9.724 -0.0110 -0.2335  0.0259
  107OSM    H5F10986   0.182   6.141   9.778 -0.4393 -1.0352 -0.2271
  107OSM    H5G10987   0.243   6.045   9.640 -1.0892  0.1599  0.1011
  107OSM    C6F10988   0.342   6.232   9.674  0.1633 -0.2043 -0.0606
  107OSM    H6F10989   0.366   6.297   9.760  2.2932 -0.9139 -0.0604
  107OSM    H6G10990   0.258   6.279   9.619 -0.8449 -0.7973  0.9408
  107OSM    C7F10991   0.462   6.218   9.586 -0.5398  0.8631 -0.2953
  107OSM    H7F10992   0.548   6.186   9.649 -2.4260 -1.3919  1.3363
  107OSM    H7G10993   0.488   6.321   9.552  0.6568  1.4973  2.2853
  107OSM    C8F10994   0.467   6.119   9.478  0.4623  0.0375  0.1196
  107OSM    H8F10995   0.428   6.019   9.509  0.3912  0.1379  0.3563
  107OSM    H8G10996   0.574   6.112   9.451  1.5013 -0.5777  3.8224
  107OSM    C9F10997   0.377   6.154   9.362  0.3152  0.1797  0.6839
  107OSM    H9F10998   0.270   6.169   9.384 -0.1827 -0.6209 -1.0065
  107OSM   C10F10999   0.422   6.189   9.235 -0.6159 -0.1087 -0.3166
  107OSM   H10F11000   0.343   6.218   9.165 -1.3767  0.5044  0.7755
  107OSM   C11F11001   0.564   6.169   9.184  0.1397 -0.0897 -0.3307
  107OSM   H11F11002   0.597   6.069   9.221 -1.1621 -0.0715  0.9573
  107OSM   H11G11003   0.643   6.235   9.226  1.0729 -1.1220 -0.4144
  107OSM   C12F11004   0.554   6.175   9.030  0.5782  0.6721 -0.5571
  107OSM   H12F11005   0.656   6.187   8.988  0.8559 -2.4599 -0.9713
  107OSM   H12G11006   0.514   6.271   8.991  0.7945 -0.0674 -2.7423
  107OSM   C13F11007   0.484   6.053   8.968 -1.2499  0.3533 -0.5016
  107OSM   H13F11008   0.380   6.039   9.005 -0.5365  1.3116  2.0837
  107OSM   H13G11009   0.540   5.960   8.995 -1.7406  0.9879  3.2205
  107OSM   C14F11010   0.462   6.062   8.809 -0.8144  0.0087 -0.1900
  107OSM   H14F11011   0.416   5.969   8.769 -1.7084  1.0086 -1.5620
  107OSM   H14G11012   0.564   6.075   8.767 -0.0970  1.3051  1.7767
  107OSM   C15F11013   0.392   6.180   8.757 -0.3164 -0.0283 -0.3082
  107OSM   H15F11014   0.435   6.271   8.803 -1.7114  0.9167 -0.8046
  107OSM   H15G11015   0.285   6.170   8.787 -0.8916  1.8718 -1.5634
  107OSM   C16F11016   0.399   6.200   8.604 -0.5929 -0.1162  0.2425
  107OSM   H16F11017   0.377   6.107   8.548  1.4732  0.0865 -1.0080
  107OSM   H16G11018   0.503   6.227   8.575  0.8706 -2.4343  2.8219
  107OSM   C17F11019   0.306   6.316   8.549 -0.1188 -0.6014 -0.2517
  107OSM   H17F11020   0.210   6.303   8.604  0.4509  2.5257  1.7191
  107OSM   H17G11021   0.285   6.302   8.441  0.7592  1.1214 -0.6888
  107OSM   C18F11022   0.360   6.456   8.579 -0.1983  0.7387  0.0157
  107OSM   H18F11023   0.345   6.464   8.689  0.3327  1.3786  0.0474
  107OSM   H18G11024   0.307   6.531   8.518  0.9757  0.7653 -1.0113
  107OSM   H18H11025   0.467   6.461   8.548 -0.4955  0.9460 -1.0016
  108OSM      N11026   3.493   6.452  10.957  0.2388 -0.4399  0.3956
  108OSM    C1511027   3.467   6.596  10.964 -0.2576  0.1476 -0.0446
  108OSM   H15A11028   3.418   6.636  11.052 -0.3718  1.5333 -0.7048
  108OSM   H15B11029   3.414   6.621  10.874  0.7723 -0.4907 -0.8500
  108OSM   H15C11030   3.555   6.658  10.950 -2.1733  2.9185 -0.8347
  108OSM    C1411031   3.568   6.400  11.070  0.3998 -0.5877  0.3207
  108OSM   H14A11032   3.571   6.292  11.068  1.1919 -0.6628 -4.1179
  108OSM   H14B11033   3.522   6.431  11.163 -1.0970  0.5363 -0.7490
  108OSM   H14C11034   3.672   6.430  11.064 -0.3306  2.0398 -0.3776
  108OSM    C1311035   3.357   6.387  10.962 -0.1240 -0.0632  0.7593
  108OSM   H13A11036   3.362   6.279  10.957  0.7982  0.0206 -1.8449
  108OSM   H13B11037   3.305   6.410  10.870  1.8431 -2.8626 -1.2243
  108OSM   H13C11038   3.297   6.431  11.041  1.8949  4.3987  0.1236
  108OSM    C1211039   3.556   6.425  10.821 -0.3936 -0.9959  0.4201
  108OSM   H12A11040   3.563   6.317  10.815  1.9194 -1.0116  2.0642
  108OSM   H12B11041   3.656   6.465  10.829 -0.7351  0.1269 -0.6206
  108OSM    C1111042   3.509   6.489  10.689  0.3535 -0.0556  0.4610
  108OSM   H11A11043   3.579   6.448  10.613 -0.7865 -0.1882 -0.5356
  108OSM   H11B11044   3.525   6.599  10.682  0.9908 -0.2159 -0.9341
  108OSM      P11045   3.269   6.559  10.626  0.4195  0.2562 -0.2036
  108OSM    O1311046   3.142   6.498  10.604  0.6307 -0.2212 -0.7147
  108OSM    O1411047   3.280   6.670  10.725  0.9020  0.1643  0.1797
  108OSM    O1111048   3.326   6.614  10.488  0.1217  0.2686 -0.1715
  108OSM    O1211049   3.376   6.455  10.660 -0.2094  0.5353  0.2099
  108OSM    C1S11050   3.335   6.514  10.385 -0.2294  1.2431 -0.2940
  108OSM    H1S11051   3.228   6.499  10.357 -1.3433  3.3916  2.3070
  108OSM    H1T11052   3.394   6.426  10.419 -1.6345  0.6527  0.7360
  108OSM     NF11053   3.364   6.493  10.147 -0.2667 -0.2550 -0.6981
  108OSM    HNF11054   3.438   6.435  10.116  1.1821  1.0197  0.2440
  108OSM    C2S11055   3.405   6.572  10.260 -0.9447 -1.0492  0.4067
  108OSM    H2S11056   3.359   6.673  10.256  0.3790 -0.3693  1.4663
  108OSM    C3S11057   3.561   6.585  10.287 -0.1423 -0.1214 -0.5962
  108OSM    H3S11058   3.604   6.483  10.298 -3.0424 -1.6116 -1.9174
  108OSM     O311059   3.599   6.649  10.411 -0.3069 -0.2200 -0.3686
  108OSM    HO311060   3.514   6.667  10.453  0.2261  1.4450  0.0617
  108OSM    C4S11061   3.625   6.647  10.168 -0.2566 -0.0811  0.0348
  108OSM    H4S11062   3.668   6.585  10.089 -0.4781 -1.4825  0.9739
  108OSM    C5S11063   3.632   6.778  10.151  0.7951  0.9324  0.4631
  108OSM    H5S11064   3.603   6.841  10.237 -0.5817  1.6331 -0.4880
  108OSM    C6S11065   3.696   6.857  10.043  0.6194  0.7617 -1.0879
  108OSM    H6S11066   3.769   6.929  10.085  0.2754  0.0049  0.8780
  108OSM    H6T11067   3.619   6.908   9.981  0.2994 -0.5589 -1.8454
  108OSM    C7S11068   3.781   6.779   9.940  0.3076 -0.7478 -0.0311
  108OSM    H7S11069   3.705   6.710   9.897  0.1720  0.6727 -2.1798
  108OSM    H7T11070   3.864   6.723   9.988  1.1596 -0.4791 -1.1707
  108OSM    C8S11071   3.827   6.862   9.818  0.4635 -0.0457 -0.2270
  108OSM    H8S11072   3.905   6.934   9.851 -0.6915  0.9749  0.4060
  108OSM    H8T11073   3.743   6.933   9.796 -0.5777 -1.3121 -0.4498
  108OSM    C9S11074   3.877   6.779   9.697  0.5405  0.2805  0.5525
  108OSM    H9S11075   3.824   6.681   9.692 -0.9323  1.0140  1.2303
  108OSM    H9T11076   3.984   6.754   9.712  0.8556 -1.5526 -3.3359
  108OSM   C10S11077   3.864   6.851   9.566 -0.4259 -0.8170 -0.1612
  108OSM   H10S11078   3.928   6.941   9.584  0.6852 -1.5163 -0.5086
  108OSM   H10T11079   3.761   6.888   9.547  0.3642  1.1772 -0.8515
  108OSM   C11S11080   3.907   6.762   9.448  0.7179  0.1865 -0.1925
  108OSM   H11S11081   3.820   6.695   9.439 -1.0795  2.2501  0.9151
  108OSM   H11T11082   3.997   6.707   9.484 -0.2462 -1.9309 -0.8733
  108OSM   C12S11083   3.927   6.834   9.314 -0.3427  0.2411 -0.0493
  108OSM   H12S11084   4.013   6.903   9.321 -0.0036 -0.1470 -0.3175
  108OSM   H12T11085   3.836   6.892   9.289  0.5253  1.3271 -0.8119
  108OSM   C13S11086   3.970   6.738   9.205 -0.1684  0.3593  0.5695
  108OSM   H13S11087   3.928   6.635   9.203 -0.0127  0.2140  2.5993
  108OSM   H13T11088   4.077   6.715   9.228 -0.0236  3.2774  3.5049
  108OSM   C14S11089   3.962   6.796   9.063 -0.0255  0.7794 -0.0215
  108OSM   H14S11090   4.016   6.893   9.069 -1.3075  1.6463 -1.5707
  108OSM   H14T11091   3.860   6.813   9.022  0.5324  2.0336 -0.9441
  108OSM   C15S11092   4.022   6.696   8.964  0.4714  0.3348 -0.0677
  108OSM   H15S11093   3.964   6.605   8.991  0.5331  0.5675  0.8647
  108OSM   H15T11094   4.126   6.666   8.986  0.3585 -0.1931 -0.2256
  108OSM   C16S11095   4.015   6.742   8.815  0.3291 -0.6156 -0.3925
  108OSM   H16S11096   4.094   6.691   8.755 -0.0217  0.1889 -1.5851
  108OSM   H16T11097   4.052   6.847   8.807  0.7536 -0.8432 -1.7684
  108OSM   C17S11098   3.876   6.731   8.750 -0.1854 -0.0481 -0.0615
  108OSM   H17S11099   3.792   6.772   8.810 -1.6467 -2.7195 -0.1263
  108OSM   H17T11100   3.859   6.621   8.739  0.4074 -0.0917 -0.5669
  108OSM   C18S11101   3.876   6.792   8.607 -0.2841 -0.0150  0.2073
  108OSM   H18S11102   3.933   6.887   8.607 -0.5111  0.1203  0.0832
  108OSM   H18T11103   3.771   6.809   8.574 -0.6916  0.0217  1.4920
  108OSM   H18U11104   3.927   6.737   8.525 -0.5423 -0.6659  0.4761
  108OSM    C1F11105   3.237   6.476  10.103 -0.6323 -0.4638  0.3325
  108OSM     OF11106   3.155   6.565  10.120  0.4443 -0.0479 -0.0519
  108OSM    C2F11107   3.200   6.353  10.032  0.1966  0.1383  0.6338
  108OSM    H2F11108   3.102   6.316  10.069  1.9890 -2.8912  2.7860
  108OSM    H2G11109   3.262   6.265  10.059 -0.3057 -0.2630  0.5026
  108OSM    C3F11110   3.195   6.383   9.882 -0.1389  0.3289  0.7690
  108OSM    H3F11111   3.298   6.417   9.859 -0.6089  2.9966  2.1774
  108OSM    H3G11112   3.130   6.468   9.852  0.3009  0.7208  0.9046
  108OSM    C4F11113   3.166   6.261   9.792  0.4004  0.7229  0.0410
  108OSM    H4F11114   3.069   6.219   9.827  0.9396 -2.0537 -1.4960
  108OSM    H4G11115   3.245   6.185   9.808  0.3311  0.8928  1.2260
  108OSM    C5F11116   3.147   6.280   9.641  0.0151  0.0515 -0.4935
  108OSM    H5F11117   3.236   6.333   9.601  1.1866 -1.1270  0.4539
  108OSM    H5G11118   3.065   6.355   9.636  0.0429  0.1650  0.4252
  108OSM    C6F11119   3.118   6.146   9.567  0.5400 -0.2204 -0.1613
  108OSM    H6F11120   3.025   6.113   9.616  0.5196  1.4927  1.0436
  108OSM    H6G11121   3.204   6.078   9.586  1.0661  0.9353  1.8606
  108OSM    C7F11122   3.102   6.174   9.413 -0.1686 -0.3922 -0.3135
  108OSM    H7F11123   3.014   6.241   9.408 -1.7115 -2.4520 -3.0244
  108OSM    H7G11124   3.071   6.079   9.365 -0.8880 -1.7836  2.6424
  108OSM    C8F11125   3.231   6.226   9.350  1.1104 -0.1511 -0.9755
  108OSM    H8F11126   3.232   6.332   9.381 -1.4290 -0.5035  0.5659
  108OSM    H8G11127   3.219   6.233   9.239 -2.3818  3.2971 -0.6157
  108OSM    C9F11128   3.350   6.151   9.394  0.2746 -0.1474 -0.0577
  108OSM    H9F11129   3.413   6.188   9.476  1.0389 -1.4082 -0.0608
  108OSM   C10F11130   3.403   6.043   9.323 -0.4507 -0.1457  0.2833
  108OSM   H10F11131   3.490   5.994   9.368 -0.5177 -0.4955  0.0312
  108OSM   C11F11132   3.350   5.985   9.190  0.5084 -0.2128 -0.2837
  108OSM   H11F11133   3.285   6.046   9.124 -0.0707  0.0323  0.5021
  108OSM   H11G11134   3.284   5.898   9.211  0.7505 -0.7684 -1.6500
  108OSM   C12F11135   3.451   5.936   9.094  0.0977  0.3516 -0.0661
  108OSM   H12F11136   3.531   5.864   9.122 -0.6834 -0.3407  0.4269
  108OSM   H12G11137   3.521   6.015   9.059 -0.8866  1.3856  0.2607
  108OSM   C13F11138   3.379   5.863   8.971 -0.3886 -0.4334  0.3372
  108OSM   H13F11139   3.306   5.929   8.920 -2.4230 -0.7101  2.7232
  108OSM   H13G11140   3.309   5.788   9.012  1.3515 -0.7072  3.0463
  108OSM   C14F11141   3.477   5.792   8.872 -0.0246  0.0707 -0.2312
  108OSM   H14F11142   3.507   5.696   8.920 -0.7250 -0.0762 -0.0765
  108OSM   H14G11143   3.573   5.845   8.855  0.9759 -1.9227 -1.1724
  108OSM   C15F11144   3.414   5.747   8.744 -0.5695  1.0042  0.6922
  108OSM   H15F11145   3.485   5.688   8.682 -0.5788  1.7078 -0.0031
  108OSM   H15G11146   3.381   5.834   8.683  1.5425  0.3387 -1.5527
  108OSM   C16F11147   3.285   5.663   8.761  0.5372 -0.1049  0.0363
  108OSM   H16F11148   3.207   5.723   8.813 -1.0429 -1.9538 -0.0813
  108OSM   H16G11149   3.313   5.578   8.827 -0.7221  2.5551  4.4223
  108OSM   C17F11150   3.229   5.614   8.632 -0.0318  0.1793  0.0029
  108OSM   H17F11151   3.309   5.562   8.574 -0.3877 -0.1732 -0.1748
  108OSM   H17G11152   3.207   5.702   8.568 -0.7972  0.4244  0.5935
  108OSM   C18F11153   3.102   5.525   8.643  0.6570  0.2013  0.0323
  108OSM   H18F11154   3.058   5.499   8.545  0.0514 -1.2010  0.6472
  108OSM   H18G11155   3.024   5.576   8.704  0.0249 -1.0545  0.2887
  108OSM   H18H11156   3.129   5.426   8.685  0.0676  0.2588  0.5646
  109OSM      N11157   0.797   6.393  11.239 -0.4286 -0.1872  0.2208
  109OSM    C1511158   0.805   6.543  11.230  0.6603  0.4225 -0.0356
  109OSM   H15A11159   0.733   6.594  11.292  1.8346  2.2300 -0.0578
  109OSM   H15B11160   0.779   6.569  11.128 -1.0440 -0.7046  0.0681
  109OSM   H15C11161   0.903   6.580  11.256 -0.4987  3.0220  1.0193
  109OSM    C1411162   0.839   6.340  11.367 -0.5307  0.0280 -0.2739
  109OSM   H14A11163   0.766   6.362  11.443  0.4159 -0.8670  0.9439
  109OSM   H14B11164   0.925   6.390  11.410 -2.5852  1.7813  2.0860
  109OSM   H14C11165   0.859   6.234  11.375  1.7506  0.3611 -0.7424
  109OSM    C1311166   0.651   6.346  11.219  0.3278 -0.5646  0.1097
  109OSM   H13A11167   0.595   6.364  11.310  0.1355  3.5794 -0.6114
  109OSM   H13B11168   0.656   6.239  11.210  2.8020 -0.4047 -1.2688
  109OSM   H13C11169   0.610   6.379  11.125 -0.5952 -2.2312 -0.0965
  109OSM    C1211170   0.885   6.331  11.122  0.3056 -0.1158 -0.8174
  109OSM   H12A11171   0.891   6.225  11.142  1.8907  0.3729  1.8016
  109OSM   H12B11172   0.988   6.359  11.137  0.9120 -2.3539 -0.4080
  109OSM    C1111173   0.844   6.359  10.975  0.0651 -0.3181 -0.9596
  109OSM   H11A11174   0.933   6.363  10.908  2.7883 -0.7089  2.3653
  109OSM   H11B11175   0.803   6.462  10.985  0.6459 -0.2425  1.2728
  109OSM      P11176   0.745   6.118  10.918  0.0350 -0.1207  0.7061
  109OSM    O1311177   0.836   6.068  11.025  0.0118  0.1014 -0.0790
  109OSM    O1411178   0.607   6.063  10.923  0.5455  0.4806 -0.7732
  109OSM    O1111179   0.813   6.095  10.772 -0.0471  0.2567 -0.3799
  109OSM    O1211180   0.737   6.278  10.931  0.4532 -0.1479 -0.9547
  109OSM    C1S11181   0.815   6.190  10.668  0.2125  0.0424 -1.4939
  109OSM    H1S11182   0.885   6.270  10.702 -0.5809  0.1819 -0.1468
  109OSM    H1T11183   0.723   6.251  10.657 -0.7506 -1.3302 -1.2664
  109OSM     NF11184   0.866   6.225  10.431 -0.6528  0.0986 -0.3832
  109OSM    HNF11185   0.784   6.267  10.392  0.4179  1.9236 -0.7678
  109OSM    C2S11186   0.847   6.125  10.530  0.0590 -0.4479  0.0815
  109OSM    H2S11187   0.934   6.057  10.542 -0.7126 -0.9512  3.9561
  109OSM    C3S11188   0.729   6.023  10.502  0.7936  0.4194 -0.4032
  109OSM    H3S11189   0.637   6.085  10.500  0.9348  0.6328 -0.3318
  109OSM     O311190   0.704   5.922  10.602 -0.4333  0.1084 -0.5228
  109OSM    HO311191   0.721   5.969  10.684  0.0049  0.6258 -0.8961
  109OSM    C4S11192   0.751   5.959  10.364 -0.0898  0.4422 -0.1831
  109OSM    H4S11193   0.826   5.879  10.361  0.1449  0.6526  0.0962
  109OSM    C5S11194   0.665   5.970  10.261  0.4657 -0.0291  0.8186
  109OSM    H5S11195   0.590   6.050  10.263 -0.8909 -1.2284  0.1909
  109OSM    C6S11196   0.677   5.890  10.131 -0.5414  0.4137 -0.0413
  109OSM    H6S11197   0.585   5.828  10.121 -0.6837  0.4264  1.0941
  109OSM    H6T11198   0.771   5.832  10.137  0.7986  2.2760 -1.6941
  109OSM    C7S11199   0.669   5.968   9.997 -0.3027  0.6630  0.1871
  109OSM    H7S11200   0.563   6.003   9.990  0.0853  1.6716 -1.0952
  109OSM    H7T11201   0.671   5.894   9.915 -4.0543 -1.2342  1.5426
  109OSM    C8S11202   0.769   6.082   9.974 -0.2244  0.1585 -0.3707
  109OSM    H8S11203   0.762   6.160  10.052 -0.4999 -0.9792  0.7769
  109OSM    H8T11204   0.749   6.139   9.881  0.3880 -0.0039 -0.6072
  109OSM    C9S11205   0.920   6.036   9.959 -0.0275  0.3083  0.8377
  109OSM    H9S11206   0.946   5.965  10.040  0.5195 -0.6006 -0.1207
  109OSM    H9T11207   0.988   6.124   9.958  0.2746  0.1443 -2.3098
  109OSM   C10S11208   0.959   5.979   9.820 -0.2276  0.0857  0.8803
  109OSM   H10S11209   0.897   5.890   9.796  1.2552 -0.7386 -0.0132
  109OSM   H10T11210   1.066   5.949   9.819  0.1167  0.9450  3.3022
  109OSM   C11S11211   0.927   6.078   9.703  0.2088 -0.2535 -0.4048
  109OSM   H11S11212   0.956   6.183   9.722 -1.2071  0.3202 -1.2403
  109OSM   H11T11213   0.817   6.083   9.685  0.3373  1.3284 -0.8553
  109OSM   C12S11214   0.987   6.037   9.574 -0.2006  0.2092  0.0736
  109OSM   H12S11215   0.963   5.932   9.545 -0.3482  0.4468 -0.7003
  109OSM   H12T11216   1.098   6.047   9.569 -0.1408 -0.0773  0.8294
  109OSM   C13S11217   0.915   6.119   9.457 -0.1641  0.0818 -0.1059
  109OSM   H13S11218   1.004   6.173   9.417 -0.3151  0.9794  0.7329
  109OSM   H13T11219   0.839   6.192   9.490  1.5937  1.5453  0.8757
  109OSM   C14S11220   0.869   6.031   9.343  0.3009 -0.3461 -0.0663
  109OSM   H14S11221   0.817   6.098   9.272 -0.8673  0.8435  1.8180
  109OSM   H14T11222   0.797   5.957   9.386 -0.3199 -0.6213 -1.5386
  109OSM   C15S11223   0.977   5.947   9.268  0.4162 -0.8914 -0.8241
  109OSM   H15S11224   1.043   5.881   9.328  3.0547 -0.4193 -2.9731
  109OSM   H15T11225   1.048   6.018   9.219 -0.2990 -0.7132 -1.6416
  109OSM   C16S11226   0.910   5.877   9.150 -0.3497  1.4700 -0.0406
  109OSM   H16S11227   0.831   5.822   9.205  0.2050  1.4175  0.7176
  109OSM   H16T11228   0.997   5.816   9.117 -1.4804 -0.9490  1.1735
  109OSM   C17S11229   0.859   5.970   9.041  0.0282  0.1028 -0.7331
  109OSM   H17S11230   0.928   6.056   9.030 -1.2143  1.1583 -0.4904
  109OSM   H17T11231   0.770   6.022   9.082 -0.4744 -1.6413  0.5267
  109OSM   C18S11232   0.830   5.907   8.905  0.7039  0.6917  0.0851
  109OSM   H18S11233   0.781   5.979   8.836 -1.3177 -0.6187  0.0998
  109OSM   H18T11234   0.756   5.826   8.919  0.6541  0.6519 -0.3956
  109OSM   H18U11235   0.924   5.869   8.859 -0.3868  1.1672 -2.6842
  109OSM    C1F11236   0.978   6.303  10.435  0.1777 -0.1700  0.1247
  109OSM     OF11237   1.072   6.301  10.510 -0.3185 -0.4749 -0.0872
  109OSM    C2F11238   0.976   6.416  10.333 -0.1363 -0.1519  0.2759
  109OSM    H2F11239   1.017   6.508  10.380 -2.2950  0.6589  0.6591
  109OSM    H2G11240   0.871   6.435  10.304  0.1312 -0.5028 -1.0070
  109OSM    C3F11241   1.054   6.379  10.200  0.3887 -0.7181  0.2936
  109OSM    H3F11242   1.031   6.277  10.161  1.1252 -0.9956  0.5591
  109OSM    H3G11243   1.160   6.395  10.229  0.5797  2.9571 -1.8487
  109OSM    C4F11244   1.034   6.475  10.085 -0.0492 -0.0474 -0.4357
  109OSM    H4F11245   1.109   6.449  10.008  1.8634  1.2353  0.9171
  109OSM    H4G11246   1.058   6.576  10.123 -1.0393  0.2137 -0.4626
  109OSM    C5F11247   0.888   6.479  10.036 -0.0160  0.4651  0.5014
  109OSM    H5F11248   0.819   6.526  10.109 -1.4628  0.1117 -0.6007
  109OSM    H5G11249   0.852   6.378  10.009  0.6758  0.0229  1.1813
  109OSM    C6F11250   0.872   6.553   9.901 -0.9054  0.2768  0.3824
  109OSM    H6F11251   0.949   6.634   9.906  0.2968 -0.8167  0.0396
  109OSM    H6G11252   0.772   6.601   9.897 -1.2402 -0.5143 -1.2883
  109OSM    C7F11253   0.896   6.462   9.774  0.1230 -0.3265 -0.0048
  109OSM    H7F11254   0.928   6.365   9.818 -1.5228 -1.1357 -0.4944
  109OSM    H7G11255   0.980   6.500   9.712 -0.4332  2.2226  0.6973
  109OSM    C8F11256   0.772   6.445   9.687  0.3901  0.4012 -0.6846
  109OSM    H8F11257   0.676   6.432   9.741  1.0189 -1.8939  0.0004
  109OSM    H8G11258   0.773   6.352   9.625 -0.2257 -0.1679  0.1480
  109OSM    C9F11259   0.751   6.578   9.615 -0.4927 -0.0585  0.5227
  109OSM    H9F11260   0.717   6.666   9.673  0.3309  0.7683 -0.2089
  109OSM   C10F11261   0.756   6.591   9.480 -0.0841  0.3187  0.0593
  109OSM   H10F11262   0.746   6.692   9.438  1.3551  0.4203 -0.0973
  109OSM   C11F11263   0.791   6.475   9.389  0.0201  0.4042 -0.4373
  109OSM   H11F11264   0.699   6.419   9.361  0.3021  0.0210 -0.6154
  109OSM   H11G11265   0.865   6.401   9.428 -1.5825 -1.2462 -0.3869
  109OSM   C12F11266   0.835   6.528   9.252 -0.6059 -0.2307  0.3289
  109OSM   H12F11267   0.931   6.577   9.276  0.0405 -1.5023  0.4265
  109OSM   H12G11268   0.774   6.614   9.217  0.4955  0.9884  1.3374
  109OSM   C13F11269   0.847   6.421   9.149  0.0795 -0.5012  0.2267
  109OSM   H13F11270   0.749   6.379   9.119 -1.1701  1.5528  1.2506
  109OSM   H13G11271   0.908   6.337   9.190 -0.5624  0.5397  3.6272
  109OSM   C14F11272   0.922   6.476   9.025  0.2395  0.1234 -0.6665
  109OSM   H14F11273   1.020   6.512   9.064 -0.8361  0.2148  2.2534
  109OSM   H14G11274   0.859   6.561   8.990 -3.2396 -1.9825 -0.0226
  109OSM   C15F11275   0.934   6.371   8.919  0.6596 -0.2098  0.4667
  109OSM   H15F11276   0.861   6.289   8.932  0.2518  0.0546 -0.0952
  109OSM   H15G11277   1.027   6.310   8.927 -0.1742 -1.4832  0.7152
  109OSM   C16F11278   0.918   6.425   8.774 -0.2112 -0.7174 -0.4380
  109OSM   H16F11279   1.007   6.484   8.741  0.7565 -2.0547 -0.3109
  109OSM   H16G11280   0.820   6.476   8.774  0.6569  1.1339  2.0329
  109OSM   C17F11281   0.912   6.321   8.667  1.0013  0.4043 -0.0704
  109OSM   H17F11282   0.842   6.244   8.707  0.8237  0.3792 -0.4255
  109OSM   H17G11283   1.005   6.263   8.650 -1.2274 -3.3596 -0.6561
  109OSM   C18F11284   0.868   6.356   8.528  0.2490  0.2005 -0.5333
  109OSM   H18F11285   0.944   6.413   8.470 -0.5255 -1.1490 -3.0228
  109OSM   H18G11286   0.770   6.410   8.531 -0.8548 -1.6712 -0.9874
  109OSM   H18H11287   0.855   6.259   8.475 -2.6515 -0.9627  2.0104
  110OSM      N11288   2.650   4.055  11.046  0.3371  0.0904 -0.7583
  110OSM    C1511289   2.688   4.138  11.167  0.6643  0.4350  0.3011
  110OSM   H15A11290   2.786   4.179  11.147  0.1884  0.0596 -3.5463
  110OSM   H15B11291   2.680   4.084  11.260 -0.6035  0.4803  0.2285
  110OSM   H15C11292   2.619   4.221  11.173 -0.6605 -0.6369  0.4348
  110OSM    C1411293   2.764   3.958  11.032  0.9962  0.7352  0.1171
  110OSM   H14A11294   2.754   3.898  10.943  0.3727  2.0498 -0.7200
  110OSM   H14B11295   2.753   3.898  11.122 -0.1562  0.3651 -0.2613
  110OSM   H14C11296   2.858   4.008  11.016  0.9607  0.5154 -0.8304
  110OSM    C1311297   2.523   3.980  11.060 -0.2745  0.6139 -0.5450
  110OSM   H13A11298   2.447   4.038  11.109 -1.0252 -0.8784  0.1135
  110OSM   H13B11299   2.544   3.898  11.127  0.1543  2.7735  2.0990
  110OSM   H13C11300   2.488   3.948  10.963 -1.2755 -0.1776  0.0578
  110OSM    C1211301   2.638   4.150  10.929  0.3578 -0.1525 -0.8052
  110OSM   H12A11302   2.737   4.189  10.911  0.7068 -0.8330 -0.4097
  110OSM   H12B11303   2.569   4.231  10.950  0.0219 -0.7459  0.4666
  110OSM    C1111304   2.586   4.092  10.793  0.6663  0.7595  0.1297
  110OSM   H11A11305   2.637   3.997  10.768  0.3355  0.7145 -0.4108
  110OSM   H11B11306   2.606   4.156  10.704 -0.7341  1.3700  0.2138
  110OSM      P11307   2.342   4.189  10.791 -0.4524  0.3769 -0.0927
  110OSM    O1311308   2.205   4.131  10.797 -0.0279 -0.1179  0.7795
  110OSM    O1411309   2.379   4.282  10.903  0.3153 -0.2052 -0.0980
  110OSM    O1111310   2.376   4.260  10.645 -0.1660  0.1434 -1.0193
  110OSM    O1211311   2.444   4.062  10.795  0.3671 -0.3433 -0.2020
  110OSM    C1S11312   2.301   4.219  10.536  0.5985 -0.1471 -0.0173
  110OSM    H1S11313   2.199   4.262  10.540  1.4119  2.1476 -1.7055
  110OSM    H1T11314   2.291   4.108  10.537 -0.5615 -0.0921 -1.3627
  110OSM     NF11315   2.284   4.186  10.293 -0.6311 -0.1328  0.1465
  110OSM    HNF11316   2.338   4.120  10.241 -0.1580  0.3705 -0.0111
  110OSM    C2S11317   2.359   4.260  10.394 -0.5997  0.3093 -0.0955
  110OSM    H2S11318   2.338   4.369  10.389 -0.6574  0.3174  0.3244
  110OSM    C3S11319   2.512   4.234  10.381  0.2172  0.6692  0.3468
  110OSM    H3S11320   2.533   4.126  10.394 -0.7030 -0.1003 -3.3217
  110OSM     O311321   2.588   4.285  10.485 -0.3588  0.0383  0.0053
  110OSM    HO311322   2.516   4.308  10.544 -0.8113  0.3568 -0.6636
  110OSM    C4S11323   2.567   4.272  10.241  0.2249 -0.1928 -0.6392
  110OSM    H4S11324   2.577   4.187  10.171 -0.7293 -0.1699 -0.8138
  110OSM    C5S11325   2.605   4.394  10.215 -0.2116 -0.6112  0.5152
  110OSM    H5S11326   2.593   4.468  10.296  1.3526  2.2695 -1.7008
  110OSM    C6S11327   2.641   4.453  10.090  0.5762 -0.1357 -0.1923
  110OSM    H6S11328   2.744   4.494  10.081  0.4045  0.0095 -2.0098
  110OSM    H6T11329   2.582   4.547  10.082  1.1629  0.1789 -0.9919
  110OSM    C7S11330   2.604   4.380   9.961  0.2360  0.0536  0.2978
  110OSM    H7S11331   2.494   4.373   9.950  0.2782 -2.8135  0.9876
  110OSM    H7T11332   2.646   4.277   9.969 -1.6142 -0.9430 -1.7200
  110OSM    C8S11333   2.663   4.449   9.843 -0.6864 -0.8720  0.7816
  110OSM    H8S11334   2.771   4.471   9.848 -0.7933 -0.1236 -0.0580
  110OSM    H8T11335   2.614   4.546   9.822  1.7475  0.0430 -1.2303
  110OSM    C9S11336   2.641   4.353   9.718 -0.0809 -0.5811 -0.0203
  110OSM    H9S11337   2.544   4.300   9.722  0.7248 -2.0515  0.5578
  110OSM    H9T11338   2.726   4.282   9.718  1.2288  0.9322  0.6796
  110OSM   C10S11339   2.649   4.424   9.584  0.2707 -0.7650 -0.5917
  110OSM   H10S11340   2.734   4.495   9.591  0.2521 -0.8068  0.1325
  110OSM   H10T11341   2.556   4.486   9.584  0.6233 -0.2265 -1.0741
  110OSM   C11S11342   2.641   4.328   9.470 -0.4696 -0.1594  0.4660
  110OSM   H11S11343   2.543   4.276   9.471 -0.9257  0.6233 -0.6411
  110OSM   H11T11344   2.730   4.261   9.466 -1.3268 -1.2694 -0.5678
  110OSM   C12S11345   2.653   4.406   9.342  0.6285 -1.0179 -0.0004
  110OSM   H12S11346   2.756   4.446   9.330 -0.0692  1.1841  0.7824
  110OSM   H12T11347   2.593   4.497   9.367 -0.2149 -0.9918 -1.9430
  110OSM   C13S11348   2.580   4.335   9.227 -0.2217  0.0158  1.0443
  110OSM   H13S11349   2.469   4.335   9.234 -0.3019  0.5655  0.0255
  110OSM   H13T11350   2.624   4.234   9.211  1.5753  0.7332  1.2097
  110OSM   C14S11351   2.615   4.410   9.093 -0.4132 -0.2649  0.7210
  110OSM   H14S11352   2.720   4.445   9.092 -0.8118  1.0698 -1.4754
  110OSM   H14T11353   2.541   4.491   9.076  1.0800  1.3442  1.5689
  110OSM   C15S11354   2.613   4.327   8.965 -0.2709  0.8228  0.9248
  110OSM   H15S11355   2.505   4.303   8.950 -0.5263  1.6376  1.4078
  110OSM   H15T11356   2.659   4.228   8.988 -2.0756 -0.2490  0.1365
  110OSM   C16S11357   2.681   4.389   8.842  0.0208  0.0999  0.5592
  110OSM   H16S11358   2.631   4.481   8.804 -1.5736 -1.4735 -1.3524
  110OSM   H16T11359   2.657   4.318   8.761 -2.6849 -0.8520  2.0407
  110OSM   C17S11360   2.837   4.402   8.845  0.2366  0.9541 -0.2849
  110OSM   H17S11361   2.882   4.302   8.863 -0.9120  0.2766 -1.0421
  110OSM   H17T11362   2.870   4.476   8.921  0.5017  1.0107 -0.4516
  110OSM   C18S11363   2.892   4.451   8.716  0.1412  0.7614 -0.2263
  110OSM   H18S11364   2.865   4.557   8.698  0.6471  0.6751 -1.5768
  110OSM   H18T11365   2.863   4.386   8.630 -0.1553  1.5148 -0.6991
  110OSM   H18U11366   3.002   4.433   8.715  0.2017  1.1307 -1.0696
  110OSM    C1F11367   2.153   4.202  10.274  0.1194 -0.5876  1.0682
  110OSM     OF11368   2.103   4.302  10.317 -0.2601  0.5047  0.2149
  110OSM    C2F11369   2.082   4.090  10.205 -0.1937 -0.2098 -0.1873
  110OSM    H2F11370   2.031   4.031  10.284 -2.5831 -0.1399 -1.5751
  110OSM    H2G11371   2.156   4.024  10.156 -0.8905 -1.8640  0.8960
  110OSM    C3F11372   1.978   4.138  10.107  0.0038  0.1384 -0.1163
  110OSM    H3F11373   1.905   4.203  10.159 -1.8493 -1.1529 -0.9850
  110OSM    H3G11374   1.932   4.042  10.075 -0.4943 -0.3795  1.9696
  110OSM    C4F11375   2.030   4.196   9.971 -0.4216 -0.3486 -0.1168
  110OSM    H4F11376   2.050   4.305   9.980 -1.9488 -0.1469  1.4794
  110OSM    H4G11377   1.944   4.186   9.901 -0.8787  0.3408  0.3289
  110OSM    C5F11378   2.147   4.122   9.913 -0.5932 -0.5908 -0.2090
  110OSM    H5F11379   2.135   4.015   9.937 -1.9735 -0.4196 -0.0529
  110OSM    H5G11380   2.246   4.147   9.958  1.3191 -1.9481 -3.3186
  110OSM    C6F11381   2.162   4.138   9.760 -0.3816 -0.1719  0.2464
  110OSM    H6F11382   2.057   4.146   9.726 -0.1721  0.2828 -0.3063
  110OSM    H6G11383   2.196   4.042   9.715 -0.2727  0.3612 -0.8401
  110OSM    C7F11384   2.254   4.254   9.704 -0.0724 -0.1565  0.7738
  110OSM    H7F11385   2.354   4.221   9.739 -0.6593  0.4933  3.3088
  110OSM    H7G11386   2.220   4.343   9.762  0.1012 -0.0919  0.7750
  110OSM    C8F11387   2.237   4.279   9.551  0.5900 -0.3401  0.6861
  110OSM    H8F11388   2.267   4.184   9.503  3.7385  0.6508  0.4614
  110OSM    H8G11389   2.314   4.351   9.516 -0.1981 -0.4393 -1.3759
  110OSM    C9F11390   2.100   4.329   9.516  0.5194 -0.5595 -0.4623
  110OSM    H9F11391   2.047   4.400   9.581 -1.3669 -0.3750 -2.0824
  110OSM   C10F11392   2.027   4.293   9.410 -0.8231 -0.9908  0.8224
  110OSM   H10F11393   1.941   4.354   9.378 -0.4053 -1.2361 -0.8576
  110OSM   C11F11394   2.070   4.207   9.293  0.4332  0.0083  0.6352
  110OSM   H11F11395   2.036   4.101   9.301 -0.8591  0.2123 -1.3778
  110OSM   H11G11396   2.180   4.197   9.297  0.2945 -1.2932  3.6765
  110OSM   C12F11397   2.013   4.276   9.167  0.2101 -0.4518 -0.9552
  110OSM   H12F11398   2.050   4.380   9.172  0.5272 -0.6322  1.7173
  110OSM   H12G11399   1.902   4.269   9.169  0.1270  0.4723  1.5862
  110OSM   C13F11400   2.082   4.215   9.049  0.4112  0.0261  0.1687
  110OSM   H13F11401   2.079   4.104   9.059 -1.5412 -0.3492 -3.0300
  110OSM   H13G11402   2.187   4.250   9.034  0.0977  0.3893 -1.4471
  110OSM   C14F11403   1.994   4.239   8.914  0.7048 -0.0605  0.0208
  110OSM   H14F11404   1.985   4.349   8.896 -1.1553 -0.0368  0.9254
  110OSM   H14G11405   1.893   4.197   8.935  0.2705  0.6998 -0.4889
  110OSM   C15F11406   2.044   4.159   8.791 -0.0769 -0.4124  0.0032
  110OSM   H15F11407   2.029   4.052   8.818  0.0559 -0.3493  0.3368
  110OSM   H15G11408   2.154   4.172   8.786 -0.1727  0.5106  0.1216
  110OSM   C16F11409   1.979   4.191   8.658  0.2837  0.3479  0.9434
  110OSM   H16F11410   1.869   4.200   8.668  0.0468  0.7514 -1.5411
  110OSM   H16G11411   1.987   4.108   8.585 -1.0976  2.3325 -1.6120
  110OSM   C17F11412   2.032   4.312   8.585  0.4711  0.5149  0.3324
  110OSM   H17F11413   2.116   4.280   8.521  0.3934 -2.6067  1.5856
  110OSM   H17G11414   2.074   4.385   8.658  0.2202  0.3155  0.6823
  110OSM   C18F11415   1.930   4.388   8.506  0.4057  0.4833 -0.4688
  110OSM   H18F11416   1.966   4.487   8.471 -0.2475  0.6067 -0.8054
  110OSM   H18G11417   1.848   4.413   8.577  0.8338  0.9526 -0.1374
  110OSM   H18H11418   1.881   4.315   8.438  0.1635  0.3797 -0.1857
  111OSM      N11419   2.881   1.735  10.622  0.5293  0.2396  0.2835
  111OSM    C1511420   2.979   1.627  10.657 -0.2013 -0.5639 -0.0254
  111OSM   H15A11421   2.933   1.533  10.683  1.4805 -1.0295  1.4566
  111OSM   H15B11422   3.041   1.643  10.744 -0.6991  0.8445  0.0805
  111OSM   H15C11423   3.058   1.614  10.584  0.9808  1.1379  0.8919
  111OSM    C1411424   2.811   1.710  10.494 -1.1125  0.2498  0.3725
  111OSM   H14A11425   2.881   1.722  10.413 -0.4216  0.6771  1.0139
  111OSM   H14B11426   2.741   1.791  10.477 -3.4232 -1.6982  0.1435
  111OSM   H14C11427   2.754   1.621  10.476 -0.0313  0.0781 -2.8607
  111OSM    C1311428   2.772   1.735  10.718  0.4354  0.6472  0.2935
  111OSM   H13A11429   2.738   1.632  10.713  0.6074  0.5439  1.1294
  111OSM   H13B11430   2.689   1.798  10.688 -0.3491 -0.9069 -0.9775
  111OSM   H13C11431   2.803   1.744  10.821 -2.9513  1.3135  1.3931
  111OSM    C1211432   2.946   1.871  10.610 -0.3473 -0.1465 -0.2658
  111OSM   H12A11433   2.954   1.916  10.708 -0.4081 -0.3943 -0.1481
  111OSM   H12B11434   2.883   1.940  10.555  1.0491  2.9051  1.6864
  111OSM    C1111435   3.086   1.883  10.536 -0.8423  0.2095 -0.1098
  111OSM   H11A11436   3.103   1.991  10.520  3.5497 -0.1136  1.0833
  111OSM   H11B11437   3.071   1.836  10.436 -1.6273 -0.9840  0.5456
  111OSM      P11438   3.328   1.773  10.558  0.2781 -0.0105 -0.0123
  111OSM    O1311439   3.431   1.752  10.662 -0.4126 -1.0070  0.4303
  111OSM    O1411440   3.298   1.671  10.452 -0.3382  0.5425  0.6345
  111OSM    O1111441   3.380   1.892  10.474  0.1125 -0.1783  0.2937
  111OSM    O1211442   3.187   1.825  10.621 -0.0562  0.3234  0.1865
  111OSM    C1S11443   3.494   1.889  10.390  0.0885  0.1584 -0.5622
  111OSM    H1S11444   3.537   1.787  10.402 -0.1204  0.1049 -0.2459
  111OSM    H1T11445   3.563   1.967  10.427  0.1017 -0.1904  0.1760
  111OSM     NF11446   3.578   1.887  10.160 -0.5180 -0.1000  0.3778
  111OSM    HNF11447   3.604   1.974  10.120 -0.2395 -0.9602 -1.4201
  111OSM    C2S11448   3.459   1.902  10.238 -0.2893 -0.1256 -0.5236
  111OSM    H2S11449   3.381   1.825  10.220 -1.6758  0.4894  2.2657
  111OSM    C3S11450   3.384   2.037  10.207 -0.0865  0.3754  0.6943
  111OSM    H3S11451   3.459   2.116  10.228  1.5057 -0.5117 -1.3225
  111OSM     O311452   3.274   2.075  10.288 -0.4919 -0.5215 -0.2763
  111OSM    HO311453   3.255   2.003  10.349 -1.4111  1.6289  2.1602
  111OSM    C4S11454   3.359   2.048  10.054  0.1961 -0.4690 -0.2704
  111OSM    H4S11455   3.450   2.056   9.992 -0.2400 -4.3390 -1.6613
  111OSM    C5S11456   3.238   2.027  10.001 -0.1843 -0.5883  0.3187
  111OSM    H5S11457   3.152   2.004  10.065  0.5426  1.2476  2.0367
  111OSM    C6S11458   3.215   2.027   9.850 -0.1067  1.1636 -0.2042
  111OSM    H6S11459   3.148   2.110   9.822 -1.5689 -0.7277 -2.7800
  111OSM    H6T11460   3.144   1.944   9.827 -0.4717  1.7414 -1.2310
  111OSM    C7S11461   3.338   2.010   9.755  0.8365  0.0500  0.1377
  111OSM    H7S11462   3.397   1.920   9.784  1.2098  0.0953 -0.4624
  111OSM    H7T11463   3.413   2.087   9.781 -0.3723  1.0715  0.7067
  111OSM    C8S11464   3.302   2.012   9.611 -0.6075  0.5385  0.8713
  111OSM    H8S11465   3.253   2.103   9.572  0.0839  0.7771  0.5498
  111OSM    H8T11466   3.243   1.919   9.593  1.3464 -1.0619  2.2909
  111OSM    C9S11467   3.424   1.988   9.523 -0.2057 -0.2354 -0.5144
  111OSM    H9S11468   3.479   1.904   9.570  2.6331  1.0249 -1.3568
  111OSM    H9T11469   3.493   2.074   9.536  0.7545 -0.9790 -0.6082
  111OSM   C10S11470   3.389   1.956   9.376 -0.4011  0.1831 -0.1418
  111OSM   H10S11471   3.282   1.925   9.370  0.1364 -1.9228  0.2348
  111OSM   H10T11472   3.451   1.872   9.339  0.8693  0.8763  0.3800
  111OSM   C11S11473   3.408   2.081   9.279 -0.2797 -0.0624 -1.1554
  111OSM   H11S11474   3.509   2.127   9.292 -0.3853 -0.3125  0.7358
  111OSM   H11T11475   3.337   2.161   9.307 -0.6923 -0.8139 -0.0061
  111OSM   C12S11476   3.413   2.054   9.132  0.2202  0.3323  0.2689
  111OSM   H12S11477   3.397   2.150   9.078 -2.2352 -1.1669 -1.9029
  111OSM   H12T11478   3.321   1.997   9.107  1.9022 -2.3650 -0.1645
  111OSM   C13S11479   3.529   1.960   9.087  0.2151  0.0520 -0.1893
  111OSM   H13S11480   3.513   1.870   9.149  0.8331 -1.1552 -1.7181
  111OSM   H13T11481   3.624   2.011   9.112 -1.2648  2.1091  1.6606
  111OSM   C14S11482   3.515   1.922   8.934 -0.9046  0.4530 -0.2834
  111OSM   H14S11483   3.529   2.020   8.884 -1.3729  1.0661  0.7603
  111OSM   H14T11484   3.411   1.887   8.916 -1.1715  0.8070  0.5203
  111OSM   C15S11485   3.613   1.837   8.863 -0.1322  0.1260  0.8518
  111OSM   H15S11486   3.637   1.748   8.926  2.6937  0.1672 -0.0086
  111OSM   H15T11487   3.708   1.893   8.851 -0.2498  0.2121  0.2956
  111OSM   C16S11488   3.564   1.790   8.726  0.0849 -0.6331 -0.5790
  111OSM   H16S11489   3.532   1.879   8.668  1.4298 -0.6526 -1.4002
  111OSM   H16T11490   3.480   1.723   8.753  0.2178 -0.5194  0.1511
  111OSM   C17S11491   3.675   1.721   8.644  0.0332  0.1675 -0.1631
  111OSM   H17S11492   3.715   1.631   8.696  1.7135  0.4075 -0.9637
  111OSM   H17T11493   3.762   1.788   8.628 -0.8581  1.3946 -0.0092
  111OSM   C18S11494   3.607   1.680   8.517 -0.1933 -0.5625  0.8657
  111OSM   H18S11495   3.525   1.609   8.539  0.5411 -1.1415  1.8404
  111OSM   H18T11496   3.678   1.637   8.443 -0.4455 -0.4999  0.5839
  111OSM   H18U11497   3.549   1.759   8.464 -3.0402 -2.3551  1.1149
  111OSM    C1F11498   3.644   1.770  10.152  0.0529 -0.0593  0.0019
  111OSM     OF11499   3.588   1.665  10.177  0.1517  0.3057 -0.2677
  111OSM    C2F11500   3.788   1.782  10.106 -0.1158 -0.0165  0.3837
  111OSM    H2F11501   3.847   1.739  10.190 -0.2959  0.3715  0.7093
  111OSM    H2G11502   3.819   1.886  10.083  0.3106 -0.2431 -0.1143
  111OSM    C3F11503   3.815   1.689   9.988  0.0520  1.0898  0.4909
  111OSM    H3F11504   3.808   1.588  10.034 -1.5202  1.9712  2.3666
  111OSM    H3G11505   3.922   1.708   9.964  0.5996  1.9415  3.2328
  111OSM    C4F11506   3.722   1.710   9.865 -0.3121  0.2698  0.1199
  111OSM    H4F11507   3.735   1.814   9.829  1.4285 -0.0899 -0.3665
  111OSM    H4G11508   3.619   1.679   9.893  0.5138 -1.8501  1.0268
  111OSM    C5F11509   3.756   1.633   9.735  0.0019  0.8107 -0.1298
  111OSM    H5F11510   3.768   1.527   9.765  0.9489  0.9233 -0.0730
  111OSM    H5G11511   3.857   1.672   9.711 -0.0083  1.5434  0.9252
  111OSM    C6F11512   3.658   1.643   9.616 -0.0385  0.0196  0.5432
  111OSM    H6F11513   3.632   1.748   9.592  0.4193 -0.3103 -1.5896
  111OSM    H6G11514   3.579   1.569   9.641  1.3159 -1.9430 -0.7355
  111OSM    C7F11515   3.725   1.603   9.483 -0.5874  0.1106  0.0002
  111OSM    H7F11516   3.723   1.492   9.490 -0.9488  0.0863 -0.4296
  111OSM    H7G11517   3.833   1.626   9.482 -0.6398  0.4355  0.9058
  111OSM    C8F11518   3.656   1.671   9.363 -0.6646  0.8273  0.2088
  111OSM    H8F11519   3.683   1.779   9.356  1.6562  0.2288 -1.3199
  111OSM    H8G11520   3.545   1.668   9.368 -0.6514  0.0181  0.0496
  111OSM    C9F11521   3.696   1.604   9.236 -0.2829 -0.2320 -0.4503
  111OSM    H9F11522   3.631   1.521   9.207  0.9774 -0.2735 -3.5691
  111OSM   C10F11523   3.798   1.639   9.155  0.5419 -0.9029 -0.0517
  111OSM   H10F11524   3.821   1.578   9.066  1.6050 -1.5131  0.6115
  111OSM   C11F11525   3.898   1.757   9.176 -0.3760  0.2215  0.0991
  111OSM   H11F11526   3.956   1.731   9.267 -2.3634 -0.3692  1.2745
  111OSM   H11G11527   3.835   1.845   9.201  0.3119  0.9683 -0.7828
  111OSM   C12F11528   3.987   1.778   9.045 -0.3475  0.2158 -0.6098
  111OSM   H12F11529   3.910   1.786   8.966 -0.5851  2.3511 -0.2321
  111OSM   H12G11530   4.048   1.690   9.015  1.7538  1.8902 -1.5129
  111OSM   C13F11531   4.071   1.902   9.062  0.5929 -0.0644  0.3779
  111OSM   H13F11532   4.137   1.886   9.151 -0.7554 -0.6221  1.3110
  111OSM   H13G11533   3.992   1.975   9.091 -1.0969 -2.3298  1.7396
  111OSM   C14F11534   4.165   1.945   8.948 -0.2795 -0.1343  0.3287
  111OSM   H14F11535   4.173   2.055   8.934 -3.5548  0.2882  1.0157
  111OSM   H14G11536   4.129   1.894   8.856 -2.7341  0.0320  1.1220
  111OSM   C15F11537   4.307   1.890   8.978  0.4135  0.6749  0.4728
  111OSM   H15F11538   4.299   1.783   9.006 -1.4295  1.0940  1.7462
  111OSM   H15G11539   4.356   1.938   9.065  2.0275 -0.4534  0.2191
  111OSM   C16F11540   4.403   1.906   8.862 -0.7137 -0.1684 -0.9613
  111OSM   H16F11541   4.402   2.015   8.840  1.1023 -0.0467 -0.5953
  111OSM   H16G11542   4.362   1.843   8.781  0.7514 -1.9800 -0.3645
  111OSM   C17F11543   4.556   1.881   8.889 -0.2213  0.3199  0.1448
  111OSM   H17F11544   4.603   1.850   8.793  0.5738 -0.7366  0.8422
  111OSM   H17G11545   4.557   1.795   8.960 -0.8162  0.5703  0.4585
  111OSM   C18F11546   4.629   2.009   8.929 -0.2403  0.0367 -0.5952
  111OSM   H18F11547   4.731   1.977   8.959 -0.5007  1.8175  2.7068
  111OSM   H18G11548   4.581   2.048   9.021 -1.3631  0.6527 -1.4195
  111OSM   H18H11549   4.624   2.087   8.851 -1.5332  2.4973  1.7893
  112OSM      N11550   2.798   0.000  10.463  0.2583 -0.3177 -0.0597
  112OSM    C1511551   2.812   0.007  10.312  0.3720 -0.0193 -0.6504
  112OSM   H15A11552   2.767  -0.080  10.268  0.4329  0.0749 -0.9052
  112OSM   H15B11553   2.914   0.019  10.278 -0.4503  0.1259 -3.3045
  112OSM   H15C11554   2.761   0.094  10.273 -0.6782 -0.5829 -0.5615
  112OSM    C1411555   2.933   0.029  10.514  0.2630  0.0196  0.0641
  112OSM   H14A11556   2.946   0.008  10.619 -2.8246 -0.2391  0.4814
  112OSM   H14B11557   2.965   0.128  10.485 -1.1896  0.1365 -1.2874
  112OSM   H14C11558   3.010  -0.025  10.460  0.5722  1.4768 -1.0093
  112OSM    C1311559   2.703   0.105  10.518 -0.2188  0.0835  0.5772
  112OSM   H13A11560   2.684   0.085  10.622 -0.8949 -1.2313  0.2290
  112OSM   H13B11561   2.605   0.105  10.473 -0.5503  1.8251  1.2228
  112OSM   H13C11562   2.747   0.203  10.508 -0.4739  0.1452 -0.0123
  112OSM    C1211563   2.759  -0.139  10.508 -1.0370 -0.0790 -0.7612
  112OSM   H12A11564   2.819  -0.217  10.464  0.9000  0.2555  1.1427
  112OSM   H12B11565   2.655  -0.160  10.486 -2.0404  1.1872  2.1973
  112OSM    C1111566   2.791  -0.163  10.662  0.7425  0.4296  1.2052
  112OSM   H11A11567   2.898  -0.135  10.675  1.0973  1.0157 -2.0074
  112OSM   H11B11568   2.787  -0.273  10.680  1.2828 -0.1859 -1.8163
  112OSM      P11569   2.547  -0.137  10.761 -0.1710 -0.1679 -0.3739
  112OSM    O1311570   2.530  -0.217  10.886  0.1141  0.3452  0.8851
  112OSM    O1411571   2.467  -0.010  10.755 -0.0192 -0.0649  0.5563
  112OSM    O1111572   2.508  -0.220  10.630 -1.0678 -0.2272  0.6131
  112OSM    O1211573   2.699  -0.089  10.747 -0.1060  0.3116 -0.5756
  112OSM    C1S11574   2.385  -0.182  10.551 -0.0817  0.2493  0.1323
  112OSM    H1S11575   2.394  -0.082  10.504  1.3478 -0.2270 -0.6652
  112OSM    H1T11576   2.302  -0.184  10.625  1.3412  1.3242  1.8312
  112OSM     NF11577   2.240  -0.226  10.348  0.3528 -0.3958  0.6349
  112OSM    HNF11578   2.145  -0.238  10.375 -0.0901  1.3560 -0.0183
  112OSM    C2S11579   2.346  -0.289  10.433  0.7619 -0.8680 -0.4605
  112OSM    H2S11580   2.439  -0.312  10.377  1.3648 -0.0240  0.1559
  112OSM    C3S11581   2.299  -0.420  10.501 -0.5048  0.3392  0.2570
  112OSM    H3S11582   2.200  -0.412  10.551 -0.6517 -0.4417  0.1010
  112OSM     O311583   2.381  -0.471  10.602 -0.5659 -0.8722 -0.0570
  112OSM    HO311584   2.437  -0.396  10.622 -3.0456  0.9626  0.3402
  112OSM    C4S11585   2.271  -0.533  10.395 -0.3695 -0.1651  0.1503
  112OSM    H4S11586   2.357  -0.581  10.345  0.3280  0.5791  0.6111
  112OSM    C5S11587   2.152  -0.593  10.371  0.9104 -0.2191  0.3378
  112OSM    H5S11588   2.067  -0.557  10.431 -1.0507 -1.0641 -1.7737
  112OSM    C6S11589   2.127  -0.702  10.271 -0.3943 -0.6954  0.6341
  112OSM    H6S11590   2.020  -0.717  10.245 -0.4547  2.9876 -2.2206
  112OSM    H6T11591   2.171  -0.802  10.290  0.2681 -1.4597 -3.7265
  112OSM    C7S11592   2.172  -0.660  10.130  0.4992  0.8363  0.7845
  112OSM    H7S11593   2.281  -0.641  10.120  0.3869  0.2613 -2.8166
  112OSM    H7T11594   2.126  -0.561  10.108 -0.1623  0.8440  2.1185
  112OSM    C8S11595   2.137  -0.763  10.015 -0.0059 -0.6107  0.4004
  112OSM    H8S11596   2.029  -0.784  10.000  0.1974 -2.2742  1.0451
  112OSM    H8T11597   2.180  -0.862  10.041  2.5107 -0.0714 -1.3180
  112OSM    C9S11598   2.209  -0.737   9.882  0.6180  0.4022 -0.2206
  112OSM    H9S11599   2.318  -0.758   9.882  0.6808  0.4037 -2.7104
  112OSM    H9T11600   2.195  -0.627   9.884 -4.9884  0.0132 -1.1675
  112OSM   C10S11601   2.149  -0.795   9.755 -0.3789  0.0902  0.0250
  112OSM   H10S11602   2.189  -0.748   9.662 -0.1306  0.2783  0.2264
  112OSM   H10T11603   2.041  -0.771   9.756 -0.4275 -0.0855 -0.6998
  112OSM   C11S11604   2.180  -0.942   9.721 -0.0734 -0.4988 -0.7724
  112OSM   H11S11605   2.165  -1.010   9.807 -1.7868 -0.7176 -1.2031
  112OSM   H11T11606   2.286  -0.946   9.689  1.0821  2.3471  2.1553
  112OSM   C12S11607   2.104  -0.994   9.604 -0.5655  0.0406  0.4832
  112OSM   H12S11608   1.995  -0.975   9.611 -1.0800 -1.7037 -1.6560
  112OSM   H12T11609   2.119  -1.103   9.592  2.9476  0.5674 -1.3565
  112OSM   C13S11610   2.148  -0.946   9.463  0.1272 -0.0041  0.1752
  112OSM   H13S11611   2.256  -0.952   9.439 -0.0431  2.2850 -1.4867
  112OSM   H13T11612   2.129  -0.836   9.458  0.9308  0.2110  1.3416
  112OSM   C14S11613   2.061  -1.003   9.351  0.1732  0.4400 -0.4167
  112OSM   H14S11614   1.958  -0.963   9.359 -0.2428 -0.9435  2.9210
  112OSM   H14T11615   2.053  -1.114   9.358 -2.0346  0.6309  1.3561
  112OSM   C15S11616   2.123  -0.962   9.214 -0.1740 -0.2105  0.0150
  112OSM   H15S11617   2.223  -1.006   9.193 -1.5589 -2.7375 -1.7040
  112OSM   H15T11618   2.128  -0.851   9.221  2.1729 -0.3760  4.2566
  112OSM   C16S11619   2.027  -1.003   9.096 -0.5181  1.3088 -0.0301
  112OSM   H16S11620   1.921  -0.983   9.123 -1.5904 -0.5189 -2.5176
  112OSM   H16T11621   2.030  -1.114   9.082 -2.9217  1.0651  0.8936
  112OSM   C17S11622   2.060  -0.958   8.954  0.3543 -0.0576  0.5496
  112OSM   H17S11623   2.013  -0.860   8.934 -0.0131 -0.3644 -0.1330
  112OSM   H17T11624   2.022  -1.023   8.872  4.2093  0.2372 -1.7179
  112OSM   C18S11625   2.201  -0.950   8.914  0.1364 -0.5992  0.3467
  112OSM   H18S11626   2.258  -0.891   8.989  1.5483 -0.2106 -0.9780
  112OSM   H18T11627   2.203  -0.899   8.815 -0.7527 -1.4365 -0.1212
  112OSM   H18U11628   2.256  -1.046   8.913  1.2521 -0.0064 -1.7249
  112OSM    C1F11629   2.265  -0.125  10.266  0.1728 -0.0650 -1.2148
  112OSM     OF11630   2.382  -0.110  10.227 -0.5400  0.1823 -0.0031
  112OSM    C2F11631   2.156  -0.021  10.229  0.3856 -0.4948 -0.2210
  112OSM    H2F11632   2.202   0.080  10.217 -1.3882  0.3032 -0.7101
  112OSM    H2G11633   2.084  -0.012  10.313  0.6281 -0.7711  0.0153
  112OSM    C3F11634   2.097  -0.059  10.099  0.4764 -0.6899  0.1845
  112OSM    H3F11635   2.011   0.003  10.068 -0.4524 -2.8177 -1.7943
  112OSM    H3G11636   2.053  -0.160  10.110 -1.6840  0.1357 -0.4141
  112OSM    C4F11637   2.187  -0.042   9.974  0.5315 -0.4753  0.5849
  112OSM    H4F11638   2.273  -0.109   9.994  1.1147  0.4783  1.4052
  112OSM    H4G11639   2.213   0.065   9.958  1.3827 -0.7058  0.3681
  112OSM    C5F11640   2.108  -0.101   9.856 -1.0082  0.1137 -0.0380
  112OSM    H5F11641   2.018  -0.040   9.834  0.7587  2.8991  0.0019
  112OSM    H5G11642   2.076  -0.206   9.868  0.9832 -0.6877 -1.2444
  112OSM    C6F11643   2.201  -0.100   9.730  0.5596 -0.7905 -0.1979
  112OSM    H6F11644   2.292  -0.158   9.759  0.9682  0.0381  0.2068
  112OSM    H6G11645   2.235   0.006   9.722  0.8486 -0.9805 -1.8398
  112OSM    C7F11646   2.144  -0.151   9.608  0.1836 -0.0564  1.2886
  112OSM    H7F11647   2.049  -0.096   9.594  1.0079  1.4706  1.5006
  112OSM    H7G11648   2.122  -0.260   9.619 -1.1928  0.1716  1.0193
  112OSM    C8F11649   2.217  -0.144   9.478 -0.6849 -0.1484 -0.1830
  112OSM    H8F11650   2.148  -0.177   9.397 -1.4830 -0.6294  0.6728
  112OSM    H8G11651   2.291  -0.226   9.488 -1.1770 -0.4943  0.8099
  112OSM    C9F11652   2.281  -0.008   9.451 -0.2610  0.8357 -0.1775
  112OSM    H9F11653   2.328   0.043   9.535 -1.9810  1.8409  0.2251
  112OSM   C10F11654   2.271   0.052   9.336 -0.7103  0.0547  0.0797
  112OSM   H10F11655   2.318   0.147   9.310  3.7588 -1.6232  1.1894
  112OSM   C11F11656   2.202  -0.005   9.215  0.1980 -0.2448  0.0672
  112OSM   H11F11657   2.188   0.076   9.140  0.8629  0.9387  1.1690
  112OSM   H11G11658   2.099  -0.042   9.234 -0.6250  0.4054 -2.6445
  112OSM   C12F11659   2.276  -0.118   9.140  0.7737 -0.4166  0.6931
  112OSM   H12F11660   2.258  -0.205   9.207 -0.3142 -1.0551 -0.3916
  112OSM   H12G11661   2.378  -0.077   9.131 -0.4611  2.4837 -1.9633
  112OSM   C13F11662   2.228  -0.134   8.994  0.4059 -0.8229  0.3464
  112OSM   H13F11663   2.248  -0.041   8.937 -3.0906 -0.3589 -0.3738
  112OSM   H13G11664   2.120  -0.155   8.981  0.2649  0.0115  0.1124
  112OSM   C14F11665   2.290  -0.253   8.920  0.0972  0.1726 -0.0245
  112OSM   H14F11666   2.224  -0.285   8.836 -1.1981 -2.3175  1.8055
  112OSM   H14G11667   2.303  -0.335   8.994 -1.9322 -1.2333 -1.1317
  112OSM   C15F11668   2.426  -0.211   8.860  0.3415 -0.3960  0.1793
  112OSM   H15F11669   2.484  -0.147   8.930 -2.0555  2.2568 -0.0544
  112OSM   H15G11670   2.411  -0.145   8.771  1.4508 -0.5614 -0.1386
  112OSM   C16F11671   2.517  -0.324   8.817 -0.2358  0.3920 -0.4967
  112OSM   H16F11672   2.558  -0.379   8.904 -2.0737 -1.5501 -0.7400
  112OSM   H16G11673   2.602  -0.285   8.758  0.5924  0.1187  0.4875
  112OSM   C17F11674   2.449  -0.446   8.742  0.0751  0.2991  0.2498
  112OSM   H17F11675   2.395  -0.399   8.656  0.1283 -1.4524 -0.7844
  112OSM   H17G11676   2.372  -0.503   8.798 -2.6265 -0.3716 -3.6865
  112OSM   C18F11677   2.543  -0.557   8.693 -0.0931 -0.5003 -0.1859
  112OSM   H18F11678   2.623  -0.519   8.625  0.9388  0.3215  1.4067
  112OSM   H18G11679   2.482  -0.642   8.657 -2.4445 -0.8085  3.8829
  112OSM   H18H11680   2.606  -0.585   8.780 -0.5860  2.1292  1.1325
  113OSM      N11681   4.450   5.882  11.274  0.0374 -0.4477  0.0495
  113OSM    C1511682   4.399   5.835  11.406  0.0020  0.0075 -0.1433
  113OSM   H15A11683   4.422   5.730  11.417 -0.6082 -0.3167 -1.6826
  113OSM   H15B11684   4.293   5.845  11.420 -0.1559 -0.6329 -0.8561
  113OSM   H15C11685   4.441   5.897  11.485 -0.9313  0.4339  0.0290
  113OSM    C1411686   4.398   6.024  11.257  1.0492  0.0975 -0.4337
  113OSM   H14A11687   4.417   6.076  11.350 -0.8764  0.2708 -0.0918
  113OSM   H14B11688   4.291   6.029  11.238  1.1436  1.2965 -0.7267
  113OSM   H14C11689   4.439   6.079  11.173 -0.3490  1.3017 -0.3666
  113OSM    C1311690   4.599   5.887  11.296  0.4303  0.4010  0.2989
  113OSM   H13A11691   4.637   5.924  11.390  3.5351  3.0378 -1.7642
  113OSM   H13B11692   4.638   5.960  11.227 -0.9746  0.7237 -0.1838
  113OSM   H13C11693   4.642   5.792  11.267 -1.2202 -0.1617 -0.4020
  113OSM    C1211694   4.419   5.795  11.154 -0.3426  0.3693  0.5328
  113OSM   H12A11695   4.316   5.804  11.122 -0.1560 -0.4775 -0.3652
  113OSM   H12B11696   4.427   5.691  11.180 -0.1358 -0.2747 -1.8187
  113OSM    C1111697   4.494   5.818  11.017  0.1592 -0.4152  0.2226
  113OSM   H11A11698   4.451   5.757  10.934 -2.1168  1.1856  0.1170
  113OSM   H11B11699   4.594   5.775  11.037 -0.0849 -0.0751  2.4316
  113OSM      P11700   4.644   6.030  10.948  0.0642  0.3133  0.3342
  113OSM    O1311701   4.629   6.164  10.882  0.2229  0.2059 -0.2596
  113OSM    O1411702   4.732   6.018  11.061  0.2971  0.1159 -0.0756
  113OSM    O1111703   4.697   5.927  10.836 -0.3800 -0.0834 -0.4565
  113OSM    O1211704   4.502   5.961  10.984 -0.8082 -0.5372 -0.2302
  113OSM    C1S11705   4.603   5.889  10.736 -0.0227  0.0153  0.0569
  113OSM    H1S11706   4.610   5.966  10.656 -1.6519 -0.3947 -0.5229
  113OSM    H1T11707   4.497   5.883  10.768 -0.5469  0.6178 -1.4984
  113OSM     NF11708   4.555   5.717  10.563 -0.0947 -0.3194 -0.1808
  113OSM    HNF11709   4.481   5.653  10.584 -1.1440  1.3809  1.6143
  113OSM    C2S11710   4.646   5.757  10.671  0.5771  0.5524 -0.0428
  113OSM    H2S11711   4.733   5.792  10.611 -1.0334  3.8888 -0.6843
  113OSM    C3S11712   4.673   5.646  10.778 -0.1043  0.3550  0.3128
  113OSM    H3S11713   4.574   5.622  10.822 -0.0478 -3.3088 -1.1815
  113OSM     O311714   4.763   5.681  10.876 -0.2797  0.0966  0.2431
  113OSM    HO311715   4.758   5.777  10.873  1.0500  0.1489 -1.7861
  113OSM    C4S11716   4.717   5.520  10.712 -0.2488  0.4558 -0.3548
  113OSM    H4S11717   4.638   5.444  10.723  0.3134  0.1450  2.3915
  113OSM    C5S11718   4.824   5.490  10.642 -0.8716 -0.0807 -0.0577
  113OSM    H5S11719   4.897   5.572  10.636 -1.9898  0.8677 -1.6820
  113OSM    C6S11720   4.869   5.363  10.578  0.2141 -0.3126  0.2010
  113OSM    H6S11721   4.805   5.275  10.600 -2.0226  1.0340 -0.5214
  113OSM    H6T11722   4.975   5.332  10.591  0.6083 -0.4883 -2.8180
  113OSM    C7S11723   4.862   5.381  10.423 -0.5642  0.5512  0.3378
  113OSM    H7S11724   4.915   5.469  10.383 -0.0952  0.0744 -0.1043
  113OSM    H7T11725   4.756   5.407  10.402 -0.5221  0.7528  0.3767
  113OSM    C8S11726   4.894   5.255  10.336 -0.5680  0.7456  0.4269
  113OSM    H8S11727   4.847   5.163  10.377  0.0114  0.2484 -0.0178
  113OSM    H8T11728   5.004   5.238  10.339 -0.6551 -0.0993 -0.5177
  113OSM    C9S11729   4.860   5.272  10.186 -0.6372  0.1428 -0.3989
  113OSM    H9S11730   4.751   5.290  10.179 -0.7367  0.5770  1.7118
  113OSM    H9T11731   4.887   5.182  10.126 -0.8513  0.7306 -1.3993
  113OSM   C10S11732   4.942   5.390  10.121 -0.1826 -0.3398 -0.1679
  113OSM   H10S11733   5.048   5.378  10.151  0.7439  0.4669 -2.8509
  113OSM   H10T11734   4.910   5.490  10.159  1.3350  0.6166 -1.2771
  113OSM   C11S11735   4.931   5.389   9.970  0.9565  0.1426  0.4514
  113OSM   H11S11736   4.933   5.285   9.933 -2.1922 -0.1642  0.8798
  113OSM   H11T11737   5.000   5.454   9.912 -0.2729  1.2189  0.1339
  113OSM   C12S11738   4.800   5.434   9.903  0.1487  0.4883 -0.6509
  113OSM   H12S11739   4.780   5.540   9.930 -0.3493  0.0307  0.8489
  113OSM   H12T11740   4.712   5.378   9.940  0.3793  1.7280  1.9936
  113OSM   C13S11741   4.819   5.415   9.749 -0.0386  0.2201  0.9632
  113OSM   H13S11742   4.866   5.318   9.724 -0.3936  0.6326 -1.5699
  113OSM   H13T11743   4.887   5.495   9.713 -0.2422  0.0229  0.1215
  113OSM   C14S11744   4.689   5.421   9.669  0.6285 -0.5692  0.1512
  113OSM   H14S11745   4.664   5.529   9.662  0.8994 -0.6294 -2.8012
  113OSM   H14T11746   4.602   5.372   9.718  0.5219  0.3062  0.8674
  113OSM   C15S11747   4.694   5.380   9.523 -0.1536  0.3993 -0.5449
  113OSM   H15S11748   4.588   5.397   9.495 -0.1676  0.3669 -0.5121
  113OSM   H15T11749   4.709   5.271   9.511 -0.5455 -0.1032  2.6567
  113OSM   C16S11750   4.783   5.471   9.435 -0.1223 -0.0443 -0.1263
  113OSM   H16S11751   4.889   5.458   9.466 -0.3168 -0.7971  0.2370
  113OSM   H16T11752   4.758   5.579   9.450  0.6766 -0.0938  1.8479
  113OSM   C17S11753   4.766   5.443   9.287 -0.0562 -1.2698  0.0655
  113OSM   H17S11754   4.743   5.536   9.231 -0.2977 -1.4906 -0.2083
  113OSM   H17T11755   4.684   5.369   9.270 -2.1316  0.1528  2.9113
  113OSM   C18S11756   4.904   5.404   9.245 -1.2134  0.2372 -0.6856
  113OSM   H18S11757   4.977   5.488   9.246 -0.6098 -0.2345  1.5998
  113OSM   H18T11758   4.912   5.366   9.141 -1.2038  1.0105 -0.9737
  113OSM   H18U11759   4.938   5.315   9.302 -0.4318  1.8879  1.5912
  113OSM    C1F11760   4.560   5.782  10.439 -0.1887 -0.6346 -0.1924
  113OSM     OF11761   4.626   5.889  10.422  0.1271  0.5602 -0.6567
  113OSM    C2F11762   4.485   5.720  10.326  0.2906 -0.0837 -0.8644
  113OSM    H2F11763   4.413   5.793  10.282 -0.6104 -0.8834 -0.7639
  113OSM    H2G11764   4.432   5.631  10.367 -2.0885  1.9847  0.8785
  113OSM    C3F11765   4.581   5.683  10.211 -0.3860  0.3465  0.3165
  113OSM    H3F11766   4.660   5.612  10.243 -2.0459 -1.2937  0.9479
  113OSM    H3G11767   4.619   5.777  10.166 -0.8070  0.0902 -0.5985
  113OSM    C4F11768   4.507   5.605  10.102  0.3254  0.6945  0.7356
  113OSM    H4F11769   4.432   5.536  10.145  0.6220 -0.6819 -0.8704
  113OSM    H4G11770   4.579   5.542  10.045  0.4834  1.3079  0.2384
  113OSM    C5F11771   4.445   5.702   9.993  0.5737  0.4187  0.5631
  113OSM    H5F11772   4.519   5.779   9.963  1.0022  0.3015  1.3111
  113OSM    H5G11773   4.357   5.747  10.043 -0.7263 -0.4775 -0.8019
  113OSM    C6F11774   4.391   5.611   9.880 -0.0056 -0.3256  0.5801
  113OSM    H6F11775   4.347   5.521   9.929 -1.6274 -0.2238 -0.6049
  113OSM    H6G11776   4.477   5.578   9.818 -0.8682 -1.2244 -0.1944
  113OSM    C7F11777   4.287   5.677   9.779  0.3723 -0.1679 -0.4630
  113OSM    H7F11778   4.199   5.716   9.836  1.7659  0.9654  1.0327
  113OSM    H7G11779   4.253   5.603   9.704 -0.6109  0.1888 -0.3889
  113OSM    C8F11780   4.333   5.802   9.702 -0.6748  0.0570 -0.1264
  113OSM    H8F11781   4.363   5.875   9.780 -1.6226 -1.5264  1.8261
  113OSM    H8G11782   4.250   5.853   9.649 -2.2007  0.3047  2.3724
  113OSM    C9F11783   4.451   5.768   9.623 -0.2093  0.2490 -0.1195
  113OSM    H9F11784   4.536   5.736   9.685 -1.1052  2.4748  2.4118
  113OSM   C10F11785   4.474   5.775   9.491  0.9093  0.2121  0.0302
  113OSM   H10F11786   4.573   5.748   9.451  1.1578 -0.5704  1.1387
  113OSM   C11F11787   4.373   5.813   9.387 -0.4388 -0.2117 -0.1587
  113OSM   H11F11788   4.310   5.892   9.433 -0.6090  2.0076 -3.7817
  113OSM   H11G11789   4.311   5.728   9.352 -1.6896  0.0939  1.1874
  113OSM   C12F11790   4.454   5.884   9.281  0.0595 -0.0514  0.2224
  113OSM   H12F11791   4.522   5.967   9.310  1.3639 -0.4450 -1.5982
  113OSM   H12G11792   4.377   5.920   9.209  1.0184 -1.6052 -1.6796
  113OSM   C13F11793   4.531   5.784   9.204 -0.2496  0.5523 -0.4915
  113OSM   H13F11794   4.472   5.690   9.207 -0.6666  0.8036 -0.7872
  113OSM   H13G11795   4.629   5.754   9.248 -1.3791 -2.7526  0.0328
  113OSM   C14F11796   4.540   5.820   9.054  0.2288  0.3539 -0.3484
  113OSM   H14F11797   4.439   5.810   9.008  0.0696  1.7614 -0.3423
  113OSM   H14G11798   4.602   5.735   9.019  2.3382  0.8764  1.8253
  113OSM   C15F11799   4.593   5.960   9.019 -0.2442 -0.1422 -0.3592
  113OSM   H15F11800   4.680   5.973   9.086  0.2680 -0.2485 -0.9839
  113OSM   H15G11801   4.521   6.044   9.025  2.3944  2.3091 -0.6549
  113OSM   C16F11802   4.655   5.957   8.870 -0.0958  0.1037 -0.6202
  113OSM   H16F11803   4.564   5.932   8.811 -1.3900 -0.8335  1.6313
  113OSM   H16G11804   4.731   5.876   8.862  0.7047  0.7757  0.1133
  113OSM   C17F11805   4.712   6.088   8.825 -0.2958 -0.3976  0.2019
  113OSM   H17F11806   4.802   6.097   8.890 -1.2789 -1.3731  1.7684
  113OSM   H17G11807   4.644   6.171   8.852 -3.4282 -2.9566  0.9046
  113OSM   C18F11808   4.740   6.102   8.667 -0.0263  0.3979  0.4289
  113OSM   H18F11809   4.802   6.023   8.619 -0.2797 -0.2245  1.1022
  113OSM   H18G11810   4.786   6.201   8.646  1.1093 -0.5842 -2.1741
  113OSM   H18H11811   4.646   6.105   8.607 -0.2733 -0.5472  0.7550
  114OSM      N11812   4.480   3.539  11.477  0.5529  0.1818 -0.2242
  114OSM    C1511813   4.469   3.619  11.603 -0.4540 -0.4074 -0.4493
  114OSM   H15A11814   4.534   3.586  11.683  0.0126  1.8998  0.1862
  114OSM   H15B11815   4.368   3.618  11.641 -0.1332 -0.3646  0.4261
  114OSM   H15C11816   4.496   3.719  11.573  0.2651 -0.6524 -0.6417
  114OSM    C1411817   4.628   3.523  11.455 -0.2349 -1.2294  0.3403
  114OSM   H14A11818   4.657   3.459  11.373  0.0646  0.3110 -0.7925
  114OSM   H14B11819   4.682   3.488  11.542 -0.0668 -1.9630 -0.0537
  114OSM   H14C11820   4.664   3.619  11.423 -2.9858 -0.2276 -0.0612
  114OSM    C1311821   4.411   3.406  11.490  0.4493 -0.3173 -0.5353
  114OSM   H13A11822   4.434   3.360  11.585 -0.0372  0.1540 -0.1761
  114OSM   H13B11823   4.421   3.337  11.407 -3.4630  0.2104 -1.6562
  114OSM   H13C11824   4.308   3.435  11.506  1.3907  3.5112 -0.4905
  114OSM    C1211825   4.415   3.603  11.361 -0.3510 -0.6459 -0.0993
  114OSM   H12A11826   4.309   3.582  11.367 -0.7218  1.2275  0.9098
  114OSM   H12B11827   4.447   3.554  11.271 -0.0418 -1.0855  0.2457
  114OSM    C1111828   4.429   3.757  11.342 -0.6779  0.0866  0.6673
  114OSM   H11A11829   4.386   3.772  11.241 -0.3250  1.2194  0.6645
  114OSM   H11B11830   4.536   3.784  11.330 -0.4634 -1.5448 -2.0066
  114OSM      P11831   4.229   3.894  11.459  0.0774 -0.2881 -0.0048
  114OSM    O1311832   4.179   3.827  11.578  0.2233 -0.1200 -0.0485
  114OSM    O1411833   4.244   4.043  11.458 -0.5714  0.1164 -0.1686
  114OSM    O1111834   4.157   3.840  11.331 -0.1447 -0.2335  0.8808
  114OSM    O1211835   4.370   3.838  11.443  1.0218 -0.1702  0.4711
  114OSM    C1S11836   4.133   3.929  11.217 -0.1705  0.4780 -0.0214
  114OSM    H1S11837   4.220   3.997  11.204  0.6595 -0.3050  1.1878
  114OSM    H1T11838   4.047   3.993  11.247  0.1720  0.7696  0.3595
  114OSM     NF11839   4.115   3.924  10.982 -0.3369 -0.9868  0.3941
  114OSM    HNF11840   4.035   3.963  10.937  1.8203 -1.0976 -3.9954
  114OSM    C2S11841   4.107   3.838  11.092  0.9332 -0.1938  0.3396
  114OSM    H2S11842   4.191   3.766  11.095  2.5348  1.6278  2.0843
  114OSM    C3S11843   3.964   3.766  11.104 -0.0654 -0.5990 -0.3471
  114OSM    H3S11844   3.887   3.847  11.107  1.1641  0.5780  0.3552
  114OSM     O311845   3.944   3.702  11.233  0.4359 -0.2406  0.3075
  114OSM    HO311846   4.008   3.749  11.287  1.4007  0.4285 -1.3240
  114OSM    C4S11847   3.946   3.683  10.979 -0.5312  0.3277  0.2040
  114OSM    H4S11848   3.904   3.745  10.898  0.2844 -2.5284 -2.6408
  114OSM    C5S11849   3.958   3.548  10.966  0.0357 -0.2256 -0.0208
  114OSM    H5S11850   3.979   3.492  11.058 -0.6503  0.0333  0.2980
  114OSM    C6S11851   3.929   3.467  10.838  0.1564 -0.5647 -0.3045
  114OSM    H6S11852   3.873   3.374  10.859  1.2142 -0.3941  4.3678
  114OSM    H6T11853   4.029   3.434  10.804 -1.0597 -2.4163 -2.2985
  114OSM    C7S11854   3.851   3.537  10.723 -0.6073  0.1327  0.0006
  114OSM    H7S11855   3.912   3.625  10.696 -0.2739 -0.1986 -0.3375
  114OSM    H7T11856   3.752   3.575  10.758 -1.1635 -3.1142  2.4133
  114OSM    C8S11857   3.832   3.444  10.599 -0.0408  0.3131 -0.2467
  114OSM    H8S11858   3.808   3.342  10.637  1.8951  0.7961  2.5570
  114OSM    H8T11859   3.933   3.438  10.553  0.0279  0.7295 -0.1550
  114OSM    C9S11860   3.729   3.497  10.498 -0.2243 -0.1989 -0.4257
  114OSM    H9S11861   3.747   3.604  10.472  1.5263  0.3222  2.4810
  114OSM    H9T11862   3.631   3.504  10.550  0.6439 -1.0794  1.4096
  114OSM   C10S11863   3.720   3.413  10.379  0.2329 -0.5192  0.4037
  114OSM   H10S11864   3.656   3.323  10.390  0.4031 -1.0923 -2.5041
  114OSM   H10T11865   3.818   3.379  10.340  0.8773  2.2726 -0.6894
  114OSM   C11S11866   3.648   3.496  10.270 -0.7289 -1.0097 -0.1354
  114OSM   H11S11867   3.699   3.594  10.284 -1.1113 -0.8558  0.2167
  114OSM   H11T11868   3.538   3.493  10.287 -0.5926  0.0791  1.1423
  114OSM   C12S11869   3.674   3.446  10.125  0.1547  0.2842 -0.2255
  114OSM   H12S11870   3.651   3.337  10.116  1.0844 -0.1011  1.5085
  114OSM   H12T11871   3.782   3.460  10.100 -0.2399  2.0883 -1.0391
  114OSM   C13S11872   3.601   3.522  10.014 -0.3971  0.6187  0.1152
  114OSM   H13S11873   3.620   3.632  10.021 -0.2724  0.6496 -0.7069
  114OSM   H13T11874   3.494   3.507  10.038 -0.0148 -2.4008  0.2908
  114OSM   C14S11875   3.647   3.474   9.875  0.1887 -0.3369 -0.4634
  114OSM   H14S11876   3.610   3.369   9.871 -0.2502 -0.4281  2.7542
  114OSM   H14T11877   3.757   3.483   9.883  0.3952 -0.9611 -2.2717
  114OSM   C15S11878   3.587   3.548   9.756  0.8572 -0.3341  0.6544
  114OSM   H15S11879   3.596   3.659   9.766 -1.4436 -0.0549  0.2313
  114OSM   H15T11880   3.477   3.535   9.747  0.3836  3.3700 -0.8760
  114OSM   C16S11881   3.656   3.518   9.621  0.2589  0.4745 -0.4934
  114OSM   H16S11882   3.611   3.419   9.599 -0.6800 -0.8857  5.7346
  114OSM   H16T11883   3.765   3.507   9.639  0.0542 -1.7868 -0.3488
  114OSM   C17S11884   3.631   3.624   9.514 -0.6447 -0.1286  0.2788
  114OSM   H17S11885   3.684   3.719   9.532  1.2816 -1.1171  0.1427
  114OSM   H17T11886   3.523   3.650   9.518 -0.4598  0.5353  1.0057
  114OSM   C18S11887   3.665   3.570   9.373  0.6685 -0.0040  0.0117
  114OSM   H18S11888   3.643   3.653   9.301 -1.4235  1.9320  2.6645
  114OSM   H18T11889   3.602   3.481   9.351  0.5266  0.1735 -0.3111
  114OSM   H18U11890   3.769   3.533   9.368  0.2240 -1.3014  0.0308
  114OSM    C1F11891   4.228   3.960  10.931  0.0908  0.5765  0.2768
  114OSM     OF11892   4.334   3.912  10.960 -0.4532  0.2185 -1.1539
  114OSM    C2F11893   4.220   4.073  10.823 -0.0359 -0.3480  0.8540
  114OSM    H2F11894   4.232   4.178  10.856 -1.3293  0.3961 -0.8935
  114OSM    H2G11895   4.119   4.073  10.776  0.2332 -0.4309  0.2661
  114OSM    C3F11896   4.322   4.058  10.710  0.6789  1.1627  0.5296
  114OSM    H3F11897   4.327   3.948  10.694  1.3910  1.5059 -1.9493
  114OSM    H3G11898   4.424   4.080  10.749  0.9929 -0.4052  0.6731
  114OSM    C4F11899   4.286   4.127  10.584 -0.7970 -0.5944  0.7383
  114OSM    H4F11900   4.299   4.236  10.603 -2.5954 -0.1031 -0.6019
  114OSM    H4G11901   4.180   4.105  10.559 -1.5297  1.8832  1.3983
  114OSM    C5F11902   4.380   4.088  10.467  0.4097 -0.2282  0.1064
  114OSM    H5F11903   4.375   3.977  10.459 -1.0970 -0.2487  0.9939
  114OSM    H5G11904   4.484   4.113  10.496  0.3607 -0.6786  0.6740
  114OSM    C6F11905   4.350   4.151  10.325 -0.0534 -1.0137 -0.0294
  114OSM    H6F11906   4.356   4.262  10.320 -0.7535 -1.0281 -2.3481
  114OSM    H6G11907   4.241   4.132  10.309 -0.3690  1.7551 -1.8824
  114OSM    C7F11908   4.431   4.107  10.201  0.3767  0.6818  0.0766
  114OSM    H7F11909   4.432   3.997  10.208 -1.5572  0.7422  3.3505
  114OSM    H7G11910   4.536   4.139  10.214  0.4250 -0.2589  2.3113
  114OSM    C8F11911   4.373   4.166  10.069 -0.0334 -0.1055 -1.2161
  114OSM    H8F11912   4.389   4.276  10.072  0.5326 -0.1518 -2.1975
  114OSM    H8G11913   4.263   4.155  10.066 -0.0845 -0.8108  1.1335
  114OSM    C9F11914   4.449   4.098   9.963 -0.4335  0.0342 -0.3382
  114OSM    H9F11915   4.483   3.996   9.984  3.0047  0.5389 -2.6158
  114OSM   C10F11916   4.455   4.128   9.828 -0.2792  0.0622  0.8131
  114OSM   H10F11917   4.525   4.070   9.765  1.4345  1.6096  1.2158
  114OSM   C11F11918   4.387   4.244   9.766 -0.1348  1.5929  1.1487
  114OSM   H11F11919   4.411   4.329   9.834  1.8603  2.3671 -0.4189
  114OSM   H11G11920   4.279   4.223   9.751  0.5294 -0.5893 -1.2531
  114OSM   C12F11921   4.435   4.274   9.618  0.3078  0.6389 -0.9847
  114OSM   H12F11922   4.543   4.295   9.632  0.7910 -2.4854  0.8778
  114OSM   H12G11923   4.383   4.363   9.575 -0.0575  0.8066 -0.2169
  114OSM   C13F11924   4.414   4.158   9.518  0.4711 -0.2723 -0.5777
  114OSM   H13F11925   4.304   4.150   9.509  0.5485 -1.8087 -0.3873
  114OSM   H13G11926   4.462   4.064   9.551 -1.0517 -1.6807 -2.1832
  114OSM   C14F11927   4.460   4.192   9.381  0.0392 -0.4516  0.3485
  114OSM   H14F11928   4.568   4.170   9.366  0.0353  0.7258 -1.9512
  114OSM   H14G11929   4.449   4.301   9.363 -2.8011 -0.4540  1.5422
  114OSM   C15F11930   4.393   4.109   9.266  0.5456  0.0383 -0.3226
  114OSM   H15F11931   4.286   4.137   9.273  0.9008  1.2983  0.5188
  114OSM   H15G11932   4.400   4.000   9.282 -2.3624 -0.2871 -0.7390
  114OSM   C16F11933   4.436   4.153   9.124  0.3599  0.2176 -0.4244
  114OSM   H16F11934   4.542   4.123   9.110 -0.3543 -2.2082 -1.0545
  114OSM   H16G11935   4.421   4.263   9.123  0.2283  0.2042  0.0268
  114OSM   C17F11936   4.347   4.081   9.019 -0.8146  0.9860 -0.2381
  114OSM   H17F11937   4.247   4.130   9.029 -1.9366 -1.5921  2.3394
  114OSM   H17G11938   4.324   3.975   9.044 -2.1782  1.8185  2.4125
  114OSM   C18F11939   4.395   4.072   8.871 -0.6615  0.3854  0.1459
  114OSM   H18F11940   4.500   4.035   8.869 -0.3495  1.1711  1.0128
  114OSM   H18G11941   4.399   4.176   8.831  1.5811  1.0305  1.8037
  114OSM   H18H11942   4.341   3.997   8.810 -0.8026  1.4571 -1.1075
  115OSM      N11943   5.546   2.188   5.954 -0.3773 -0.0751  0.2616
  115OSM    C1511944   5.656   2.112   5.878 -0.0717 -0.0525  0.0914
  115OSM   H15A11945   5.739   2.175   5.851 -2.2197  1.9625 -2.4054
  115OSM   H15B11946   5.617   2.080   5.782 -0.7086 -0.7419  0.5708
  115OSM   H15C11947   5.685   2.020   5.925  1.3648  0.1026 -0.4312
  115OSM    C1411948   5.519   2.318   5.889  0.4618 -0.0755 -0.5824
  115OSM   H14A11949   5.477   2.392   5.956 -1.2511  1.0289 -2.7470
  115OSM   H14B11950   5.442   2.305   5.814  0.5241 -1.8367 -0.3842
  115OSM   H14C11951   5.607   2.364   5.846 -0.0090  0.5547 -0.8942
  115OSM    C1311952   5.424   2.110   5.964 -0.2484  0.2110  0.4112
  115OSM   H13A11953   5.449   2.021   6.019 -0.6506 -0.2959 -0.2175
  115OSM   H13B11954   5.371   2.079   5.875  1.0919  0.3230 -0.4613
  115OSM   H13C11955   5.353   2.162   6.027 -0.8536 -2.0640  1.7189
  115OSM    C1211956   5.586   2.221   6.099 -0.2486  0.0300 -0.2928
  115OSM   H12A11957   5.667   2.292   6.089 -0.7711  0.9852  1.7783
  115OSM   H12B11958   5.629   2.133   6.143 -2.2817  0.2322  2.3206
  115OSM    C1111959   5.481   2.271   6.196  0.3625  0.0235  0.0673
  115OSM   H11A11960   5.532   2.296   6.291  0.9301  0.7780 -0.4205
  115OSM   H11B11961   5.418   2.187   6.230 -0.8950  1.6064  1.8516
  115OSM      P11962   5.289   2.451   6.243  0.1456  0.0734 -0.3441
  115OSM    O1311963   5.261   2.588   6.200 -0.1579 -0.1098 -0.0341
  115OSM    O1411964   5.166   2.359   6.254 -0.5898  0.3428 -0.9380
  115OSM    O1111965   5.361   2.451   6.382 -0.2378  0.1801  0.0940
  115OSM    O1211966   5.401   2.386   6.150  0.0852  0.0792 -0.3048
  115OSM    C1S11967   5.455   2.556   6.412  0.1102  0.1609 -0.4488
  115OSM    H1S11968   5.431   2.653   6.362  1.1837  0.2109 -0.9141
  115OSM    H1T11969   5.553   2.529   6.365  0.9602 -1.5926  2.1204
  115OSM     NF11970   5.554   2.700   6.586 -0.3100  0.6794  0.7052
  115OSM    HNF11971   5.646   2.675   6.618 -0.1206  0.4785  0.0178
  115OSM    C2S11972   5.471   2.578   6.565 -0.3741  0.2988  0.4251
  115OSM    H2S11973   5.371   2.600   6.607 -0.8461 -0.8057 -0.0956
  115OSM    C3S11974   5.531   2.455   6.634 -0.2233 -0.2971 -0.2518
  115OSM    H3S11975   5.637   2.448   6.602 -0.3786 -0.5654 -0.7083
  115OSM     O311976   5.469   2.332   6.600  0.1296 -0.4710  0.5711
  115OSM    HO311977   5.416   2.352   6.523  0.3256  0.4798  0.6711
  115OSM    C4S11978   5.520   2.478   6.785 -0.6828  0.1107  0.7937
  115OSM    H4S11979   5.418   2.488   6.824 -1.2375 -1.2953 -0.2048
  115OSM    C5S11980   5.631   2.476   6.863 -0.0554  0.2493 -0.4217
  115OSM    H5S11981   5.730   2.471   6.817  0.4483 -0.7179  0.7120
  115OSM    C6S11982   5.632   2.488   7.018  0.8106 -0.5323  0.0571
  115OSM    H6S11983   5.670   2.587   7.051  0.0185 -0.0924 -0.2948
  115OSM    H6T11984   5.709   2.415   7.050 -0.0573 -1.7519 -0.5453
  115OSM    C7S11985   5.497   2.442   7.084 -0.1696 -0.4514 -0.9363
  115OSM    H7S11986   5.486   2.335   7.054  1.7013 -1.0687  0.4047
  115OSM    H7T11987   5.406   2.493   7.046 -0.1679 -0.6133 -1.1660
  115OSM    C8S11988   5.502   2.458   7.240 -0.3617  0.0962 -0.7065
  115OSM    H8S11989   5.471   2.563   7.259  2.8546  1.3912 -1.7759
  115OSM    H8T11990   5.607   2.440   7.272 -0.1065 -0.9834 -2.0521
  115OSM    C9S11991   5.411   2.357   7.306  0.0511 -0.4733  0.3395
  115OSM    H9S11992   5.461   2.258   7.298  1.5815  0.3887 -1.3617
  115OSM    H9T11993   5.318   2.336   7.248  0.3249  0.3138 -0.4060
  115OSM   C10S11994   5.360   2.398   7.446  0.5464  0.4208 -0.2873
  115OSM   H10S11995   5.266   2.345   7.474  1.3796 -0.3107  1.2513
  115OSM   H10T11996   5.340   2.507   7.449 -0.1219  0.2842  0.7739
  115OSM   C11S11997   5.468   2.365   7.550  0.1814 -0.0231  0.5393
  115OSM   H11S11998   5.553   2.437   7.541  1.2878 -1.5017 -2.3471
  115OSM   H11T11999   5.497   2.260   7.530  0.3697 -0.4291  2.8020
  115OSM   C12S12000   5.412   2.363   7.697  0.1762  0.2025  0.1279
  115OSM   H12S12001   5.335   2.284   7.707  2.1662 -1.9552 -0.3970
  115OSM   H12T12002   5.382   2.468   7.717  2.2023  1.0001 -0.7440
  115OSM   C13S12003   5.519   2.320   7.802  0.1669 -0.1699  0.3098
  115OSM   H13S12004   5.614   2.368   7.768  0.4466  1.1831  2.7941
  115OSM   H13T12005   5.534   2.210   7.800 -1.9775 -0.4977 -0.5320
  115OSM   C14S12006   5.480   2.366   7.942  0.2320  0.6260 -0.5379
  115OSM   H14S12007   5.390   2.322   7.991  1.0070 -1.4661 -0.8865
  115OSM   H14T12008   5.477   2.477   7.946  1.2799  0.6399  2.6513
  115OSM   C15S12009   5.598   2.338   8.040  0.0690  0.2585  0.1840
  115OSM   H15S12010   5.687   2.398   8.010  0.4729 -0.1411  0.5721
  115OSM   H15T12011   5.635   2.235   8.017 -0.7100  0.1219 -0.5149
  115OSM   C16S12012   5.574   2.371   8.187 -0.1253 -0.2279 -0.3355
  115OSM   H16S12013   5.669   2.372   8.244  0.4177  2.5926 -1.1177
  115OSM   H16T12014   5.514   2.289   8.232  0.6817 -1.0161 -0.6609
  115OSM   C17S12015   5.521   2.510   8.214  0.0738 -0.5540  0.1770
  115OSM   H17S12016   5.426   2.527   8.159  0.6345 -0.7057 -0.8664
  115OSM   H17T12017   5.591   2.585   8.170 -1.3834  1.5068  1.1900
  115OSM   C18S12018   5.497   2.542   8.367  0.0916 -0.0749  0.1130
  115OSM   H18S12019   5.404   2.491   8.402  1.2982 -1.1322  1.9091
  115OSM   H18T12020   5.494   2.652   8.381 -0.1264 -0.0128 -0.3864
  115OSM   H18U12021   5.588   2.506   8.418  3.2639  1.5004 -3.8367
  115OSM    C1F12022   5.510   2.816   6.541  0.2178 -0.3616  0.1253
  115OSM     OF12023   5.386   2.835   6.529 -0.4476 -0.1710  0.4045
  115OSM    C2F12024   5.614   2.916   6.504  0.2882 -0.2811 -0.8427
  115OSM    H2F12025   5.591   2.971   6.410 -0.1219  0.6845 -0.1990
  115OSM    H2G12026   5.718   2.883   6.481  1.5346  3.7220 -1.7969
  115OSM    C3F12027   5.636   3.016   6.623 -0.1374 -0.4149 -0.0580
  115OSM    H3F12028   5.542   3.074   6.632  1.4257  2.3315 -0.1893
  115OSM    H3G12029   5.697   3.096   6.574 -1.0532 -0.6299 -1.5960
  115OSM    C4F12030   5.690   2.967   6.760 -0.4313  0.3246  0.1462
  115OSM    H4F12031   5.776   2.899   6.743 -0.4470  0.3964 -0.2204
  115OSM    H4G12032   5.609   2.919   6.819 -1.9825 -0.6717 -2.6111
  115OSM    C5F12033   5.741   3.083   6.843 -0.2108 -0.4363 -0.0038
  115OSM    H5F12034   5.669   3.165   6.822  2.2812  1.6252 -1.1371
  115OSM    H5G12035   5.832   3.131   6.800 -1.7485  0.6947 -2.2112
  115OSM    C6F12036   5.739   3.068   6.996  0.3690  0.1463 -0.9900
  115OSM    H6F12037   5.830   3.011   7.022  0.3031  1.9622  4.4899
  115OSM    H6G12038   5.649   3.014   7.033 -0.0390  0.2424 -1.8145
  115OSM    C7F12039   5.749   3.205   7.076 -0.4835  0.8287 -0.1549
  115OSM    H7F12040   5.647   3.232   7.111 -0.9280 -1.2359  0.2344
  115OSM    H7G12041   5.777   3.278   6.997 -0.0073  0.4065 -0.3751
  115OSM    C8F12042   5.825   3.196   7.207 -0.3237 -0.5160  0.1127
  115OSM    H8F12043   5.841   3.297   7.250  1.0717  0.0410 -1.6249
  115OSM    H8G12044   5.931   3.166   7.195  0.1250 -1.1174  4.1054
  115OSM    C9F12045   5.770   3.112   7.317  0.1470 -0.3302  1.0716
  115OSM    H9F12046   5.664   3.088   7.303 -0.7946  2.8710  1.8333
  115OSM   C10F12047   5.825   3.085   7.435 -0.5992 -0.2000 -0.6477
  115OSM   H10F12048   5.768   3.036   7.516  0.3190  0.1603  0.2418
  115OSM   C11F12049   5.956   3.134   7.490 -0.3688  0.1265  0.0770
  115OSM   H11F12050   6.010   3.192   7.412 -0.0505 -1.0969 -0.6403
  115OSM   H11G12051   6.014   3.043   7.516  1.3425  1.0678 -0.2659
  115OSM   C12F12052   5.942   3.225   7.615  0.3266  0.1705  0.1091
  115OSM   H12F12053   5.909   3.323   7.574 -0.7308 -0.5741 -0.8849
  115OSM   H12G12054   6.044   3.246   7.654  0.3282 -0.0489  0.2197
  115OSM   C13F12055   5.843   3.178   7.721 -0.0145  0.0699 -0.1472
  115OSM   H13F12056   5.859   3.069   7.737 -0.7177  0.3246  2.9162
  115OSM   H13G12057   5.740   3.201   7.687  0.7908  0.9984 -2.1008
  115OSM   C14F12058   5.883   3.252   7.848  0.5373 -0.1826 -0.1933
  115OSM   H14F12059   5.865   3.361   7.836 -0.7832 -0.1619  1.5390
  115OSM   H14G12060   5.989   3.234   7.877  0.5435 -0.4026 -0.3545
  115OSM   C15F12061   5.788   3.215   7.975 -0.3597  0.7416 -0.2025
  115OSM   H15F12062   5.685   3.257   7.964 -0.1421  1.4427  0.3167
  115OSM   H15G12063   5.838   3.272   8.056 -0.5891  1.8546 -0.8220
  115OSM   C16F12064   5.789   3.069   8.014  0.2832  0.0049 -0.2756
  115OSM   H16F12065   5.890   3.025   8.031  0.2604 -0.4286 -1.2333
  115OSM   H16G12066   5.741   3.009   7.934  0.3049 -2.3392  1.3263
  115OSM   C17F12067   5.704   3.039   8.138 -0.1739  0.1922 -0.2399
  115OSM   H17F12068   5.599   3.073   8.128 -0.2489  0.4652  1.2436
  115OSM   H17G12069   5.750   3.088   8.226  1.4118  0.1183 -0.9817
  115OSM   C18F12070   5.682   2.887   8.170  0.2589 -0.6327  0.7948
  115OSM   H18F12071   5.782   2.842   8.154 -0.3212 -1.8400  0.4347
  115OSM   H18G12072   5.597   2.843   8.115 -1.5694  0.0856  2.8809
  115OSM   H18H12073   5.660   2.874   8.278 -0.0496  1.2759  0.9911
  116OSM      N12074   3.528   0.030   5.966 -0.3076  0.0059  0.1165
  116OSM    C1512075   3.490   0.170   5.959 -0.2347 -0.8305 -0.0146
  116OSM   H15A12076   3.524   0.229   6.043 -0.1328  1.8028 -1.7692
  116OSM   H15B12077   3.383   0.178   5.971 -0.5576 -1.1424 -2.1363
  116OSM   H15C12078   3.533   0.220   5.873 -0.4011 -1.8710 -0.7247
  116OSM    C1412079   3.457  -0.051   5.868 -1.0849  0.2260  0.1047
  116OSM   H14A12080   3.473  -0.018   5.766  3.1282 -1.1065  0.1105
  116OSM   H14B12081   3.353  -0.037   5.891 -1.3993 -1.1121 -0.4201
  116OSM   H14C12082   3.487  -0.153   5.886 -0.8200 -0.2191 -2.4672
  116OSM    C1312083   3.683   0.033   5.948 -0.3731  0.2383  0.1188
  116OSM   H13A12084   3.728   0.124   5.986  2.1987 -1.2140  0.7753
  116OSM   H13B12085   3.702   0.028   5.842  0.9902 -0.6841  0.3805
  116OSM   H13C12086   3.721  -0.056   5.995 -3.5944 -2.0944 -1.2789
  116OSM    C1212087   3.497  -0.023   6.107 -0.3411 -0.4027  0.1789
  116OSM   H12A12088   3.393  -0.005   6.130 -0.3501  0.1369 -0.2566
  116OSM   H12B12089   3.566   0.026   6.174 -0.7706  1.0799 -0.4251
  116OSM    C1112090   3.515  -0.176   6.127  1.0143  0.2346  0.3279
  116OSM   H11A12091   3.547  -0.191   6.232  1.0143  0.3149  0.3403
  116OSM   H11B12092   3.601  -0.203   6.062  0.8988  0.9356 -0.1315
  116OSM      P12093   3.268  -0.228   6.164 -0.5829 -0.3925 -0.3503
  116OSM    O1312094   3.163  -0.174   6.081  0.1325  0.0165  0.2878
  116OSM    O1412095   3.233  -0.363   6.228  0.1532  0.2684  0.0540
  116OSM    O1112096   3.289  -0.115   6.281 -0.9409  0.0548  0.1084
  116OSM    O1212097   3.399  -0.240   6.081  0.3612  0.2743 -0.3231
  116OSM    C1S12098   3.281  -0.156   6.421 -0.1098 -0.6404  0.0975
  116OSM    H1S12099   3.386  -0.175   6.452 -0.2976 -0.0946  1.1172
  116OSM    H1T12100   3.227  -0.250   6.442  1.6534 -1.1595  2.8054
  116OSM     NF12101   3.270  -0.096   6.657  0.1101  0.1111  0.2519
  116OSM    HNF12102   3.215  -0.164   6.705  1.2701  0.1407  1.6992
  116OSM    C2S12103   3.230  -0.052   6.524 -0.0639  0.0206  0.0137
  116OSM    H2S12104   3.280   0.044   6.499 -0.0281 -0.3329 -1.3509
  116OSM    C3S12105   3.079  -0.045   6.498  0.4214  0.4913 -0.5308
  116OSM    H3S12106   3.045  -0.151   6.488  0.9326  0.3273 -0.5787
  116OSM     O312107   3.044   0.025   6.379 -0.0356 -0.2502  0.1767
  116OSM    HO312108   3.118   0.069   6.336 -2.9379  2.4566 -2.5998
  116OSM    C4S12109   3.006   0.032   6.615  0.1575  0.5197 -0.1232
  116OSM    H4S12110   2.969  -0.038   6.691  0.5287 -0.1324 -0.5337
  116OSM    C5S12111   3.003   0.169   6.641  0.4296 -0.5126 -0.3396
  116OSM    H5S12112   3.043   0.243   6.570  1.3700  0.6780  1.3560
  116OSM    C6S12113   2.929   0.222   6.763 -0.0304  0.1895  0.5785
  116OSM    H6S12114   2.825   0.253   6.739  0.1971  1.7828  1.5491
  116OSM    H6T12115   2.964   0.320   6.800 -0.0154  0.5414 -0.3414
  116OSM    C7S12116   2.915   0.133   6.889 -0.0818 -0.2530 -1.3524
  116OSM    H7S12117   3.015   0.086   6.904  0.8598  1.4427 -2.0203
  116OSM    H7T12118   2.839   0.055   6.864 -1.2907  1.3774 -3.0373
  116OSM    C8S12119   2.852   0.195   7.016  0.9112  0.5406 -0.4899
  116OSM    H8S12120   2.834   0.109   7.084  3.3539  0.5253  0.2248
  116OSM    H8T12121   2.756   0.249   6.998 -0.2050 -1.0838  0.3453
  116OSM    C9S12122   2.935   0.291   7.093  0.3301 -0.0846 -0.3807
  116OSM    H9S12123   2.946   0.382   7.030  1.2319  2.7124  3.3940
  116OSM    H9T12124   3.036   0.250   7.115 -0.6176 -2.2193  0.2820
  116OSM   C10S12125   2.877   0.338   7.225  0.3838  0.3159  0.1974
  116OSM   H10S12126   2.865   0.255   7.298  0.4024  1.0640  1.0573
  116OSM   H10T12127   2.783   0.396   7.223 -1.2102 -2.1028  0.6254
  116OSM   C11S12128   2.988   0.420   7.300 -0.3921 -0.5161 -0.9252
  116OSM   H11S12129   3.022   0.511   7.247 -0.5543 -0.9576 -1.7999
  116OSM   H11T12130   3.070   0.346   7.310 -0.7398 -0.6920  1.1327
  116OSM   C12S12131   2.939   0.472   7.435  1.8700  0.0406 -0.4351
  116OSM   H12S12132   3.018   0.529   7.489  3.0612 -0.5378 -1.5149
  116OSM   H12T12133   2.909   0.387   7.500 -1.4210  0.0494 -1.7640
  116OSM   C13S12134   2.812   0.566   7.435  0.5091 -1.1378  0.0368
  116OSM   H13S12135   2.731   0.506   7.388  0.5635 -1.4622  0.3640
  116OSM   H13T12136   2.834   0.659   7.377  0.6106 -0.5104  1.0539
  116OSM   C14S12137   2.775   0.608   7.576 -0.3487 -0.0333 -0.0751
  116OSM   H14S12138   2.864   0.655   7.623 -0.8294  0.5096  0.2912
  116OSM   H14T12139   2.735   0.517   7.627 -0.7963  0.8272  1.1493
  116OSM   C15S12140   2.672   0.722   7.579  0.7301  0.3537 -0.1556
  116OSM   H15S12141   2.707   0.799   7.507  1.2681 -0.6143 -0.9487
  116OSM   H15T12142   2.673   0.776   7.676  0.0847  2.0116 -1.0284
  116OSM   C16S12143   2.528   0.688   7.548 -0.3139 -0.1206 -0.1000
  116OSM   H16S12144   2.495   0.645   7.645  0.7753  2.3890  1.4733
  116OSM   H16T12145   2.536   0.611   7.468  0.2503  1.3689 -1.5246
  116OSM   C17S12146   2.435   0.804   7.512  0.5884  0.4162 -0.1848
  116OSM   H17S12147   2.472   0.863   7.426  1.8748 -2.0367 -1.4102
  116OSM   H17T12148   2.423   0.879   7.594  1.6625  0.2084  0.1847
  116OSM   C18S12149   2.292   0.757   7.472 -0.1196 -1.2902 -0.2579
  116OSM   H18S12150   2.246   0.842   7.416 -1.6738 -1.5957  0.5078
  116OSM   H18T12151   2.223   0.734   7.556 -0.8409  0.1339 -0.4282
  116OSM   H18U12152   2.279   0.675   7.398 -0.4953 -1.4518 -0.0152
  116OSM    C1F12153   3.394  -0.070   6.702  1.0527  0.3312  0.9144
  116OSM     OF12154   3.474  -0.001   6.637 -0.4836  0.1119 -0.3006
  116OSM    C2F12155   3.429  -0.130   6.838  0.1846  0.3299 -0.0654
  116OSM    H2F12156   3.536  -0.158   6.845  0.1835  0.5393  0.7963
  116OSM    H2G12157   3.359  -0.212   6.866  2.4796 -1.0047  2.1166
  116OSM    C3F12158   3.417  -0.029   6.962  0.3154 -0.0711  0.8735
  116OSM    H3F12159   3.310   0.002   6.961  0.0856 -0.7986  1.6879
  116OSM    H3G12160   3.472   0.062   6.931 -1.2748  1.1114  1.3514
  116OSM    C4F12161   3.452  -0.077   7.102 -0.6074  0.6792 -0.5541
  116OSM    H4F12162   3.427   0.001   7.177  1.3491 -0.7271  1.6950
  116OSM    H4G12163   3.563  -0.081   7.102 -0.5352  2.1266 -0.5258
  116OSM    C5F12164   3.385  -0.217   7.131 -1.4590  0.1098 -0.1554
  116OSM    H5F12165   3.416  -0.297   7.060  1.9513 -0.1443  1.4516
  116OSM    H5G12166   3.274  -0.216   7.125 -1.4481 -0.0815 -0.4695
  116OSM    C6F12167   3.435  -0.261   7.268  0.1220  0.2183  0.2593
  116OSM    H6F12168   3.388  -0.191   7.339 -3.3720 -2.3732  0.7716
  116OSM    H6G12169   3.544  -0.238   7.263 -0.2443  1.7872 -1.5403
  116OSM    C7F12170   3.405  -0.407   7.301  1.0926  0.4775  1.0295
  116OSM    H7F12171   3.455  -0.478   7.231 -0.5605  2.3761 -2.3092
  116OSM    H7G12172   3.295  -0.421   7.287  0.5908  2.7736  2.1949
  116OSM    C8F12173   3.445  -0.447   7.452  0.1258 -0.0374 -0.0364
  116OSM    H8F12174   3.549  -0.413   7.471 -0.4871  2.6216 -0.9482
  116OSM    H8G12175   3.439  -0.558   7.451  0.0229 -0.0335 -1.0190
  116OSM    C9F12176   3.355  -0.386   7.557 -0.4175  0.0543 -0.7187
  116OSM    H9F12177   3.263  -0.339   7.522  0.5484  3.2296  0.6209
  116OSM   C10F12178   3.374  -0.379   7.691 -1.2179  0.7321  0.5769
  116OSM   H10F12179   3.287  -0.348   7.752 -0.9272 -0.3757  1.5905
  116OSM   C11F12180   3.502  -0.431   7.759 -0.6002 -0.1946  0.2021
  116OSM   H11F12181   3.591  -0.435   7.693 -0.1025 -0.8945  0.9003
  116OSM   H11G12182   3.474  -0.531   7.799  0.2823 -1.3482 -1.9276
  116OSM   C12F12183   3.538  -0.344   7.889 -0.3579 -0.1152  1.0861
  116OSM   H12F12184   3.569  -0.238   7.870  0.0507 -0.5251 -0.6940
  116OSM   H12G12185   3.632  -0.379   7.937  0.5793  3.1685  1.9841
  116OSM   C13F12186   3.427  -0.333   7.993  0.1329  0.7537  0.1269
  116OSM   H13F12187   3.376  -0.432   7.998 -1.9391  1.8139  1.9303
  116OSM   H13G12188   3.355  -0.257   7.957 -0.7421 -0.6655 -1.2260
  116OSM   C14F12189   3.476  -0.304   8.137  0.2807 -0.4076  0.3842
  116OSM   H14F12190   3.529  -0.207   8.147 -0.7374  0.2122  0.0163
  116OSM   H14G12191   3.556  -0.378   8.155  1.7278  1.3260  1.3996
  116OSM   C15F12192   3.356  -0.309   8.246  0.5297  0.0289 -0.2059
  116OSM   H15F12193   3.296  -0.399   8.223 -0.5664  1.0478 -1.4493
  116OSM   H15G12194   3.287  -0.223   8.235 -0.3585 -0.6802 -0.3090
  116OSM   C16F12195   3.403  -0.291   8.388  0.1151  0.7405 -0.3970
  116OSM   H16F12196   3.459  -0.380   8.424  2.9717  1.3659 -2.9156
  116OSM   H16G12197   3.312  -0.290   8.453  1.4150 -3.7014  1.9775
  116OSM   C17F12198   3.483  -0.162   8.408  0.5547 -0.1033 -0.1305
  116OSM   H17F12199   3.421  -0.083   8.360 -2.0974 -1.4229  0.9348
  116OSM   H17G12200   3.583  -0.173   8.361  0.9468  0.3280  0.6038
  116OSM   C18F12201   3.499  -0.130   8.554 -0.1751 -0.3719  0.0688
  116OSM   H18F12202   3.550  -0.033   8.570 -1.1546  0.1331  0.2042
  116OSM   H18G12203   3.565  -0.209   8.593  0.8971 -1.2386 -3.1499
  116OSM   H18H12204   3.400  -0.126   8.605  0.9282 -1.5212  2.3955
  117OSM      N12205   1.769   1.588   6.156 -0.2073  0.0238  0.1928
  117OSM    C1512206   1.869   1.664   6.079  0.5578 -0.4574  0.1940
  117OSM   H15A12207   1.943   1.595   6.041  0.7037 -1.0813  1.5603
  117OSM   H15B12208   1.932   1.718   6.148  1.2384 -0.8961 -0.0687
  117OSM   H15C12209   1.828   1.721   5.996  1.7336 -1.6978 -1.3024
  117OSM    C1412210   1.650   1.681   6.183 -0.1502 -0.4504 -0.4537
  117OSM   H14A12211   1.597   1.704   6.092  0.2778  0.6928 -0.4313
  117OSM   H14B12212   1.679   1.774   6.230 -0.8109 -0.7506  0.5822
  117OSM   H14C12213   1.577   1.632   6.246 -1.7391 -0.4541 -2.1980
  117OSM    C1312214   1.729   1.464   6.085  0.0233 -0.1382  1.1774
  117OSM   H13A12215   1.692   1.487   5.986  0.5233  0.4699  1.1235
  117OSM   H13B12216   1.649   1.416   6.139 -2.5376 -0.2595 -2.3664
  117OSM   H13C12217   1.810   1.394   6.069 -1.1079 -1.2268 -0.1271
  117OSM    C1212218   1.813   1.547   6.293  0.4943  0.5407 -0.1120
  117OSM   H12A12219   1.740   1.481   6.339 -0.1598  1.2767 -0.0757
  117OSM   H12B12220   1.813   1.635   6.356 -0.5849  2.0160 -2.0563
  117OSM    C1112221   1.941   1.473   6.328 -0.9519 -0.0743  0.4140
  117OSM   H11A12222   1.937   1.364   6.311 -2.2571  0.1827 -1.2044
  117OSM   H11B12223   1.958   1.495   6.436  0.6238 -2.6405  0.7784
  117OSM      P12224   2.189   1.492   6.243  0.1457 -0.4915  0.0151
  117OSM    O1312225   2.188   1.349   6.234 -0.3720  0.0221 -0.1429
  117OSM    O1412226   2.265   1.560   6.131  0.2117 -0.1832  0.4835
  117OSM    O1112227   2.250   1.545   6.377  0.2982  0.2145 -0.0306
  117OSM    O1212228   2.041   1.542   6.247  0.3423 -0.1294 -0.1774
  117OSM    C1S12229   2.342   1.457   6.444 -0.5181  0.1488 -0.4818
  117OSM    H1S12230   2.436   1.434   6.388  1.0219  3.5159  0.4563
  117OSM    H1T12231   2.295   1.362   6.475 -1.1989  0.6544  0.0606
  117OSM     NF12232   2.529   1.455   6.619 -0.5584 -0.8073 -0.4562
  117OSM    HNF12233   2.530   1.379   6.684 -1.6475 -0.8320 -0.4495
  117OSM    C2S12234   2.394   1.507   6.580 -0.0408  0.4256  0.1008
  117OSM    H2S12235   2.402   1.618   6.578  1.3977  0.3815  1.2160
  117OSM    C3S12236   2.284   1.470   6.686  0.7305  0.0177  0.2085
  117OSM    H3S12237   2.282   1.359   6.685  0.7213 -0.0117  1.7557
  117OSM     O312238   2.162   1.532   6.649  0.2689  0.0118  0.5016
  117OSM    HO312239   2.180   1.568   6.562 -2.4922 -1.1044 -0.6209
  117OSM    C4S12240   2.330   1.524   6.816  0.5247 -0.0434  0.0424
  117OSM    H4S12241   2.350   1.632   6.816  2.0884 -0.3099  0.3651
  117OSM    C5S12242   2.361   1.446   6.919  0.0074 -0.2393 -0.2617
  117OSM    H5S12243   2.374   1.337   6.910  0.1359 -0.2378 -0.1157
  117OSM    C6S12244   2.417   1.507   7.047 -0.5783  1.0127 -0.1079
  117OSM    H6S12245   2.424   1.617   7.053  2.9242  0.9151  0.1621
  117OSM    H6T12246   2.525   1.481   7.062 -0.1557  3.0895  0.6629
  117OSM    C7S12247   2.351   1.457   7.181  0.9534 -0.1063  0.3579
  117OSM    H7S12248   2.345   1.346   7.176  0.6275 -0.1224  1.0730
  117OSM    H7T12249   2.244   1.486   7.175  1.1242  0.6648  0.8959
  117OSM    C8S12250   2.415   1.503   7.310 -0.2547 -0.6257 -0.6620
  117OSM    H8S12251   2.411   1.614   7.309 -2.9076 -0.6612 -1.8443
  117OSM    H8T12252   2.520   1.466   7.313 -0.4346 -1.0900  1.3812
  117OSM    C9S12253   2.353   1.444   7.437 -0.5083 -0.5136 -0.3116
  117OSM    H9S12254   2.257   1.497   7.458  1.7695  4.2602 -0.6305
  117OSM    H9T12255   2.418   1.470   7.523 -0.9879  1.6938 -0.5701
  117OSM   C10S12256   2.338   1.292   7.436  0.9644  0.3987 -0.9336
  117OSM   H10S12257   2.294   1.249   7.344 -2.5975  2.7222 -0.5221
  117OSM   H10T12258   2.272   1.260   7.520  1.5565  1.1827 -0.1390
  117OSM   C11S12259   2.469   1.216   7.473  0.0009  0.3512 -0.8872
  117OSM   H11S12260   2.545   1.245   7.397  0.1467  1.0438 -0.4869
  117OSM   H11T12261   2.442   1.109   7.476 -0.0976  0.3961  1.7207
  117OSM   C12S12262   2.523   1.239   7.618 -0.2494  0.3507  0.2233
  117OSM   H12S12263   2.448   1.237   7.700  0.5729  1.9067  1.0654
  117OSM   H12T12264   2.566   1.341   7.621  1.1721 -0.1322 -1.7373
  117OSM   C13S12265   2.635   1.141   7.657  0.1471  0.3003 -0.1621
  117OSM   H13S12266   2.720   1.169   7.590  0.0691  3.5349  0.8857
  117OSM   H13T12267   2.605   1.036   7.637  0.7563 -0.4846  2.5943
  117OSM   C14S12268   2.683   1.149   7.805 -0.2840 -0.1795  0.3129
  117OSM   H14S12269   2.735   1.053   7.826  4.3927  1.6801 -1.4375
  117OSM   H14T12270   2.597   1.162   7.874 -0.5087 -0.2668  0.0484
  117OSM   C15S12271   2.787   1.268   7.818 -0.0618  0.0312  0.2298
  117OSM   H15S12272   2.719   1.355   7.806 -0.2767  0.1082  1.7933
  117OSM   H15T12273   2.850   1.253   7.728 -1.7506  0.0076 -1.0032
  117OSM   C16S12274   2.876   1.253   7.944 -0.6568  0.0675  0.0081
  117OSM   H16S12275   2.809   1.236   8.030 -1.1749  0.8441 -0.2333
  117OSM   H16T12276   2.927   1.351   7.958 -1.6844  0.2725  2.9873
  117OSM   C17S12277   2.987   1.146   7.926  0.6154  1.1094 -0.0480
  117OSM   H17S12278   3.066   1.179   7.855 -0.4413 -0.4925 -2.0709
  117OSM   H17T12279   2.934   1.061   7.880 -0.7466  2.2564 -0.6766
  117OSM   C18S12280   3.067   1.084   8.044  0.1752 -0.7923  0.3645
  117OSM   H18S12281   3.112   0.988   8.008  0.1276 -0.3461 -0.9586
  117OSM   H18T12282   2.998   1.070   8.130 -0.4227  3.1279  0.6828
  117OSM   H18U12283   3.149   1.155   8.068  0.1111 -1.0058  1.2389
  117OSM    C1F12284   2.632   1.508   6.563  0.2570 -0.4463  0.4039
  117OSM     OF12285   2.618   1.591   6.474  0.0653 -0.2319 -0.2695
  117OSM    C2F12286   2.768   1.474   6.619 -0.5656  0.2968  0.3734
  117OSM    H2F12287   2.810   1.398   6.549 -0.2054 -0.8796  1.8069
  117OSM    H2G12288   2.760   1.423   6.718 -0.5913 -1.6430 -0.5673
  117OSM    C3F12289   2.864   1.598   6.613 -0.2531 -0.3824  0.2272
  117OSM    H3F12290   2.887   1.636   6.511  0.3924  0.9112  0.8307
  117OSM    H3G12291   2.957   1.563   6.663  1.3893  1.1060 -1.6157
  117OSM    C4F12292   2.814   1.723   6.695 -0.5189 -0.3093 -0.4004
  117OSM    H4F12293   2.716   1.756   6.653 -0.3938  0.9209  0.2451
  117OSM    H4G12294   2.885   1.803   6.666  0.9742 -1.1450  0.8068
  117OSM    C5F12295   2.800   1.703   6.850 -0.0120 -0.0092  0.0769
  117OSM    H5F12296   2.899   1.713   6.900 -0.6061  5.5694  0.7744
  117OSM    H5G12297   2.762   1.598   6.845 -3.7991  1.2310 -1.0530
  117OSM    C6F12298   2.698   1.798   6.923 -0.5851  0.5602 -0.1689
  117OSM    H6F12299   2.591   1.782   6.898 -0.2491 -1.6990 -0.3432
  117OSM    H6G12300   2.728   1.902   6.896 -0.6929  0.3652 -1.0644
  117OSM    C7F12301   2.708   1.772   7.078 -0.0791  0.8511  0.5849
  117OSM    H7F12302   2.811   1.799   7.110  1.8212 -0.9494 -3.2972
  117OSM    H7G12303   2.699   1.662   7.086 -0.1687  0.8283  0.2171
  117OSM    C8F12304   2.592   1.828   7.157 -0.1515  0.2255 -0.2422
  117OSM    H8F12305   2.571   1.747   7.230 -1.0659 -1.1197 -1.9235
  117OSM    H8G12306   2.492   1.839   7.109  0.3897 -0.6215 -1.6279
  117OSM    C9F12307   2.624   1.962   7.216 -0.2246  0.0100 -0.0665
  117OSM    H9F12308   2.673   2.025   7.140 -0.4447  0.0175 -0.2033
  117OSM   C10F12309   2.604   1.987   7.346 -0.1125  0.4742  0.2834
  117OSM   H10F12310   2.644   2.081   7.388  0.7212  0.1962  0.1274
  117OSM   C11F12311   2.534   1.901   7.448  0.5168 -0.3163 -0.1852
  117OSM   H11F12312   2.474   1.823   7.396  0.4590  0.0613 -0.6934
  117OSM   H11G12313   2.463   1.958   7.511 -0.6196  1.1855 -2.6602
  117OSM   C12F12314   2.642   1.842   7.541 -0.0077  0.0039  0.4643
  117OSM   H12F12315   2.720   1.916   7.568  0.2335 -0.5015  1.1815
  117OSM   H12G12316   2.697   1.760   7.489  3.1923  0.9168  2.1621
  117OSM   C13F12317   2.571   1.768   7.657 -0.0341  0.4377 -0.3970
  117OSM   H13F12318   2.542   1.666   7.624 -0.7142  0.3841  0.3324
  117OSM   H13G12319   2.487   1.830   7.696  0.3145  0.0077  1.1388
  117OSM   C14F12320   2.666   1.748   7.774 -0.1570 -0.1617  0.6756
  117OSM   H14F12321   2.767   1.742   7.728 -1.4743 -2.7727 -2.2479
  117OSM   H14G12322   2.643   1.649   7.818 -2.2494 -1.3908 -2.7868
  117OSM   C15F12323   2.659   1.842   7.884 -0.6787 -0.4411  0.5355
  117OSM   H15F12324   2.551   1.833   7.908 -0.8351 -1.6785 -0.5258
  117OSM   H15G12325   2.672   1.945   7.844 -1.9457 -0.6933 -0.6129
  117OSM   C16F12326   2.751   1.811   8.000  0.2803 -0.5167 -0.5380
  117OSM   H16F12327   2.854   1.826   7.961 -0.1453  0.9456 -1.1798
  117OSM   H16G12328   2.743   1.707   8.038 -0.0080 -0.7616 -1.2400
  117OSM   C17F12329   2.709   1.903   8.113  0.2058 -0.3591 -0.3813
  117OSM   H17F12330   2.720   2.007   8.078  1.4867 -0.0220  0.9453
  117OSM   H17G12331   2.602   1.887   8.139 -0.2860 -3.6960 -3.5540
  117OSM   C18F12332   2.788   1.899   8.244 -0.2089  0.5357  0.2739
  117OSM   H18F12333   2.754   1.806   8.293  1.7809 -0.1043  0.5505
  117OSM   H18G12334   2.767   1.991   8.303 -0.8610  1.9306 -2.0146
  117OSM   H18H12335   2.895   1.881   8.217  0.1539  2.7234  0.0228
  118OSM      N12336   5.685   4.907   6.127 -0.1602 -0.3778 -0.6928
  118OSM    C1512337   5.586   4.906   6.240  0.4499  0.5181 -0.0920
  118OSM   H15A12338   5.602   4.997   6.296 -1.7188 -0.0878  1.6607
  118OSM   H15B12339   5.609   4.819   6.300  1.5669  2.0494  1.8202
  118OSM   H15C12340   5.483   4.906   6.207  0.2610  1.7427  0.4285
  118OSM    C1412341   5.662   4.791   6.041 -0.4011 -0.3566  0.5721
  118OSM   H14A12342   5.560   4.805   6.007 -1.6894  1.3538  4.5065
  118OSM   H14B12343   5.666   4.700   6.098  2.1254 -0.8528 -0.3050
  118OSM   H14C12344   5.735   4.791   5.962 -1.3475  0.2005 -0.3354
  118OSM    C1312345   5.667   5.039   6.048  0.3304  0.5862 -0.2475
  118OSM   H13A12346   5.755   5.062   5.990  0.6271  1.4085  0.4912
  118OSM   H13B12347   5.655   5.113   6.126 -3.6788 -2.2482  2.2175
  118OSM   H13C12348   5.582   5.048   5.983 -0.2626 -0.1976  0.3968
  118OSM    C1212349   5.825   4.896   6.175 -0.3755 -0.9391 -0.4414
  118OSM   H12A12350   5.848   4.992   6.220 -0.6714  0.0893 -2.3446
  118OSM   H12B12351   5.881   4.907   6.083 -2.3881 -1.2162 -1.7495
  118OSM    C1112352   5.869   4.776   6.256  0.2551  0.1969  0.2646
  118OSM   H11A12353   5.812   4.787   6.351 -3.1378 -1.8828 -1.3501
  118OSM   H11B12354   5.979   4.783   6.271  0.3783  0.6251 -0.7737
  118OSM      P12355   5.863   4.513   6.260  0.3287 -0.1545 -0.0006
  118OSM    O1312356   5.765   4.418   6.211  0.5278  0.5461  0.2091
  118OSM    O1412357   6.004   4.466   6.261 -0.0654  0.5246 -0.1548
  118OSM    O1112358   5.817   4.549   6.404 -0.1386  0.5465 -0.7118
  118OSM    O1212359   5.847   4.650   6.192  0.1818 -0.7254 -0.1018
  118OSM    C1S12360   5.911   4.564   6.519  0.1177 -0.3745  0.0911
  118OSM    H1S12361   5.979   4.642   6.480 -1.8812 -0.0118 -2.9420
  118OSM    H1T12362   5.958   4.466   6.544 -0.8575 -0.5571  1.2990
  118OSM     NF12363   5.933   4.620   6.761 -0.2874 -0.2374  0.2260
  118OSM    HNF12364   5.919   4.533   6.808 -2.1988 -1.5092 -2.4396
  118OSM    C2S12365   5.843   4.625   6.647  0.0806  0.4618 -0.5373
  118OSM    H2S12366   5.828   4.730   6.614 -0.4204  1.4499  2.4449
  118OSM    C3S12367   5.707   4.570   6.680 -0.9841 -0.2504 -0.2274
  118OSM    H3S12368   5.727   4.462   6.696  1.5718  0.0513 -0.9451
  118OSM     O312369   5.614   4.567   6.573  0.0833  0.4897  1.0230
  118OSM    HO312370   5.677   4.568   6.501 -1.7610  0.4259 -0.6482
  118OSM    C4S12371   5.645   4.641   6.791  0.1250  0.5528 -0.1007
  118OSM    H4S12372   5.612   4.741   6.761 -1.7257 -0.7435 -2.8005
  118OSM    C5S12373   5.628   4.593   6.912  0.4581 -0.3051 -0.5577
  118OSM    H5S12374   5.674   4.500   6.948  1.4891  0.1334 -0.7126
  118OSM    C6S12375   5.560   4.670   7.021  0.5618  0.6115  0.5626
  118OSM    H6S12376   5.471   4.606   7.040 -1.2733  1.7375 -3.2534
  118OSM    H6T12377   5.531   4.774   6.995 -0.3865 -0.0779 -1.3874
  118OSM    C7S12378   5.649   4.693   7.144 -0.2314  0.4163  0.1337
  118OSM    H7S12379   5.581   4.753   7.209  0.2267 -1.3639  2.3737
  118OSM    H7T12380   5.743   4.747   7.121 -0.9345  0.3273 -3.6272
  118OSM    C8S12381   5.691   4.561   7.219 -0.2992 -0.9734 -0.2505
  118OSM    H8S12382   5.787   4.527   7.174 -1.2986 -1.7228 -1.9108
  118OSM    H8T12383   5.626   4.478   7.185  0.8211 -2.0419  0.1373
  118OSM    C9S12384   5.687   4.568   7.369 -0.1813  0.1686  0.1069
  118OSM    H9S12385   5.583   4.595   7.395  0.6957  2.8547  1.2530
  118OSM    H9T12386   5.744   4.662   7.389  1.5405  0.0282 -3.3968
  118OSM   C10S12387   5.767   4.455   7.433 -0.1375  0.6564 -0.4647
  118OSM   H10S12388   5.867   4.455   7.385 -0.2966  3.2542 -0.9073
  118OSM   H10T12389   5.715   4.358   7.420 -1.7994  1.3621  0.6288
  118OSM   C11S12390   5.780   4.486   7.586  0.3680  0.1692 -0.1881
  118OSM   H11S12391   5.805   4.386   7.626  2.9203 -0.0429 -2.0797
  118OSM   H11T12392   5.683   4.524   7.624 -0.5750  1.2037 -3.3212
  118OSM   C12S12393   5.890   4.590   7.621  0.4378 -0.0094  0.2746
  118OSM   H12S12394   5.855   4.687   7.580 -2.4052 -0.2747  1.8219
  118OSM   H12T12395   5.985   4.558   7.573 -0.4150  0.1103 -1.5847
  118OSM   C13S12396   5.899   4.614   7.769 -0.3336 -0.0661 -0.3416
  118OSM   H13S12397   5.867   4.529   7.833  1.1153  1.2345  2.2711
  118OSM   H13T12398   5.822   4.690   7.794 -1.6382 -1.8229  1.3246
  118OSM   C14S12399   6.036   4.662   7.815  0.5327  0.6528 -0.0594
  118OSM   H14S12400   6.063   4.748   7.749  1.0593  0.9166  0.4895
  118OSM   H14T12401   6.107   4.577   7.808 -0.0746  0.2806 -3.7817
  118OSM   C15S12402   6.036   4.713   7.962  0.3481 -0.3678 -0.6007
  118OSM   H15S12403   5.980   4.643   8.027  1.1560 -2.1429 -1.7204
  118OSM   H15T12404   5.982   4.809   7.975 -0.5036 -0.6607 -1.8542
  118OSM   C16S12405   6.172   4.733   8.013 -0.1709 -0.4702  0.1760
  118OSM   H16S12406   6.218   4.809   7.946  3.6032 -0.7295  2.1930
  118OSM   H16T12407   6.227   4.636   8.006 -0.1915 -0.4929  0.3241
  118OSM   C17S12408   6.183   4.793   8.153 -0.6585  0.2132 -0.0105
  118OSM   H17S12409   6.132   4.730   8.229 -2.4198 -0.3757 -1.5929
  118OSM   H17T12410   6.134   4.893   8.162 -0.3858  0.2357  1.5017
  118OSM   C18S12411   6.330   4.814   8.190  0.3740 -0.2145 -0.0586
  118OSM   H18S12412   6.379   4.899   8.139  0.7624  0.8812  2.0301
  118OSM   H18T12413   6.386   4.720   8.168  2.4107  1.2859 -1.6764
  118OSM   H18U12414   6.342   4.834   8.298  0.2307  0.3115 -0.1345
  118OSM    C1F12415   6.042   4.694   6.774 -0.1012 -0.2235  0.0969
  118OSM     OF12416   6.058   4.790   6.696  0.2290 -0.2556  0.2449
  118OSM    C2F12417   6.146   4.660   6.875  0.6041  0.6695 -0.0962
  118OSM    H2F12418   6.216   4.745   6.869 -1.1506  2.1062 -1.6420
  118OSM    H2G12419   6.202   4.572   6.838  1.8005  1.3110  0.1382
  118OSM    C3F12420   6.098   4.627   7.015 -0.0485 -0.8548  0.1359
  118OSM    H3F12421   6.036   4.536   7.022 -0.1879 -0.6682  1.6895
  118OSM    H3G12422   6.039   4.713   7.053  0.8245 -0.7770  1.3886
  118OSM    C4F12423   6.216   4.605   7.116  0.2244  0.3194  0.3375
  118OSM    H4F12424   6.262   4.707   7.118 -1.0713  0.9410 -0.6869
  118OSM    H4G12425   6.293   4.539   7.071  1.6499  0.8104  1.9497
  118OSM    C5F12426   6.167   4.581   7.262 -0.1245  0.0008  0.1759
  118OSM    H5F12427   6.121   4.481   7.279 -0.3674  0.0799 -0.0190
  118OSM    H5G12428   6.092   4.661   7.282 -0.5667 -0.4258  0.2448
  118OSM    C6F12429   6.289   4.601   7.351 -0.0599 -0.1123 -0.6193
  118OSM    H6F12430   6.391   4.627   7.316  1.2229  0.0927  2.8141
  118OSM    H6G12431   6.313   4.498   7.384  1.3283  0.2701 -0.3502
  118OSM    C7F12432   6.257   4.673   7.484 -0.0460  0.0745 -0.4532
  118OSM    H7F12433   6.168   4.630   7.535 -1.2848  1.0872 -1.6729
  118OSM    H7G12434   6.222   4.775   7.457  1.3738  0.8138  0.3850
  118OSM    C8F12435   6.385   4.691   7.568 -1.0433  0.0051 -0.4230
  118OSM    H8F12436   6.466   4.720   7.498  0.2351  1.8387  1.6754
  118OSM    H8G12437   6.407   4.587   7.600  5.1447  1.1497  0.1773
  118OSM    C9F12438   6.375   4.795   7.673  0.2558  0.0994 -0.4564
  118OSM    H9F12439   6.303   4.876   7.659  1.6141  1.3663 -0.2972
  118OSM   C10F12440   6.458   4.799   7.781 -0.1811  0.9090  0.3021
  118OSM   H10F12441   6.448   4.879   7.857  1.8964  1.5492 -0.0491
  118OSM   C11F12442   6.571   4.696   7.800 -0.4780  0.6667 -0.4250
  118OSM   H11F12443   6.582   4.615   7.725  1.8318  0.3646  0.1679
  118OSM   H11G12444   6.538   4.640   7.891 -1.4580  0.9690 -0.5846
  118OSM   C12F12445   6.715   4.752   7.826 -0.2081 -0.0300  0.2186
  118OSM   H12F12446   6.738   4.785   7.930  1.4522 -2.3192  0.6580
  118OSM   H12G12447   6.727   4.839   7.759 -0.2577 -2.2440 -2.8684
  118OSM   C13F12448   6.835   4.664   7.773  0.9253 -0.1363 -0.5085
  118OSM   H13F12449   6.931   4.717   7.788  0.8787 -0.2739  0.3024
  118OSM   H13G12450   6.816   4.646   7.665 -1.4440  1.9489 -0.5243
  118OSM   C14F12451   6.847   4.533   7.850  0.0491  1.0930 -0.4265
  118OSM   H14F12452   6.780   4.450   7.820  2.6537 -1.2982  0.0332
  118OSM   H14G12453   6.821   4.547   7.957 -1.5880  0.0423 -0.6643
  118OSM   C15F12454   6.984   4.469   7.851  0.1265  0.0020  0.1607
  118OSM   H15F12455   6.988   4.391   7.930  0.2803  0.1898  0.3379
  118OSM   H15G12456   7.066   4.538   7.880  2.0449 -1.1610 -2.1397
  118OSM   C16F12457   7.045   4.428   7.715 -0.2178  0.3186 -0.2940
  118OSM   H16F12458   7.154   4.451   7.722 -0.8093  2.9383  1.4039
  118OSM   H16G12459   6.999   4.492   7.637  0.5305  1.9498  0.5668
  118OSM   C17F12460   7.020   4.282   7.684 -0.6813 -0.3768 -0.4718
  118OSM   H17F12461   6.915   4.245   7.690  0.1732 -2.9848 -0.5317
  118OSM   H17G12462   7.085   4.226   7.754  0.8653  1.7007 -0.1685
  118OSM   C18F12463   7.068   4.238   7.544  0.5556 -0.1373  0.0536
  118OSM   H18F12464   6.986   4.247   7.470 -0.1886  0.2487  0.9095
  118OSM   H18G12465   7.094   4.130   7.541 -1.3962 -0.6231 -0.4673
  118OSM   H18H12466   7.151   4.295   7.496 -0.5872  1.2207 -0.3581
  119OSM      N12467   6.585   1.760   5.465  0.1190  0.1514 -0.5054
  119OSM    C1512468   6.591   1.886   5.387  0.7042 -0.0996  0.4198
  119OSM   H15A12469   6.695   1.914   5.379  0.8548 -0.2134  1.6843
  119OSM   H15B12470   6.536   1.964   5.437 -0.2481 -1.7674  2.1100
  119OSM   H15C12471   6.557   1.875   5.285 -0.8104 -0.8894  0.9830
  119OSM    C1412472   6.437   1.730   5.467  0.0274  0.6921  0.1162
  119OSM   H14A12473   6.385   1.823   5.482 -0.6415  0.5043 -0.9806
  119OSM   H14B12474   6.408   1.661   5.546 -2.7758 -1.2627 -2.3800
  119OSM   H14C12475   6.404   1.686   5.374  0.4570  0.8918 -0.1336
  119OSM    C1312476   6.662   1.651   5.396 -0.6680  0.2940 -0.4192
  119OSM   H13A12477   6.666   1.654   5.288 -0.5941  0.1750 -0.4193
  119OSM   H13B12478   6.619   1.552   5.404  1.5959 -0.6288  1.5412
  119OSM   H13C12479   6.764   1.643   5.429 -1.3254 -3.2360  1.2472
  119OSM    C1212480   6.633   1.768   5.614  0.0015  0.3040 -0.1319
  119OSM   H12A12481   6.613   1.675   5.666  2.9133 -0.7031 -0.6119
  119OSM   H12B12482   6.570   1.839   5.664 -1.5185  0.0416 -1.5735
  119OSM    C1112483   6.779   1.782   5.643 -0.4147 -0.4379  0.6914
  119OSM   H11A12484   6.781   1.825   5.745 -2.5993 -1.5093  1.2523
  119OSM   H11B12485   6.815   1.858   5.570 -2.4085 -0.3967 -0.3300
  119OSM      P12486   6.846   1.546   5.740 -0.2898 -0.2212  0.3147
  119OSM    O1312487   6.718   1.468   5.739  0.2126  0.2313  0.2347
  119OSM    O1412488   6.973   1.469   5.725  0.2963 -0.1117 -0.3356
  119OSM    O1112489   6.847   1.633   5.871 -0.5385  0.5968 -0.8021
  119OSM    O1212490   6.842   1.654   5.622  0.2202 -0.1189 -0.0277
  119OSM    C1S12491   6.896   1.567   5.994  0.4665  0.2384  0.5057
  119OSM    H1S12492   6.989   1.509   5.973 -0.3075 -1.7165  2.0554
  119OSM    H1T12493   6.820   1.493   6.029 -0.6500  0.6848 -0.8786
  119OSM     NF12494   6.987   1.588   6.207  0.0085 -0.1895 -0.1684
  119OSM    HNF12495   6.927   1.570   6.284  0.9695 -2.2831  0.1742
  119OSM    C2S12496   6.934   1.670   6.100 -0.0505  0.1523  0.0359
  119OSM    H2S12497   7.017   1.727   6.054 -0.3504  1.6584  1.2621
  119OSM    C3S12498   6.817   1.767   6.136 -0.4170  0.5944 -0.3487
  119OSM    H3S12499   6.728   1.705   6.158  0.2956 -1.6416 -3.1991
  119OSM     O312500   6.781   1.838   6.021 -0.3475  0.1266 -0.3040
  119OSM    HO312501   6.791   1.787   5.940 -5.6602  1.5603 -2.2292
  119OSM    C4S12502   6.859   1.857   6.251 -1.1094 -0.1343  0.2815
  119OSM    H4S12503   6.826   1.826   6.352  2.0580  0.5149  1.6533
  119OSM    C5S12504   6.922   1.979   6.242 -0.1518 -0.0288 -0.7948
  119OSM    H5S12505   6.938   2.024   6.143 -1.0070  0.4924 -0.7046
  119OSM    C6S12506   6.973   2.051   6.360 -0.0096  0.7332 -0.5309
  119OSM    H6S12507   6.950   2.159   6.348  1.3806  1.2318  0.9660
  119OSM    H6T12508   7.084   2.052   6.371 -0.1162  1.6993  0.5219
  119OSM    C7S12509   6.927   2.006   6.501  0.6266  0.8143  0.1358
  119OSM    H7S12510   6.989   1.920   6.534 -1.3135  0.2096  2.5333
  119OSM    H7T12511   6.822   1.970   6.506  0.9718 -0.1672  0.6953
  119OSM    C8S12512   6.931   2.120   6.601 -0.3830 -0.6633 -0.3650
  119OSM    H8S12513   6.876   2.203   6.552 -1.1288 -0.7226  0.3339
  119OSM    H8T12514   7.036   2.148   6.621 -0.1322  0.2935 -2.6944
  119OSM    C9S12515   6.858   2.072   6.729  0.3511  0.3398  0.4577
  119OSM    H9S12516   6.917   1.986   6.766 -1.7551 -0.2809  2.5968
  119OSM    H9T12517   6.756   2.035   6.708 -0.0491  1.5022  0.2603
  119OSM   C10S12518   6.854   2.179   6.841 -0.2300 -0.0941  0.6088
  119OSM   H10S12519   6.780   2.259   6.822 -1.1279 -0.6728  1.5452
  119OSM   H10T12520   6.957   2.216   6.857  0.0144 -1.0700  1.4370
  119OSM   C11S12521   6.828   2.113   6.974 -0.0812 -0.0319  0.4239
  119OSM   H11S12522   6.898   2.030   6.997 -1.5415 -1.3594  0.2640
  119OSM   H11T12523   6.731   2.059   6.960 -0.0643  0.2081 -0.7380
  119OSM   C12S12524   6.819   2.213   7.084 -0.5524 -0.3453  0.0336
  119OSM   H12S12525   6.738   2.285   7.057 -1.5733 -1.3374  0.3544
  119OSM   H12T12526   6.916   2.266   7.099 -0.9039  0.3587 -0.1105
  119OSM   C13S12527   6.790   2.138   7.213  0.0019 -0.7813  0.2517
  119OSM   H13S12528   6.883   2.082   7.235 -0.1871 -1.3554 -0.3672
  119OSM   H13T12529   6.701   2.072   7.201  0.6818 -1.5815 -0.5060
  119OSM   C14S12530   6.770   2.241   7.329  0.5545 -0.4932  0.2160
  119OSM   H14S12531   6.672   2.290   7.308 -0.2962 -1.7820  1.0030
  119OSM   H14T12532   6.850   2.317   7.318 -0.8341  1.0894  0.6814
  119OSM   C15S12533   6.762   2.171   7.466 -0.2994 -0.1978 -0.2293
  119OSM   H15S12534   6.796   2.256   7.530  0.3615 -1.9187  1.7953
  119OSM   H15T12535   6.845   2.097   7.468  0.5272  0.6835  1.8570
  119OSM   C16S12536   6.625   2.117   7.514  0.6866 -0.4799 -0.6557
  119OSM   H16S12537   6.585   2.053   7.433 -1.1082 -0.4078  0.1184
  119OSM   H16T12538   6.560   2.208   7.521  1.1648 -0.1608 -0.3336
  119OSM   C17S12539   6.634   2.066   7.648  0.7095  0.5311 -0.0904
  119OSM   H17S12540   6.661   2.146   7.720  1.7024 -0.7715  1.0466
  119OSM   H17T12541   6.718   1.994   7.656  0.0245 -0.1390  1.4511
  119OSM   C18S12542   6.500   2.002   7.691  0.9166  0.6554  0.3264
  119OSM   H18S12543   6.408   2.064   7.686 -0.0816 -0.8612 -1.0986
  119OSM   H18T12544   6.507   1.965   7.796  0.0697 -0.2681  0.0742
  119OSM   H18U12545   6.474   1.923   7.618 -1.4479  0.8109  0.9129
  119OSM    C1F12546   7.103   1.524   6.217 -0.3158 -0.2389  0.4598
  119OSM     OF12547   7.176   1.538   6.122  0.0624  0.5285 -0.1819
  119OSM    C2F12548   7.129   1.462   6.344 -0.4321 -0.7262  0.3510
  119OSM    H2F12549   7.112   1.353   6.352 -0.2345 -0.9026 -1.2960
  119OSM    H2G12550   7.077   1.517   6.425  0.2610 -1.8447  1.5824
  119OSM    C3F12551   7.283   1.461   6.386 -0.2691 -0.4468  0.6376
  119OSM    H3F12552   7.331   1.558   6.363  0.2671 -0.8354  0.1153
  119OSM    H3G12553   7.344   1.377   6.346  1.4639  0.8059  0.5580
  119OSM    C4F12554   7.296   1.444   6.536 -0.9395  0.1108 -0.2345
  119OSM    H4F12555   7.311   1.337   6.561  2.2698  0.7853  1.2123
  119OSM    H4G12556   7.208   1.474   6.596 -0.9750  0.6962 -0.5670
  119OSM    C5F12557   7.411   1.524   6.594  0.2574 -0.3692  0.0330
  119OSM    H5F12558   7.421   1.634   6.578  1.4952 -0.3177  1.0366
  119OSM    H5G12559   7.508   1.479   6.566  0.2346  0.1441 -0.9060
  119OSM    C6F12560   7.408   1.535   6.748  0.3413 -0.2390  0.1778
  119OSM    H6F12561   7.325   1.596   6.790  0.7407  0.3276  0.1491
  119OSM    H6G12562   7.508   1.575   6.773  0.5856  0.1096 -1.3000
  119OSM    C7F12563   7.398   1.394   6.819  0.7655 -0.3275  0.2507
  119OSM    H7F12564   7.480   1.335   6.775  1.0025  0.5187 -0.4663
  119OSM    H7G12565   7.300   1.347   6.794  1.8517 -3.1549  0.9401
  119OSM    C8F12566   7.403   1.400   6.975  0.2331 -0.9954  0.6608
  119OSM    H8F12567   7.504   1.443   6.995 -0.1212  0.4423 -0.4847
  119OSM    H8G12568   7.407   1.294   7.008  2.3925 -0.8786  0.9358
  119OSM    C9F12569   7.282   1.479   7.035  0.6263  0.0014  0.2769
  119OSM    H9F12570   7.193   1.491   6.972  0.6333 -1.9400 -0.1532
  119OSM   C10F12571   7.289   1.515   7.165  1.3633  0.2263  0.8345
  119OSM   H10F12572   7.211   1.583   7.201  1.8416  1.7953 -0.9039
  119OSM   C11F12573   7.402   1.507   7.264 -0.2158  0.9927  0.5756
  119OSM   H11F12574   7.483   1.443   7.223  0.9550  1.9920  1.2527
  119OSM   H11G12575   7.358   1.467   7.358  2.4429 -2.1921  0.6714
  119OSM   C12F12576   7.464   1.642   7.297  0.2779 -0.2858  0.5904
  119OSM   H12F12577   7.394   1.724   7.324  1.2151  0.5228  0.6270
  119OSM   H12G12578   7.514   1.686   7.208 -1.7708 -3.1861 -2.2136
  119OSM   C13F12579   7.568   1.640   7.407 -0.5992  0.6961  0.0673
  119OSM   H13F12580   7.673   1.630   7.374  0.1422  0.6785  2.2341
  119OSM   H13G12581   7.532   1.551   7.463  1.8302 -0.4378 -0.0663
  119OSM   C14F12582   7.564   1.766   7.488 -0.3118  0.0881 -0.5428
  119OSM   H14F12583   7.463   1.808   7.508 -0.0572  1.7183 -2.3562
  119OSM   H14G12584   7.600   1.839   7.412  0.1512 -2.4333 -2.9191
  119OSM   C15F12585   7.650   1.769   7.617  0.2279 -0.1127 -0.7072
  119OSM   H15F12586   7.630   1.673   7.669 -0.0237 -0.3046 -1.1552
  119OSM   H15G12587   7.603   1.850   7.678  0.6848 -1.4958  1.6082
  119OSM   C16F12588   7.799   1.791   7.598  0.3622  0.7009  0.1295
  119OSM   H16F12589   7.824   1.714   7.522  0.2955 -0.1598  0.9666
  119OSM   H16G12590   7.853   1.769   7.692 -0.1567  1.0562  0.5106
  119OSM   C17F12591   7.832   1.929   7.540 -0.1785 -0.3060 -0.2679
  119OSM   H17F12592   7.798   2.009   7.609  3.0496  1.5302 -0.5835
  119OSM   H17G12593   7.772   1.944   7.448 -1.2780  3.2379  0.8555
  119OSM   C18F12594   7.976   1.958   7.504 -0.0424 -0.1891 -0.4231
  119OSM   H18F12595   7.986   2.044   7.434  0.3774  0.0052 -0.1298
  119OSM   H18G12596   8.020   1.871   7.449  0.8555 -0.3856  0.5755
  119OSM   H18H12597   8.033   1.984   7.596  0.6687 -3.4061  0.1634
  120OSM      N12598   3.492   1.209   5.794 -0.0181 -0.9737  0.2305
  120OSM    C1512599   3.483   1.335   5.709  0.8851  0.5551 -0.0287
  120OSM   H15A12600   3.430   1.304   5.619  1.2227 -1.2494  0.3565
  120OSM   H15B12601   3.578   1.379   5.686  0.9529 -0.7570 -2.7368
  120OSM   H15C12602   3.423   1.414   5.752  0.9080  1.0632 -0.9136
  120OSM    C1412603   3.349   1.164   5.802  0.1960  0.6159 -0.0483
  120OSM   H14A12604   3.317   1.115   5.712 -0.7201  0.6030  0.2731
  120OSM   H14B12605   3.290   1.251   5.826 -0.3043  0.0094  0.9581
  120OSM   H14C12606   3.338   1.092   5.881  1.8315 -0.3510 -0.6414
  120OSM    C1312607   3.585   1.104   5.736 -0.0405 -0.3955  0.5433
  120OSM   H13A12608   3.587   1.012   5.793 -0.8408 -0.5447  0.3478
  120OSM   H13B12609   3.685   1.143   5.720 -1.2109  1.9003 -1.9326
  120OSM   H13C12610   3.550   1.060   5.643  0.0255  0.7753 -0.0468
  120OSM    C1212611   3.543   1.243   5.932  0.1930  0.1064  0.0557
  120OSM   H12A12612   3.503   1.336   5.969 -0.7676 -0.0089 -0.6557
  120OSM   H12B12613   3.649   1.265   5.927  0.1992  0.2324  0.6952
  120OSM    C1112614   3.530   1.141   6.044 -0.0414 -0.4527 -0.4393
  120OSM   H11A12615   3.576   1.186   6.135 -0.3238  0.4690 -0.7465
  120OSM   H11B12616   3.583   1.048   6.014  0.5910 -0.0184 -0.6763
  120OSM      P12617   3.323   0.987   6.116 -0.1951  0.0573 -0.1133
  120OSM    O1312618   3.207   1.005   6.203 -0.2632 -0.5342 -0.2528
  120OSM    O1412619   3.303   0.902   5.997 -0.2652 -0.1136 -0.9631
  120OSM    O1112620   3.439   0.916   6.200 -0.4073 -0.0131 -0.5575
  120OSM    O1212621   3.390   1.122   6.078  0.7173  0.4127 -0.1885
  120OSM    C1S12622   3.457   0.938   6.338 -0.3714 -0.3407 -0.5150
  120OSM    H1S12623   3.406   1.031   6.372 -0.2652 -0.1014 -0.9954
  120OSM    H1T12624   3.564   0.951   6.367 -0.7010 -0.6600  0.9063
  120OSM     NF12625   3.446   0.844   6.556 -0.0090 -0.4769 -0.3750
  120OSM    HNF12626   3.537   0.826   6.593  0.1219  0.4632 -0.2233
  120OSM    C2S12627   3.412   0.816   6.420  0.0785 -0.1077  0.3572
  120OSM    H2S12628   3.304   0.798   6.401  0.1559 -0.8273  0.5858
  120OSM    C3S12629   3.475   0.679   6.362  0.0301 -0.2891  0.1123
  120OSM    H3S12630   3.585   0.695   6.370 -0.0623  0.7015 -0.4917
  120OSM     O312631   3.430   0.639   6.230  0.3256  0.1826  0.0691
  120OSM    HO312632   3.392   0.716   6.186 -1.8349  1.1750  3.2238
  120OSM    C4S12633   3.443   0.560   6.444 -0.5231  0.0604 -0.1031
  120OSM    H4S12634   3.539   0.519   6.479 -0.4531  1.2257  1.1219
  120OSM    C5S12635   3.333   0.492   6.473 -0.5237  0.3710  0.4635
  120OSM    H5S12636   3.235   0.531   6.442 -0.1775  0.6737 -0.2609
  120OSM    C6S12637   3.341   0.360   6.555  0.8644  0.0173  0.5968
  120OSM    H6S12638   3.420   0.289   6.521  0.0562 -1.3150  1.3985
  120OSM    H6T12639   3.246   0.304   6.537  1.5695 -0.7403 -1.0067
  120OSM    C7S12640   3.360   0.384   6.709 -0.8409 -0.3577 -0.2512
  120OSM    H7S12641   3.457   0.437   6.712 -0.0501 -1.7460 -0.4350
  120OSM    H7T12642   3.375   0.285   6.756  1.5567 -0.0857 -0.3531
  120OSM    C8S12643   3.251   0.451   6.797 -0.5822 -0.0936 -0.3701
  120OSM    H8S12644   3.157   0.390   6.797 -0.4903 -0.2694 -1.8136
  120OSM    H8T12645   3.230   0.548   6.748 -0.3013  0.9268  1.4373
  120OSM    C9S12646   3.299   0.493   6.940  0.3081  0.2604 -0.1412
  120OSM    H9S12647   3.219   0.551   6.991  2.5093  3.0633  0.3816
  120OSM    H9T12648   3.380   0.569   6.934  0.9626 -0.3373  0.7707
  120OSM   C10S12649   3.352   0.374   7.023 -0.4336 -0.2236  0.3413
  120OSM   H10S12650   3.450   0.347   6.979 -0.4456 -0.1566  0.2737
  120OSM   H10T12651   3.282   0.289   7.006 -0.2629 -0.2770 -0.1101
  120OSM   C11S12652   3.376   0.396   7.176 -0.2458  0.1221  0.3702
  120OSM   H11S12653   3.280   0.425   7.225 -0.8074 -2.8336  1.2228
  120OSM   H11T12654   3.452   0.471   7.205  1.7937 -1.1171 -1.4778
  120OSM   C12S12655   3.426   0.263   7.237 -0.0275  0.1212 -0.5951
  120OSM   H12S12656   3.527   0.242   7.197  1.9277  5.1826  0.8517
  120OSM   H12T12657   3.353   0.189   7.197 -0.3247 -1.4341  2.5199
  120OSM   C13S12658   3.416   0.263   7.388 -0.2158 -0.4098  0.3316
  120OSM   H13S12659   3.313   0.280   7.426  0.2196  2.0109  0.6260
  120OSM   H13T12660   3.473   0.351   7.424 -0.1997 -0.5656  0.6887
  120OSM   C14S12661   3.482   0.137   7.450  0.2006  0.2952 -0.4875
  120OSM   H14S12662   3.585   0.128   7.411  0.1223 -2.5895 -0.2437
  120OSM   H14T12663   3.427   0.054   7.399  0.3013  0.1703 -0.3947
  120OSM   C15S12664   3.476   0.134   7.606 -0.5118 -0.1027  0.1121
  120OSM   H15S12665   3.373   0.145   7.648 -0.0641  1.4108  0.8674
  120OSM   H15T12666   3.540   0.218   7.639  0.6938 -1.2782  0.8789
  120OSM   C16S12667   3.523  -0.005   7.659 -0.3056  0.2080  0.0555
  120OSM   H16S12668   3.461  -0.083   7.608  2.1967 -1.6548 -0.3271
  120OSM   H16T12669   3.499  -0.023   7.766  0.6142  2.9760  0.8060
  120OSM   C17S12670   3.669  -0.019   7.634  0.1620 -0.4667  0.0844
  120OSM   H17S12671   3.713  -0.073   7.721  2.6738 -0.4151 -1.0641
  120OSM   H17T12672   3.723   0.078   7.623 -0.2618 -0.1119  1.0184
  120OSM   C18S12673   3.693  -0.110   7.516 -0.0136  0.0309  0.2223
  120OSM   H18S12674   3.799  -0.131   7.491  0.0168  0.8495 -0.3744
  120OSM   H18T12675   3.651  -0.079   7.418  3.4518  0.0935 -1.3729
  120OSM   H18U12676   3.642  -0.208   7.533 -0.0432 -0.3203 -1.6549
  120OSM    C1F12677   3.371   0.911   6.634  0.0698 -0.5454 -0.4756
  120OSM     OF12678   3.280   0.983   6.591  0.0531  0.1483 -0.1063
  120OSM    C2F12679   3.409   0.907   6.779 -0.2362  0.2602 -0.4461
  120OSM    H2F12680   3.479   0.991   6.797  2.4357 -1.8973 -0.0730
  120OSM    H2G12681   3.472   0.815   6.790  0.5432  0.7703 -0.5231
  120OSM    C3F12682   3.287   0.895   6.869  0.0237  0.1400 -0.3852
  120OSM    H3F12683   3.216   0.819   6.831 -0.1749  0.3853 -0.5062
  120OSM    H3G12684   3.224   0.986   6.872 -0.1049  0.0481  2.3637
  120OSM    C4F12685   3.328   0.873   7.009  0.4452  0.1329 -0.1660
  120OSM    H4F12686   3.398   0.954   7.038 -0.2593  0.6449  0.1317
  120OSM    H4G12687   3.378   0.774   7.023 -0.4656 -0.2520  0.5192
  120OSM    C5F12688   3.214   0.882   7.109  0.1285  0.4309 -0.2155
  120OSM    H5F12689   3.135   0.814   7.072  0.4160  0.1667 -0.3384
  120OSM    H5G12690   3.172   0.984   7.122 -3.5224 -0.7922 -1.2845
  120OSM    C6F12691   3.263   0.818   7.243 -0.0193 -0.6105  0.3466
  120OSM    H6F12692   3.353   0.867   7.284  2.4586 -3.0972 -1.7022
  120OSM    H6G12693   3.297   0.713   7.228 -1.2950 -1.0249  0.2143
  120OSM    C7F12694   3.156   0.820   7.353  0.0844 -0.1483  0.3498
  120OSM    H7F12695   3.193   0.752   7.433  0.7993  1.5803  1.5671
  120OSM    H7G12696   3.056   0.792   7.314  0.2271 -0.7668  0.4251
  120OSM    C8F12697   3.132   0.957   7.417  0.3154 -0.8604 -0.8120
  120OSM    H8F12698   3.095   1.041   7.354  1.7539  0.3345 -0.1095
  120OSM    H8G12699   3.228   1.002   7.450 -1.3442 -0.0638  3.6783
  120OSM    C9F12700   3.057   0.949   7.549 -0.3453 -0.6409 -0.3988
  120OSM    H9F12701   2.954   0.987   7.544  0.6880  3.0079  2.1861
  120OSM   C10F12702   3.096   0.894   7.665  0.6163  0.5660 -0.3499
  120OSM   H10F12703   3.018   0.877   7.741 -0.1155  0.5537 -1.0827
  120OSM   C11F12704   3.234   0.836   7.687 -0.1222  0.2914 -0.0931
  120OSM   H11F12705   3.283   0.899   7.764  3.0996 -2.0199 -0.0840
  120OSM   H11G12706   3.300   0.844   7.598  0.3475  2.7886  0.3898
  120OSM   C12F12707   3.229   0.692   7.736  0.4271 -0.4832 -0.3893
  120OSM   H12F12708   3.159   0.643   7.665 -0.7822  2.7046 -1.5498
  120OSM   H12G12709   3.193   0.679   7.841  1.7220  0.5369  0.2161
  120OSM   C13F12710   3.368   0.622   7.721  0.6382 -0.3551  0.1294
  120OSM   H13F12711   3.434   0.647   7.807  0.9206 -2.0512  0.4333
  120OSM   H13G12712   3.412   0.669   7.630 -2.1018  3.0708  0.3159
  120OSM   C14F12713   3.358   0.470   7.711  0.1952 -0.0036 -0.0727
  120OSM   H14F12714   3.463   0.437   7.695  1.5845  3.0302  1.8566
  120OSM   H14G12715   3.294   0.445   7.624 -0.2060 -0.6923  0.4140
  120OSM   C15F12716   3.297   0.403   7.832 -0.5285 -0.3312  0.5022
  120OSM   H15F12717   3.305   0.293   7.821  0.5948 -0.4118  1.8056
  120OSM   H15G12718   3.192   0.437   7.832 -0.6419 -0.4522 -2.5163
  120OSM   C16F12719   3.369   0.445   7.961  0.5726  0.1083 -0.2025
  120OSM   H16F12720   3.379   0.555   7.974  0.7755  0.1153 -0.4149
  120OSM   H16G12721   3.470   0.399   7.971  0.6369  0.0613 -1.0026
  120OSM   C17F12722   3.283   0.398   8.084 -0.3773  0.1070  0.2136
  120OSM   H17F12723   3.186   0.448   8.065  0.4032  0.6579 -2.9545
  120OSM   H17G12724   3.326   0.444   8.175  0.1595  1.2433 -0.5838
  120OSM   C18F12725   3.254   0.251   8.108 -0.4797  0.1466 -0.4777
  120OSM   H18F12726   3.346   0.190   8.116 -0.0767  0.5569 -1.8245
  120OSM   H18G12727   3.182   0.212   8.033  0.6293  0.4126 -1.7062
  120OSM   H18H12728   3.216   0.232   8.211  0.3147 -0.1134 -0.2230
  121OSM      N12729   6.038   1.506   5.886 -0.3402  0.1776 -0.2157
  121OSM    C1512730   6.135   1.540   5.996  0.0606  0.3561  0.0767
  121OSM   H15A12731   6.181   1.638   5.993  0.8127  0.1213  2.4301
  121OSM   H15B12732   6.215   1.469   6.012 -0.9148 -0.6141  0.7688
  121OSM   H15C12733   6.070   1.548   6.081 -3.3592  2.1416 -2.4620
  121OSM    C1412734   6.124   1.513   5.761  0.2667 -0.0846 -0.1408
  121OSM   H14A12735   6.174   1.608   5.749  1.4626 -0.5738  0.7011
  121OSM   H14B12736   6.066   1.497   5.671 -1.2299  0.2919  0.7258
  121OSM   H14C12737   6.201   1.438   5.770  0.8763 -0.0530 -3.6541
  121OSM    C1312738   5.974   1.374   5.912 -0.2910  0.7043 -0.1725
  121OSM   H13A12739   5.928   1.345   5.818  1.0748  0.4781 -0.7999
  121OSM   H13B12740   5.898   1.387   5.988 -0.8271  1.3366 -0.8036
  121OSM   H13C12741   6.050   1.301   5.935 -0.7342  1.1537  3.2461
  121OSM    C1212742   5.930   1.615   5.874 -0.3223 -0.6880 -0.3351
  121OSM   H12A12743   5.855   1.569   5.811 -0.0032  1.2248 -2.2309
  121OSM   H12B12744   5.979   1.690   5.815  2.7216 -1.8578  0.5085
  121OSM    C1112745   5.863   1.685   6.003  0.4659  0.8937  0.5289
  121OSM   H11A12746   5.792   1.758   5.959 -1.1667 -0.1831  1.2553
  121OSM   H11B12747   5.945   1.729   6.063 -0.6801  2.0656  1.2681
  121OSM      P12748   5.648   1.550   6.058  0.0980 -0.1693  0.2686
  121OSM    O1312749   5.610   1.586   5.917 -0.1491 -0.2892  0.0630
  121OSM    O1412750   5.623   1.409   6.103 -0.1562 -0.3686  0.0620
  121OSM    O1112751   5.580   1.655   6.151 -0.0209  0.2414  0.1766
  121OSM    O1212752   5.794   1.584   6.084 -0.2020  0.0928  0.0926
  121OSM    C1S12753   5.598   1.647   6.296  0.3041  0.2487 -0.1537
  121OSM    H1S12754   5.631   1.548   6.335 -2.6987 -0.6252  0.4350
  121OSM    H1T12755   5.495   1.649   6.338 -0.2067  0.4072 -1.3712
  121OSM     NF12756   5.671   1.756   6.493  0.0402  0.0679  0.0977
  121OSM    HNF12757   5.597   1.798   6.545  0.8791  1.1353  0.4645
  121OSM    C2S12758   5.673   1.768   6.351  0.1008 -0.5318 -0.8398
  121OSM    H2S12759   5.772   1.774   6.303 -0.8167  1.4625 -2.6294
  121OSM    C3S12760   5.609   1.904   6.306 -0.0155 -0.2665  0.4439
  121OSM    H3S12761   5.501   1.899   6.331  0.0547  2.2644  1.5694
  121OSM     O312762   5.603   1.922   6.168 -0.1503  0.3577  0.0941
  121OSM    HO312763   5.618   1.831   6.141  1.4893  0.6781 -0.1505
  121OSM    C4S12764   5.673   2.028   6.372 -0.2960 -0.1007  0.9985
  121OSM    H4S12765   5.617   2.073   6.455 -0.0276  0.3070  0.9641
  121OSM    C5S12766   5.786   2.090   6.339  0.1194  0.4286 -0.1214
  121OSM    H5S12767   5.840   2.066   6.246  0.2155 -0.5535  0.1786
  121OSM    C6S12768   5.839   2.215   6.408 -0.0998  0.0859 -0.5793
  121OSM    H6S12769   5.761   2.267   6.467  0.1000 -1.2258  0.8859
  121OSM    H6T12770   5.877   2.282   6.327  3.1940 -2.6765 -1.5358
  121OSM    C7S12771   5.971   2.179   6.490 -0.5488 -0.4345 -0.1744
  121OSM    H7S12772   6.036   2.269   6.486 -1.3772  0.2771  1.4579
  121OSM    H7T12773   6.033   2.100   6.442  0.4919 -0.1900  0.7337
  121OSM    C8S12774   5.953   2.171   6.642 -0.4025 -0.2152  0.3582
  121OSM    H8S12775   5.875   2.242   6.677  0.7977  1.0332  0.5728
  121OSM    H8T12776   6.051   2.197   6.686  0.9965 -2.5556 -1.1628
  121OSM    C9S12777   5.942   2.030   6.689 -0.3562  0.4832  0.1709
  121OSM    H9S12778   6.027   1.970   6.649 -1.3983  0.1177 -1.6135
  121OSM    H9T12779   5.850   1.984   6.646  0.6502 -0.4260 -1.1110
  121OSM   C10S12780   5.950   2.018   6.838 -0.7980  0.6261  0.1730
  121OSM   H10S12781   6.054   2.044   6.865 -0.9367  1.0773  0.2797
  121OSM   H10T12782   5.932   1.911   6.861 -0.6470  0.6710  0.4937
  121OSM   C11S12783   5.850   2.097   6.920  0.3601  0.8161 -0.2790
  121OSM   H11S12784   5.744   2.073   6.900  0.0913  0.7238  1.1416
  121OSM   H11T12785   5.856   2.207   6.911 -4.8528  1.4463  0.7685
  121OSM   C12S12786   5.875   2.062   7.075  0.0774  0.0062 -0.5194
  121OSM   H12S12787   5.985   2.049   7.085  0.0979 -1.1523 -1.9018
  121OSM   H12T12788   5.825   1.966   7.099 -2.6231  1.1738 -1.1020
  121OSM   C13S12789   5.815   2.172   7.174 -0.5062  0.2904  0.5496
  121OSM   H13S12790   5.710   2.195   7.149 -0.3884  1.4972  1.0862
  121OSM   H13T12791   5.881   2.261   7.162 -0.4996  0.2317  0.1367
  121OSM   C14S12792   5.824   2.124   7.309  0.4486 -0.4600 -0.1701
  121OSM   H14S12793   5.924   2.081   7.332  1.3917  1.3482 -0.6884
  121OSM   H14T12794   5.739   2.054   7.322 -1.0973  1.3161 -0.2295
  121OSM   C15S12795   5.808   2.236   7.417 -0.0787  0.0327 -0.4826
  121OSM   H15S12796   5.708   2.285   7.415 -0.0128  0.2778 -3.7328
  121OSM   H15T12797   5.890   2.310   7.399 -0.3285  0.4231 -0.0433
  121OSM   C16S12798   5.846   2.181   7.556 -0.4233  0.5250 -0.4720
  121OSM   H16S12799   5.835   2.264   7.629 -0.3560  1.1653 -1.1802
  121OSM   H16T12800   5.953   2.154   7.558 -0.4362  0.4996 -0.0504
  121OSM   C17S12801   5.756   2.068   7.611  0.1770  0.0311  0.2315
  121OSM   H17S12802   5.780   1.981   7.547 -2.0323  0.4494 -1.2782
  121OSM   H17T12803   5.652   2.103   7.594 -0.1476 -1.3109 -0.6574
  121OSM   C18S12804   5.786   2.035   7.753  0.2097  0.7477 -0.5936
  121OSM   H18S12805   5.896   2.044   7.770 -0.3489  0.9282  4.7477
  121OSM   H18T12806   5.750   1.932   7.771 -1.6141  1.2180 -1.3667
  121OSM   H18U12807   5.731   2.094   7.829 -1.8566 -0.2950 -1.2220
  121OSM    C1F12808   5.754   1.677   6.558  0.1242 -0.0002  0.5626
  121OSM     OF12809   5.841   1.619   6.493 -0.0048  0.7268 -0.4371
  121OSM    C2F12810   5.729   1.672   6.701  0.1987  0.6694 -0.5692
  121OSM    H2F12811   5.640   1.605   6.712 -1.4517  2.8873  0.5013
  121OSM    H2G12812   5.716   1.768   6.755  0.4923  1.1465 -1.3345
  121OSM    C3F12813   5.849   1.589   6.763 -0.5324  0.2899  0.4035
  121OSM    H3F12814   5.938   1.654   6.754 -1.8714  2.1095 -0.4692
  121OSM    H3G12815   5.866   1.494   6.707 -0.3874  0.3337  0.3739
  121OSM    C4F12816   5.838   1.545   6.914  0.6012 -0.7030  0.6092
  121OSM    H4F12817   5.927   1.483   6.937 -0.5146 -2.1344  1.2311
  121OSM    H4G12818   5.755   1.471   6.924 -0.8391  0.7914  0.2221
  121OSM    C5F12819   5.843   1.657   7.005 -0.0389 -0.6714  0.0853
  121OSM    H5F12820   5.795   1.751   6.969  2.1493  0.9177  1.0915
  121OSM    H5G12821   5.948   1.690   7.022  0.3176 -1.3744 -0.7216
  121OSM    C6F12822   5.791   1.613   7.143  0.4063 -0.2336 -0.2523
  121OSM    H6F12823   5.718   1.530   7.146  0.7492 -0.5561  3.0157
  121OSM    H6G12824   5.740   1.695   7.198  0.5140 -0.2282 -0.1585
  121OSM    C7F12825   5.898   1.548   7.233  0.3379  0.3883 -0.6648
  121OSM    H7F12826   5.982   1.620   7.230  0.7047 -0.0611 -1.6930
  121OSM    H7G12827   5.930   1.452   7.187  0.2905  0.3782 -0.6776
  121OSM    C8F12828   5.858   1.527   7.387 -0.1823 -1.2558  0.5820
  121OSM    H8F12829   5.808   1.623   7.415  0.9799  0.3626 -2.4237
  121OSM    H8G12830   5.960   1.526   7.432 -0.2776  1.9033  1.1159
  121OSM    C9F12831   5.780   1.393   7.410  0.0049 -0.0535  0.0970
  121OSM    H9F12832   5.827   1.295   7.392  0.3134 -0.2879  1.9181
  121OSM   C10F12833   5.663   1.387   7.470  0.0610  0.1982  0.1296
  121OSM   H10F12834   5.613   1.290   7.483  0.3289  0.2623  1.9586
  121OSM   C11F12835   5.578   1.496   7.521 -0.1011 -0.6798 -0.2030
  121OSM   H11F12836   5.476   1.458   7.544  0.0871 -2.0418 -1.4856
  121OSM   H11G12837   5.576   1.582   7.450  2.9191 -1.3220 -1.1877
  121OSM   C12F12838   5.632   1.570   7.644  0.3830  0.0093  0.0917
  121OSM   H12F12839   5.594   1.674   7.661  1.6405  0.7579 -1.4383
  121OSM   H12G12840   5.743   1.567   7.646  0.3542 -1.3949  0.3743
  121OSM   C13F12841   5.596   1.503   7.776 -0.0322  0.0103  0.4040
  121OSM   H13F12842   5.659   1.555   7.851  2.4118  2.2890 -2.9534
  121OSM   H13G12843   5.625   1.396   7.763  0.0311  0.3313 -3.0695
  121OSM   C14F12844   5.451   1.503   7.829  0.9631 -0.4072 -0.4972
  121OSM   H14F12845   5.385   1.470   7.747 -1.1193 -2.2490  1.7777
  121OSM   H14G12846   5.420   1.606   7.859  1.6898  0.1527 -1.6075
  121OSM   C15F12847   5.441   1.419   7.956 -0.5908  0.0466  0.3466
  121OSM   H15F12848   5.509   1.473   8.025  0.3280 -1.4495  0.6536
  121OSM   H15G12849   5.468   1.314   7.930 -0.8285 -0.6164  2.5407
  121OSM   C16F12850   5.306   1.412   8.023 -0.3553 -0.1488 -0.2539
  121OSM   H16F12851   5.297   1.496   8.095  2.5391 -0.7769  1.0103
  121OSM   H16G12852   5.320   1.316   8.079  0.0653 -0.1925 -0.4319
  121OSM   C17F12853   5.179   1.397   7.940 -0.4184  0.3855 -0.0021
  121OSM   H17F12854   5.157   1.496   7.893  0.4611  0.4270 -0.3424
  121OSM   H17G12855   5.095   1.360   8.002 -0.3603 -1.0254 -0.7394
  121OSM   C18F12856   5.176   1.283   7.834 -0.1230 -0.3659 -0.5791
  121OSM   H18F12857   5.154   1.183   7.877 -1.2887  0.1148  0.0007
  121OSM   H18G12858   5.268   1.286   7.772  0.9993 -0.8861  1.0268
  121OSM   H18H12859   5.094   1.300   7.760  0.1544 -1.1637 -1.0798
  122OSM      N12860   4.837   4.626   5.983 -0.2984  0.2184 -0.8974
  122OSM    C1512861   4.704   4.691   5.953  0.9030  0.0114  0.3606
  122OSM   H15A12862   4.634   4.622   5.909 -0.5796  0.8694  1.2886
  122OSM   H15B12863   4.721   4.772   5.883 -1.3373 -0.2870 -0.6033
  122OSM   H15C12864   4.658   4.731   6.042 -0.7629 -2.0507  0.5033
  122OSM    C1412865   4.920   4.738   6.053  0.8688  0.1064  0.3126
  122OSM   H14A12866   4.853   4.788   6.122 -0.6730  0.4193 -1.3504
  122OSM   H14B12867   4.966   4.804   5.981  0.9272 -1.4204 -1.1144
  122OSM   H14C12868   4.999   4.685   6.104 -0.1667 -0.2779  1.5930
  122OSM    C1312869   4.823   4.509   6.080 -0.6334 -0.1572  0.2045
  122OSM   H13A12870   4.817   4.553   6.179  0.0298 -0.5609  0.4315
  122OSM   H13B12871   4.913   4.450   6.072 -0.0531  0.8594 -1.1719
  122OSM   H13C12872   4.737   4.449   6.057 -2.4751  1.6102  2.0829
  122OSM    C1212873   4.907   4.572   5.856  0.1083  0.3390  0.2406
  122OSM   H12A12874   4.900   4.647   5.779 -1.9005  0.0148  0.0595
  122OSM   H12B12875   4.850   4.492   5.812  2.0247 -0.0102 -1.7639
  122OSM    C1112876   5.054   4.532   5.872  0.1493  0.3606  0.6048
  122OSM   H11A12877   5.075   4.456   5.793 -0.2234 -1.0391  1.8088
  122OSM   H11B12878   5.075   4.471   5.962  2.2388 -0.3701 -0.3150
  122OSM      P12879   5.296   4.633   5.891  0.0625  0.0614  0.4058
  122OSM    O1312880   5.349   4.516   5.811  0.3626  0.0424  0.1549
  122OSM    O1412881   5.369   4.759   5.877  0.2740  0.6889 -0.2588
  122OSM    O1112882   5.290   4.586   6.039 -0.1800 -0.1337 -0.3261
  122OSM    O1212883   5.140   4.650   5.849  0.1874  1.3332  0.1709
  122OSM    C1S12884   5.327   4.665   6.150 -0.4927  0.4040  0.2604
  122OSM    H1S12885   5.275   4.764   6.146 -0.3039  0.4842 -0.3556
  122OSM    H1T12886   5.435   4.686   6.137 -0.8428  0.6450 -3.3779
  122OSM     NF12887   5.310   4.667   6.401  0.3410  0.2846 -0.4590
  122OSM    HNF12888   5.386   4.632   6.457  0.8684 -0.3281 -1.5221
  122OSM    C2S12889   5.288   4.588   6.278 -0.1515 -0.1970 -0.3621
  122OSM    H2S12890   5.181   4.559   6.279 -0.0309 -0.7152  1.3890
  122OSM    C3S12891   5.365   4.453   6.288  0.6439 -0.1504 -0.6551
  122OSM    H3S12892   5.472   4.478   6.299  0.6291 -0.4165  0.2795
  122OSM     O312893   5.339   4.361   6.185  0.2987 -0.2981 -0.1627
  122OSM    HO312894   5.320   4.420   6.111 -0.5006  0.7641  0.8407
  122OSM    C4S12895   5.325   4.394   6.426 -0.6262  0.7052  1.3343
  122OSM    H4S12896   5.219   4.401   6.453 -0.6889  0.0663  1.2592
  122OSM    C5S12897   5.397   4.309   6.501 -0.8071 -0.3915 -0.2312
  122OSM    H5S12898   5.500   4.286   6.471 -1.2357 -1.7708 -0.6808
  122OSM    C6S12899   5.370   4.241   6.633 -0.1055 -0.7668  0.5659
  122OSM    H6S12900   5.464   4.275   6.682 -1.0025  0.9707  1.1752
  122OSM    H6T12901   5.365   4.131   6.624  0.4866 -0.8293  1.0030
  122OSM    C7S12902   5.243   4.294   6.703  0.5312  0.1193  0.2687
  122OSM    H7S12903   5.155   4.253   6.648  0.7635  1.9782 -1.6550
  122OSM    H7T12904   5.240   4.405   6.700  1.2085  0.1335 -1.1972
  122OSM    C8S12905   5.229   4.237   6.843 -0.9549  0.0852 -0.3773
  122OSM    H8S12906   5.259   4.130   6.839 -1.9498 -0.2112 -4.2802
  122OSM    H8T12907   5.120   4.243   6.866 -1.1503  2.7044 -1.6275
  122OSM    C9S12908   5.301   4.325   6.946  0.8373  0.2006  0.0605
  122OSM    H9S12909   5.253   4.424   6.928 -0.6377 -0.4796  0.1012
  122OSM    H9T12910   5.412   4.320   6.940  0.9408  0.0856  1.6487
  122OSM   C10S12911   5.246   4.287   7.091  0.0107  0.4759 -0.2548
  122OSM   H10S12912   5.243   4.177   7.105  1.2611  0.5613  0.9434
  122OSM   H10T12913   5.140   4.319   7.092 -0.3230 -0.5975  0.6457
  122OSM   C11S12914   5.330   4.346   7.204 -0.1252 -0.2186  0.4293
  122OSM   H11S12915   5.335   4.456   7.190  1.8846 -0.1052  1.5670
  122OSM   H11T12916   5.435   4.308   7.198  0.9148  2.5687 -1.2397
  122OSM   C12S12917   5.282   4.308   7.339 -0.1491 -1.1512  0.2997
  122OSM   H12S12918   5.284   4.197   7.334  4.7023 -1.2308 -0.9221
  122OSM   H12T12919   5.181   4.351   7.354  0.7144  0.7464  0.9783
  122OSM   C13S12920   5.378   4.355   7.451  0.6426 -0.6229 -0.2708
  122OSM   H13S12921   5.358   4.465   7.450  1.2086 -0.5083  0.6459
  122OSM   H13T12922   5.485   4.345   7.424  0.8397  0.1568  0.1755
  122OSM   C14S12923   5.346   4.281   7.581 -0.8901  0.0714  0.0913
  122OSM   H14S12924   5.380   4.178   7.560  1.6073  1.0640 -1.2104
  122OSM   H14T12925   5.239   4.294   7.608 -0.7280  0.8215  0.4040
  122OSM   C15S12926   5.438   4.335   7.692 -0.0834  0.3363  0.3988
  122OSM   H15S12927   5.443   4.443   7.667  0.1907  0.7435  2.0446
  122OSM   H15T12928   5.535   4.283   7.683 -0.5470 -0.3908 -0.5270
  122OSM   C16S12929   5.388   4.316   7.837 -0.2189 -0.3835  0.0677
  122OSM   H16S12930   5.343   4.216   7.852  1.7136 -1.0203  2.0795
  122OSM   H16T12931   5.312   4.394   7.858 -0.9596 -0.5652 -1.7368
  122OSM   C17S12932   5.501   4.324   7.942  0.6497 -0.5234  0.3614
  122OSM   H17S12933   5.517   4.430   7.970 -0.5427 -0.4660  0.9003
  122OSM   H17T12934   5.594   4.289   7.891  1.2352  1.1492  0.2404
  122OSM   C18S12935   5.478   4.246   8.065  0.2576  0.1200 -0.0121
  122OSM   H18S12936   5.494   4.137   8.057  2.7619  0.2259  2.1417
  122OSM   H18T12937   5.380   4.272   8.110  1.5921  1.3839  2.4332
  122OSM   H18U12938   5.546   4.279   8.147 -0.2020 -0.0024  0.4260
  122OSM    C1F12939   5.259   4.788   6.432 -0.0747 -1.0402  0.0791
  122OSM     OF12940   5.174   4.840   6.363  0.1645  0.2565 -0.1030
  122OSM    C2F12941   5.331   4.870   6.539 -0.1163 -0.3333 -0.4831
  122OSM    H2F12942   5.354   4.971   6.499  2.5644  0.3634  2.3780
  122OSM    H2G12943   5.419   4.807   6.564 -0.4974 -0.1827  1.3544
  122OSM    C3F12944   5.256   4.880   6.677 -0.6456  0.3342  0.3342
  122OSM    H3F12945   5.157   4.931   6.666 -0.1754  0.7995 -2.4776
  122OSM    H3G12946   5.324   4.936   6.745 -0.2597  1.9845 -1.3289
  122OSM    C4F12947   5.212   4.753   6.737  0.1187 -0.7950 -0.2184
  122OSM    H4F12948   5.297   4.709   6.792 -0.3342  0.3129  1.4401
  122OSM    H4G12949   5.181   4.680   6.659  1.2619  1.0063 -2.4801
  122OSM    C5F12950   5.096   4.772   6.837 -0.0172  0.2490  0.2073
  122OSM    H5F12951   4.997   4.786   6.788  0.1084 -0.2709 -0.1956
  122OSM    H5G12952   5.108   4.861   6.903 -3.2784  1.3104 -0.4247
  122OSM    C6F12953   5.090   4.648   6.921 -0.0082 -0.4542  0.1064
  122OSM    H6F12954   5.158   4.653   7.009  1.1670 -0.7056 -0.7712
  122OSM    H6G12955   5.110   4.557   6.861  2.1182 -0.5260  0.8570
  122OSM    C7F12956   4.945   4.615   6.974  0.1830  0.1752  0.5416
  122OSM    H7F12957   4.872   4.590   6.895 -0.9177 -0.2786  1.6572
  122OSM    H7G12958   4.909   4.709   7.021 -2.5816 -0.6540  0.2757
  122OSM    C8F12959   4.935   4.505   7.077 -0.2004 -0.2290  0.6575
  122OSM    H8F12960   5.012   4.529   7.154 -0.4884 -0.3274  0.9793
  122OSM    H8G12961   4.973   4.411   7.030  0.9496  0.3514  0.3834
  122OSM    C9F12962   4.788   4.479   7.107 -0.9578  0.0978  0.4074
  122OSM    H9F12963   4.740   4.428   7.022  0.6700 -0.5055 -0.1865
  122OSM   C10F12964   4.722   4.530   7.210  0.1270 -0.1040 -0.0385
  122OSM   H10F12965   4.615   4.507   7.221 -0.0216  0.5337 -0.0890
  122OSM   C11F12966   4.792   4.593   7.324 -0.3712 -0.9230 -0.3850
  122OSM   H11F12967   4.722   4.670   7.363  0.9130  0.9118 -1.5207
  122OSM   H11G12968   4.877   4.652   7.282  1.3878 -3.2146 -0.2482
  122OSM   C12F12969   4.844   4.491   7.431  0.4032 -0.4388 -0.6075
  122OSM   H12F12970   4.925   4.437   7.377  0.0496  0.0521 -1.6647
  122OSM   H12G12971   4.769   4.409   7.443 -1.0106  0.8699 -0.0738
  122OSM   C13F12972   4.888   4.552   7.568  0.4075 -0.2355 -0.2192
  122OSM   H13F12973   4.802   4.592   7.626  1.9469  2.7687  0.1939
  122OSM   H13G12974   4.944   4.648   7.565  1.9555 -0.8922  2.8355
  122OSM   C14F12975   4.950   4.443   7.650 -0.1031  1.2804 -0.5516
  122OSM   H14F12976   5.049   4.411   7.611  0.2846  3.2637 -1.2792
  122OSM   H14G12977   4.877   4.360   7.648  1.0879  0.1942 -0.9484
  122OSM   C15F12978   4.967   4.491   7.803 -0.5240  0.0569  0.1078
  122OSM   H15F12979   4.889   4.570   7.805  0.9605  1.6853 -2.0888
  122OSM   H15G12980   5.065   4.540   7.820 -0.8259  0.0019  2.3348
  122OSM   C16F12981   4.942   4.373   7.901  0.5138 -0.0640 -0.2188
  122OSM   H16F12982   4.839   4.338   7.878 -0.7947  3.7991 -0.8798
  122OSM   H16G12983   4.938   4.418   8.002 -2.3483 -0.1509 -0.2198
  122OSM   C17F12984   5.037   4.253   7.882  0.3969 -0.9750 -0.0445
  122OSM   H17F12985   5.141   4.289   7.896 -0.4363  1.1102  1.3280
  122OSM   H17G12986   5.028   4.212   7.779  0.1476 -0.0499 -0.4016
  122OSM   C18F12987   5.013   4.145   7.985  1.0199 -0.6307 -0.1196
  122OSM   H18F12988   5.066   4.051   7.958  2.0778 -0.7133  2.0045
  122OSM   H18G12989   4.903   4.133   7.991  0.7870  0.6165 -1.2789
  122OSM   H18H12990   5.061   4.165   8.083  1.8563 -1.5310 -0.3361
  123OSM      N12991   2.038   5.511   6.207  0.1417 -0.3172  0.5265
  123OSM    C1512992   2.052   5.629   6.108  0.6501  0.8423 -0.0809
  123OSM   H15A12993   2.100   5.600   6.016  2.0017  0.2535  0.7728
  123OSM   H15B12994   2.105   5.719   6.137 -0.1589  1.0372  0.8215
  123OSM   H15C12995   1.954   5.664   6.083  0.8122  1.9642  0.8090
  123OSM    C1412996   1.915   5.438   6.160 -0.1462  0.0794 -0.3096
  123OSM   H14A12997   1.822   5.493   6.168  0.7683  1.9982 -1.9945
  123OSM   H14B12998   1.911   5.345   6.214  0.5141  0.7752  0.9939
  123OSM   H14C12999   1.926   5.412   6.056  0.2884  0.9148 -0.4828
  123OSM    C1313000   2.160   5.429   6.190 -0.4511  0.4038 -0.4714
  123OSM   H13A13001   2.151   5.335   6.243 -0.8253  0.2664 -0.7710
  123OSM   H13B13002   2.248   5.478   6.226  0.5224  1.0560 -3.4925
  123OSM   H13C13003   2.177   5.398   6.088  1.3140  0.3050 -0.1720
  123OSM    C1213004   2.033   5.551   6.351 -0.0201 -0.7227  0.1545
  123OSM   H12A13005   2.123   5.610   6.360 -0.3182 -0.3392  0.6111
  123OSM   H12B13006   2.030   5.466   6.418 -0.5757 -1.3618 -0.6615
  123OSM    C1113007   1.917   5.642   6.390 -0.6027  0.0483 -0.5534
  123OSM   H11A13008   1.901   5.654   6.499 -2.6998 -2.0742 -0.5581
  123OSM   H11B13009   1.821   5.590   6.370 -0.8707 -0.8314  2.5504
  123OSM      P13010   2.017   5.888   6.373 -0.1711 -0.0928  0.3275
  123OSM    O1313011   2.158   5.847   6.339 -0.1567  0.5366 -0.1093
  123OSM    O1413012   1.961   6.014   6.313 -0.1369 -0.1432 -0.7088
  123OSM    O1113013   1.990   5.883   6.530 -0.3828  0.1802 -0.4726
  123OSM    O1213014   1.922   5.765   6.320 -0.7704 -0.4210  0.2414
  123OSM    C1S13015   1.894   5.972   6.595 -0.4780 -0.2215  1.2672
  123OSM    H1S13016   1.794   5.945   6.557 -0.2206  0.0823  0.3546
  123OSM    H1T13017   1.905   6.074   6.551  1.9233  0.2327  2.6848
  123OSM     NF13018   1.875   6.103   6.800 -0.5060  0.3752 -0.3341
  123OSM    HNF13019   1.943   6.160   6.845 -0.1384 -0.3665  0.0678
  123OSM    C2S13020   1.913   5.975   6.751 -0.1695  0.5823 -0.5306
  123OSM    H2S13021   1.838   5.909   6.800 -3.5348  3.3908 -1.4895
  123OSM    C3S13022   2.053   5.920   6.790 -0.6194 -0.5835 -0.2872
  123OSM    H3S13023   2.124   5.990   6.740  3.4421 -2.3474  2.4730
  123OSM     O313024   2.095   5.785   6.760  0.1002 -0.4346  0.0571
  123OSM    HO313025   2.024   5.735   6.718 -1.9302 -0.1095  2.7569
  123OSM    C4S13026   2.076   5.952   6.936  0.4336 -0.2764  0.4022
  123OSM    H4S13027   2.101   6.058   6.953  3.4007 -0.2133 -3.0596
  123OSM    C5S13028   2.053   5.871   7.042 -0.4276  0.1459  0.8337
  123OSM    H5S13029   2.030   5.766   7.022 -1.3849  0.5110 -0.0573
  123OSM    C6S13030   2.074   5.913   7.179  0.2185  0.6276  0.5585
  123OSM    H6S13031   2.099   5.824   7.241 -0.7905 -0.0757 -0.0278
  123OSM    H6T13032   1.985   5.957   7.230  0.1211 -0.3383  1.2482
  123OSM    C7S13033   2.188   6.007   7.193  0.0412 -0.4349 -0.2509
  123OSM    H7S13034   2.172   6.099   7.132 -0.6309 -1.1408 -1.1763
  123OSM    H7T13035   2.285   5.968   7.155  0.5261  1.3004 -0.8540
  123OSM    C8S13036   2.211   6.062   7.342 -0.2799 -0.0590 -0.3712
  123OSM    H8S13037   2.108   6.089   7.374 -0.0970  0.3424 -0.1151
  123OSM    H8T13038   2.264   6.160   7.342 -2.0129  0.9252 -1.4376
  123OSM    C9S13039   2.269   5.957   7.443  0.6144 -0.1096  1.0591
  123OSM    H9S13040   2.371   5.930   7.406 -0.0454 -0.6910 -0.4075
  123OSM    H9T13041   2.209   5.863   7.445  0.8899 -0.2748  2.0575
  123OSM   C10S13042   2.280   6.020   7.585  0.1691 -0.0958  0.1055
  123OSM   H10S13043   2.180   6.038   7.629  0.6568  2.5636  0.2800
  123OSM   H10T13044   2.315   6.125   7.597  0.3035 -0.2830  1.5069
  123OSM   C11S13045   2.359   5.938   7.680 -0.0632  0.1299 -0.5820
  123OSM   H11S13046   2.458   5.928   7.631  0.0154  2.5754 -1.0662
  123OSM   H11T13047   2.316   5.836   7.671 -0.3398  0.2083 -0.1898
  123OSM   C12S13048   2.376   5.988   7.827  1.0316  0.0928 -0.0704
  123OSM   H12S13049   2.279   5.979   7.879 -0.4883  1.0726 -2.5818
  123OSM   H12T13050   2.415   6.092   7.828 -1.2078  0.9831 -0.0132
  123OSM   C13S13051   2.477   5.896   7.903  0.1996 -0.3044  0.5951
  123OSM   H13S13052   2.568   5.913   7.841  0.3172 -0.8505  0.6094
  123OSM   H13T13053   2.449   5.791   7.881  3.3702 -0.9850 -0.8307
  123OSM   C14S13054   2.523   5.933   8.040 -0.1294 -0.1023  0.8471
  123OSM   H14S13055   2.449   5.903   8.117 -0.0883 -0.7243  0.6492
  123OSM   H14T13056   2.551   6.041   8.041 -0.0596 -0.1118  0.2466
  123OSM   C15S13057   2.647   5.853   8.070 -0.1745  0.5203  0.3044
  123OSM   H15S13058   2.674   5.803   7.975  0.9036  0.1335  0.7894
  123OSM   H15T13059   2.624   5.774   8.144 -0.0199  1.5411  1.4876
  123OSM   C16S13060   2.766   5.938   8.113  0.3140  0.4185 -0.2434
  123OSM   H16S13061   2.731   5.987   8.207  1.5031  2.3476 -0.7473
  123OSM   H16T13062   2.800   6.012   8.038 -0.1539 -2.0106 -3.0033
  123OSM   C17S13063   2.891   5.850   8.149 -0.2516 -0.2411  0.3150
  123OSM   H17S13064   2.977   5.917   8.167  1.3228 -1.4772 -2.0499
  123OSM   H17T13065   2.923   5.789   8.062 -0.1978 -2.0591  1.5547
  123OSM   C18S13066   2.870   5.752   8.268  0.0412  0.0914 -0.6325
  123OSM   H18S13067   2.812   5.659   8.248  2.3177 -1.6678  0.4788
  123OSM   H18T13068   2.825   5.788   8.363 -0.0323 -0.9496 -0.2557
  123OSM   H18U13069   2.972   5.718   8.295  0.2652  0.0288 -1.5157
  123OSM    C1F13070   1.759   6.162   6.789  0.3098  0.8154  0.2423
  123OSM     OF13071   1.657   6.095   6.760  0.1275 -0.4358  0.4553
  123OSM    C2F13072   1.751   6.315   6.828 -0.1142 -0.1093  0.1458
  123OSM    H2F13073   1.650   6.350   6.799  0.4953  0.9378 -0.7332
  123OSM    H2G13074   1.826   6.376   6.774 -1.2642  1.6699  0.4813
  123OSM    C3F13075   1.764   6.332   6.986 -0.5964 -0.0985 -0.0979
  123OSM    H3F13076   1.771   6.443   6.993  0.8306 -0.1144 -0.8430
  123OSM    H3G13077   1.861   6.295   7.027 -0.1586  0.0252 -0.9982
  123OSM    C4F13078   1.657   6.275   7.077  0.0314 -0.2994  0.1663
  123OSM    H4F13079   1.653   6.167   7.051  2.0071 -0.7399  1.4666
  123OSM    H4G13080   1.559   6.322   7.054 -0.2063 -0.3599  1.0321
  123OSM    C5F13081   1.694   6.290   7.226 -0.6678 -0.1035  0.3098
  123OSM    H5F13082   1.609   6.253   7.286  2.3788 -3.6698  2.8909
  123OSM    H5G13083   1.719   6.396   7.252 -0.6707  0.4492 -1.7850
  123OSM    C6F13084   1.806   6.198   7.271  0.1371 -0.4625  0.6039
  123OSM    H6F13085   1.904   6.245   7.247  0.3074 -1.2000 -0.2157
  123OSM    H6G13086   1.799   6.111   7.202 -1.5759  0.5236 -0.5239
  123OSM    C7F13087   1.793   6.145   7.414  0.4496  0.4691 -0.5074
  123OSM    H7F13088   1.879   6.079   7.439  1.2372  0.8312 -2.1126
  123OSM    H7G13089   1.701   6.084   7.426  0.1814  0.8683 -0.5197
  123OSM    C8F13090   1.787   6.255   7.528  0.0461  0.4321 -0.1217
  123OSM    H8F13091   1.780   6.199   7.624  0.0921  2.0088  0.8507
  123OSM    H8G13092   1.701   6.323   7.509 -1.3954 -1.7367 -1.8232
  123OSM    C9F13093   1.909   6.335   7.533 -0.2516 -0.6359 -0.9292
  123OSM    H9F13094   1.972   6.342   7.443 -1.0714  0.4543 -1.4386
  123OSM   C10F13095   1.946   6.405   7.642 -0.0977 -0.7882  0.0099
  123OSM   H10F13096   2.031   6.474   7.640 -0.4488 -0.2940  1.0992
  123OSM   C11F13097   1.877   6.410   7.775  0.2754 -0.1115 -0.0274
  123OSM   H11F13098   1.773   6.375   7.760  0.4266 -1.3128  1.4887
  123OSM   H11G13099   1.874   6.509   7.823  0.9103 -0.1004 -0.0024
  123OSM   C12F13100   1.936   6.312   7.872  0.1670  1.0060 -0.0377
  123OSM   H12F13101   1.940   6.216   7.816  1.4579  2.4989 -2.7235
  123OSM   H12G13102   1.867   6.299   7.958 -0.7846  1.1117 -0.7697
  123OSM   C13F13103   2.078   6.344   7.917  0.3781  0.5415 -0.3318
  123OSM   H13F13104   2.067   6.443   7.966 -0.7462  0.4783 -0.4333
  123OSM   H13G13105   2.142   6.361   7.829 -0.3731  0.7062 -0.8589
  123OSM   C14F13106   2.132   6.232   8.004  0.0267  0.0798  0.2657
  123OSM   H14F13107   2.242   6.229   7.996 -0.0880 -3.0386 -2.0538
  123OSM   H14G13108   2.111   6.136   7.952  1.2825 -0.2178  0.2989
  123OSM   C15F13109   2.085   6.235   8.152 -0.0436  0.0131  0.0155
  123OSM   H15F13110   2.005   6.159   8.163  1.4583 -1.6084  0.4326
  123OSM   H15G13111   2.047   6.331   8.191 -0.0071 -1.5128  4.4703
  123OSM   C16F13112   2.198   6.188   8.246 -0.6530  0.3930 -0.6034
  123OSM   H16F13113   2.298   6.220   8.211  0.8843 -0.3543  2.6452
  123OSM   H16G13114   2.206   6.077   8.256 -1.0595  0.5307  2.1690
  123OSM   C17F13115   2.173   6.248   8.388  0.2963  0.0416 -0.5557
  123OSM   H17F13116   2.070   6.210   8.401  0.4504  0.1920  1.4050
  123OSM   H17G13117   2.174   6.359   8.383 -1.6376  0.2078  1.3709
  123OSM   C18F13118   2.258   6.195   8.507  0.4794 -0.6770  0.1773
  123OSM   H18F13119   2.368   6.202   8.491  0.4371  1.0110  0.4466
  123OSM   H18G13120   2.227   6.092   8.533  1.2974 -0.4495  2.2198
  123OSM   H18H13121   2.226   6.265   8.587 -1.3906  0.7442 -1.6884
  124OSM      N13122   4.381   2.043   5.961  0.6410  0.0918  0.6040
  124OSM    C1513123   4.282   2.146   5.921 -0.0425 -0.0267 -0.4824
  124OSM   H15A13124   4.188   2.099   5.895  0.6775 -1.2448 -0.9648
  124OSM   H15B13125   4.314   2.204   5.835 -0.8158  0.5284 -0.4073
  124OSM   H15C13126   4.261   2.213   6.003  0.0495 -2.6785  1.8400
  124OSM    C1413127   4.359   1.922   5.887  0.1443  0.7822  0.0061
  124OSM   H14A13128   4.264   1.877   5.913  0.8244 -0.1516  0.9378
  124OSM   H14B13129   4.433   1.845   5.901 -2.3600 -1.5667  1.3274
  124OSM   H14C13130   4.363   1.943   5.781  1.5111 -1.1900 -0.3853
  124OSM    C1313131   4.518   2.092   5.922  0.1491  0.1699 -0.7890
  124OSM   H13A13132   4.597   2.025   5.951 -0.4069  0.4405  1.6125
  124OSM   H13B13133   4.526   2.195   5.956  2.3074 -1.1837  3.5370
  124OSM   H13C13134   4.513   2.099   5.815  2.1273  1.5371 -0.8579
  124OSM    C1213135   4.367   2.020   6.110 -0.5843  0.0997 -0.5209
  124OSM   H12A13136   4.385   2.113   6.162 -4.8326 -0.2119  2.0337
  124OSM   H12B13137   4.440   1.946   6.139 -1.3681 -1.0001 -1.2407
  124OSM    C1113138   4.241   1.950   6.167  0.1391 -0.5062  0.4441
  124OSM   H11A13139   4.253   1.894   6.262  0.7833 -0.8738  0.1559
  124OSM   H11B13140   4.227   1.864   6.098  2.1092 -0.0744 -0.5814
  124OSM      P13141   4.102   2.168   6.242  0.1132  0.5298 -0.0863
  124OSM    O1313142   4.168   2.278   6.175 -0.4966  0.2636  0.1448
  124OSM    O1413143   3.958   2.178   6.260 -0.7167 -0.1597 -0.0466
  124OSM    O1113144   4.177   2.150   6.385  0.1185  0.5049  0.2211
  124OSM    O1213145   4.123   2.032   6.163  0.5575  0.1127  0.1070
  124OSM    C1S13146   4.118   2.085   6.496  0.8563  0.1667 -0.1442
  124OSM    H1S13147   4.122   1.975   6.483 -1.1447  0.0043  0.3396
  124OSM    H1T13148   4.012   2.116   6.504  0.6609 -0.6020  0.3896
  124OSM     NF13149   4.094   2.090   6.737 -0.1512 -0.0654 -0.1959
  124OSM    HNF13150   4.028   2.162   6.755  0.6865  1.0298 -1.2434
  124OSM    C2S13151   4.186   2.135   6.634 -0.0813 -0.3180  0.4840
  124OSM    H2S13152   4.285   2.089   6.652 -0.2163  0.1688  2.7276
  124OSM    C3S13153   4.201   2.295   6.623  0.9625  0.8806 -0.3529
  124OSM    H3S13154   4.103   2.336   6.592  0.9649  1.1521 -0.0038
  124OSM     O313155   4.298   2.340   6.529  0.1652 -0.2197 -0.2844
  124OSM    HO313156   4.286   2.267   6.467  0.1476 -0.7967  0.3847
  124OSM    C4S13157   4.237   2.339   6.765  0.4434 -0.2003  0.2336
  124OSM    H4S13158   4.333   2.294   6.795 -0.0298 -0.5825  1.2183
  124OSM    C5S13159   4.176   2.408   6.868 -0.2128  0.6842 -0.5633
  124OSM    H5S13160   4.069   2.429   6.855 -0.2663  0.1379 -1.0310
  124OSM    C6S13161   4.223   2.442   7.009 -0.3335  0.1771  0.1651
  124OSM    H6S13162   4.173   2.368   7.074  0.7083  0.9407  1.8885
  124OSM    H6T13163   4.200   2.545   7.043 -0.8513  0.5969 -1.3548
  124OSM    C7S13164   4.373   2.427   7.022  0.1143 -0.4670  0.3959
  124OSM    H7S13165   4.423   2.519   6.987 -2.0281  1.2246  1.5485
  124OSM    H7T13166   4.398   2.326   6.983 -0.1903 -0.3980  0.0205
  124OSM    C8S13167   4.404   2.434   7.170  0.0668 -0.1190 -0.2980
  124OSM    H8S13168   4.361   2.345   7.221 -0.3644 -0.2327 -0.8476
  124OSM    H8T13169   4.351   2.514   7.226 -2.1127 -1.6559 -0.0409
  124OSM    C9S13170   4.556   2.433   7.196 -0.2480 -0.0423 -0.2031
  124OSM    H9S13171   4.586   2.537   7.172  0.3888 -0.1391  0.1516
  124OSM    H9T13172   4.603   2.357   7.130 -0.8523 -1.1809  0.6472
  124OSM   C10S13173   4.584   2.399   7.345 -0.5849 -0.2176  0.5821
  124OSM   H10S13174   4.689   2.381   7.376 -0.6519  0.5457  1.2717
  124OSM   H10T13175   4.516   2.315   7.373 -1.1391 -0.2985 -0.8800
  124OSM   C11S13176   4.554   2.523   7.432 -0.3298 -0.1212  0.1515
  124OSM   H11S13177   4.467   2.576   7.388  0.6043  1.3154 -0.0524
  124OSM   H11T13178   4.641   2.591   7.422 -0.4824  0.6130  3.0910
  124OSM   C12S13179   4.539   2.495   7.576  0.6265 -0.6678 -0.5567
  124OSM   H12S13180   4.636   2.467   7.622 -0.8528 -1.3013  2.4040
  124OSM   H12T13181   4.468   2.410   7.583 -2.7426  1.9067 -0.7625
  124OSM   C13S13182   4.483   2.617   7.657  0.0709 -0.0617 -0.4364
  124OSM   H13S13183   4.388   2.642   7.607 -0.5421 -2.4847 -0.6429
  124OSM   H13T13184   4.549   2.706   7.655  1.4490 -1.0409 -1.5751
  124OSM   C14S13185   4.453   2.585   7.799 -0.2727  0.1883  0.3149
  124OSM   H14S13186   4.379   2.657   7.839 -2.5158 -0.4161 -2.3998
  124OSM   H14T13187   4.547   2.585   7.857  0.1185  1.2386 -0.2979
  124OSM   C15S13188   4.395   2.439   7.825 -1.0432 -0.8219  0.3595
  124OSM   H15S13189   4.470   2.363   7.795 -1.0636 -0.2206 -1.3548
  124OSM   H15T13190   4.317   2.432   7.746 -0.2586  3.7524 -1.1139
  124OSM   C16S13191   4.346   2.412   7.968 -0.1170 -0.6055 -0.5427
  124OSM   H16S13192   4.256   2.467   8.001 -0.2591 -1.9177  1.4431
  124OSM   H16T13193   4.421   2.435   8.047 -0.6514 -2.4892  0.5801
  124OSM   C17S13194   4.304   2.263   7.993  0.2816 -0.0852 -0.2920
  124OSM   H17S13195   4.315   2.241   8.101  2.6474  0.0424 -0.4637
  124OSM   H17T13196   4.372   2.194   7.938  2.0785  1.2147  0.2023
  124OSM   C18S13197   4.159   2.238   7.952 -0.0919  0.0759  0.2607
  124OSM   H18S13198   4.095   2.302   8.016  1.5670  2.2356 -0.1260
  124OSM   H18T13199   4.128   2.131   7.948  4.1524 -1.3431  0.8716
  124OSM   H18U13200   4.150   2.269   7.846  0.0286  1.5191  0.6483
  124OSM    C1F13201   4.084   1.961   6.775  0.1313 -0.3190  0.6176
  124OSM     OF13202   4.151   1.871   6.722 -0.3686 -0.4064 -0.5738
  124OSM    C2F13203   3.991   1.929   6.882 -0.4193  0.5889  0.4185
  124OSM    H2F13204   4.043   1.876   6.964 -0.9046  2.5186  2.0450
  124OSM    H2G13205   3.920   1.854   6.840  0.3311  0.5486 -0.8272
  124OSM    C3F13206   3.908   2.040   6.943 -0.0452  0.0888 -0.6246
  124OSM    H3F13207   3.831   2.082   6.875 -2.4701 -0.9451  1.3364
  124OSM    H3G13208   3.974   2.124   6.972 -0.3879 -0.7134  2.9561
  124OSM    C4F13209   3.848   2.003   7.079 -0.2318  0.4644  0.3173
  124OSM    H4F13210   3.795   2.091   7.121  1.0366  0.7494  1.3561
  124OSM    H4G13211   3.931   1.991   7.151 -1.2052  1.1121  1.5784
  124OSM    C5F13212   3.763   1.875   7.084  0.0140  0.5090 -0.0640
  124OSM    H5F13213   3.773   1.817   6.990 -0.3957  0.7073 -0.2370
  124OSM    H5G13214   3.658   1.910   7.097  0.2995  1.3835 -0.0164
  124OSM    C6F13215   3.810   1.787   7.205 -0.2861 -0.0051  0.1836
  124OSM    H6F13216   3.737   1.705   7.195 -1.7493  1.5442 -4.6316
  124OSM    H6G13217   3.794   1.829   7.307 -0.9649 -0.8590  0.4360
  124OSM    C7F13218   3.947   1.721   7.184  0.3573  0.0446 -0.0772
  124OSM    H7F13219   4.036   1.787   7.174 -0.2014  1.1985  2.0612
  124OSM    H7G13220   3.935   1.652   7.097  0.8571 -0.1140 -0.0267
  124OSM    C8F13221   3.974   1.626   7.301  0.0097  0.3605 -0.1885
  124OSM    H8F13222   4.039   1.546   7.261 -0.6746 -0.1132 -0.3695
  124OSM    H8G13223   3.882   1.567   7.321 -0.5763  1.3035 -0.0114
  124OSM    C9F13224   4.029   1.680   7.427 -0.2214  0.2696 -0.3172
  124OSM    H9F13225   3.969   1.766   7.461 -0.8053 -0.0822 -0.4432
  124OSM   C10F13226   4.124   1.616   7.506 -0.4341  0.4550 -0.3929
  124OSM   H10F13227   4.170   1.675   7.586  1.3356 -0.0277 -1.0121
  124OSM   C11F13228   4.198   1.490   7.472 -0.1157 -0.5818 -0.0660
  124OSM   H11F13229   4.303   1.526   7.460 -0.8701  1.7700 -0.0818
  124OSM   H11G13230   4.170   1.447   7.374  2.1221 -1.6223 -0.3285
  124OSM   C12F13231   4.173   1.376   7.569 -0.4236 -0.1479  0.2478
  124OSM   H12F13232   4.215   1.399   7.669 -2.9650  1.1231  1.1045
  124OSM   H12G13233   4.230   1.284   7.542  1.1899  1.2119 -1.3461
  124OSM   C13F13234   4.022   1.343   7.589 -0.0092 -0.2363  0.1516
  124OSM   H13F13235   3.969   1.323   7.493 -2.1773 -0.3679  1.2972
  124OSM   H13G13236   3.976   1.440   7.619 -1.0856 -0.1624 -1.5738
  124OSM   C14F13237   3.989   1.224   7.680 -0.3928 -0.3415 -0.1160
  124OSM   H14F13238   4.015   1.129   7.630 -0.2661 -1.7470  2.4275
  124OSM   H14G13239   3.879   1.229   7.694 -0.2640  0.8951  0.6492
  124OSM   C15F13240   4.067   1.232   7.816  0.6005 -0.1711 -0.0028
  124OSM   H15F13241   4.061   1.334   7.860 -1.0619 -0.3867  0.3165
  124OSM   H15G13242   4.174   1.212   7.794  0.4358  0.2235 -1.2554
  124OSM   C16F13243   4.010   1.127   7.917  0.0936  0.0319  0.7474
  124OSM   H16F13244   4.040   1.022   7.895 -1.5106 -0.2947 -0.0131
  124OSM   H16G13245   3.900   1.130   7.902  0.4318  0.7839 -2.2523
  124OSM   C17F13246   4.051   1.158   8.056 -0.2350 -0.3996 -0.6372
  124OSM   H17F13247   3.999   1.254   8.073 -2.9950 -1.3080 -3.1319
  124OSM   H17G13248   4.161   1.173   8.057 -0.3589  0.6033  0.5141
  124OSM   C18F13249   4.005   1.057   8.164  0.1226 -0.3492  0.8051
  124OSM   H18F13250   4.029   1.107   8.260 -1.4628  0.3668  0.8568
  124OSM   H18G13251   4.061   0.961   8.157  1.4369  0.4231  0.3496
  124OSM   H18H13252   3.900   1.035   8.135  1.6746 -1.6409 -5.1332
  125OSM      N13253   0.371   0.337   5.875  0.1232  0.2155 -0.2341
  125OSM    C1513254   0.501   0.275   5.916 -0.4218 -0.5531 -0.1576
  125OSM   H15A13255   0.514   0.177   5.873  0.5927 -0.5477  0.1187
  125OSM   H15B13256   0.504   0.261   6.023  0.2827 -1.7190 -0.3077
  125OSM   H15C13257   0.583   0.344   5.905 -0.0940 -0.1904  3.4413
  125OSM    C1413258   0.359   0.338   5.723 -0.1300 -0.1569  0.6615
  125OSM   H14A13259   0.355   0.240   5.679  4.2702  0.3271 -1.4372
  125OSM   H14B13260   0.439   0.387   5.668 -0.0023 -0.5937  0.4531
  125OSM   H14C13261   0.264   0.380   5.695  0.2411  0.6194  0.5144
  125OSM    C1313262   0.259   0.266   5.941  0.0883 -0.3616  0.0613
  125OSM   H13A13263   0.157   0.291   5.915  0.3419  1.0167  0.2776
  125OSM   H13B13264   0.262   0.260   6.049 -0.1792  0.5144  0.1232
  125OSM   H13C13265   0.270   0.166   5.903  0.9267  0.1934 -1.2271
  125OSM    C1213266   0.367   0.486   5.915  0.3372  0.3883  0.3392
  125OSM   H12A13267   0.266   0.512   5.887 -0.9765 -3.9473  0.3196
  125OSM   H12B13268   0.442   0.548   5.869  1.6967 -1.1141  0.4454
  125OSM    C1113269   0.364   0.513   6.066  0.3670  0.3897  0.1416
  125OSM   H11A13270   0.441   0.454   6.118  0.9511  0.8170 -0.2274
  125OSM   H11B13271   0.268   0.471   6.103  0.6850  0.3271  0.9045
  125OSM      P13272   0.253   0.745   6.071  0.6432  0.7430  0.4709
  125OSM    O1313273   0.291   0.890   6.069  0.1608  0.0551  0.3091
  125OSM    O1413274   0.163   0.701   5.959 -0.5325  0.2314  0.8243
  125OSM    O1113275   0.184   0.703   6.205 -0.1340  0.1435  0.2870
  125OSM    O1213276   0.379   0.654   6.084  0.0401  0.4063 -0.5514
  125OSM    C1S13277   0.231   0.762   6.327  0.0930 -0.6263  0.0452
  125OSM    H1S13278   0.212   0.871   6.323 -0.1627 -0.6130  1.1164
  125OSM    H1T13279   0.341   0.744   6.329 -0.2901 -3.3484  0.2734
  125OSM     NF13280   0.245   0.768   6.569  0.2783 -0.3058 -0.0932
  125OSM    HNF13281   0.332   0.724   6.589 -0.4530 -2.3766 -1.1438
  125OSM    C2S13282   0.183   0.697   6.457 -0.2762 -0.1238  0.5130
  125OSM    H2S13283   0.073   0.697   6.471 -0.7033  0.6139 -2.1633
  125OSM    C3S13284   0.224   0.548   6.439  0.5814  0.3392  0.2269
  125OSM    H3S13285   0.332   0.538   6.415  0.1827  0.8327 -2.0451
  125OSM     O313286   0.158   0.484   6.325  0.2581 -0.5164 -0.4735
  125OSM    HO313287   0.108   0.558   6.289 -1.2430 -0.7262  1.0382
  125OSM    C4S13288   0.188   0.485   6.573 -0.3942  0.4911  0.9195
  125OSM    H4S13289   0.081   0.497   6.595 -0.7433 -0.9341  0.1116
  125OSM    C5S13290   0.277   0.429   6.653 -0.1901 -0.4180  0.4369
  125OSM    H5S13291   0.384   0.432   6.629 -0.4204  1.6588 -0.5858
  125OSM    C6S13292   0.236   0.383   6.788  0.4889  0.1489 -0.5145
  125OSM    H6S13293   0.256   0.276   6.809 -3.1167 -0.7873 -1.0283
  125OSM    H6T13294   0.128   0.368   6.810  0.2779  0.4529 -1.3132
  125OSM    C7S13295   0.297   0.467   6.903 -0.0764  0.0531  0.0342
  125OSM    H7S13296   0.247   0.566   6.901  0.5470  0.3699 -0.8960
  125OSM    H7T13297   0.403   0.487   6.873  0.2284 -1.9033 -0.3567
  125OSM    C8S13298   0.281   0.417   7.041  0.4568  0.3699  0.4168
  125OSM    H8S13299   0.332   0.319   7.050 -0.5047 -0.3418 -1.3623
  125OSM    H8T13300   0.174   0.392   7.058  0.3156  0.0048 -0.8865
  125OSM    C9S13301   0.330   0.525   7.130 -0.3140 -0.0088  0.3745
  125OSM    H9S13302   0.295   0.625   7.096  1.4997  0.1982 -1.0279
  125OSM    H9T13303   0.439   0.536   7.112 -0.8775  1.5073 -2.8207
  125OSM   C10S13304   0.297   0.507   7.280  0.3089 -0.0618  0.8321
  125OSM   H10S13305   0.337   0.406   7.304  2.2719  0.1487 -1.1677
  125OSM   H10T13306   0.188   0.519   7.294  0.2208 -0.2420  0.3144
  125OSM   C11S13307   0.378   0.600   7.376  0.3164  0.4945 -0.5545
  125OSM   H11S13308   0.339   0.705   7.375 -0.2900  0.3170  1.0113
  125OSM   H11T13309   0.484   0.595   7.345  0.3298 -0.4077 -0.3728
  125OSM   C12S13310   0.379   0.556   7.524 -0.2129  0.2466  0.3459
  125OSM   H12S13311   0.385   0.446   7.537 -0.0110  0.2036 -0.1119
  125OSM   H12T13312   0.279   0.580   7.565 -0.6208 -1.0867  0.1952
  125OSM   C13S13313   0.496   0.620   7.600  0.2625  0.1918 -0.2295
  125OSM   H13S13314   0.506   0.722   7.558 -0.6994  0.2229 -0.4043
  125OSM   H13T13315   0.591   0.569   7.574  0.3617  0.5773 -0.6366
  125OSM   C14S13316   0.473   0.647   7.748  0.8271  0.0683  0.4768
  125OSM   H14S13317   0.458   0.549   7.798 -1.0188  0.1355  0.1278
  125OSM   H14T13318   0.379   0.702   7.768  1.7464  1.3952  1.3701
  125OSM   C15S13319   0.592   0.703   7.829 -0.0145 -0.3939 -0.5405
  125OSM   H15S13320   0.626   0.800   7.788 -1.1276  0.6546  0.8848
  125OSM   H15T13321   0.674   0.629   7.822  0.4736  0.1275 -0.3907
  125OSM   C16S13322   0.552   0.740   7.976 -0.3654 -0.3041  0.1024
  125OSM   H16S13323   0.501   0.839   7.983 -0.3442 -0.3043  0.2628
  125OSM   H16T13324   0.644   0.740   8.039 -1.0144  0.9643  1.0881
  125OSM   C17S13325   0.453   0.642   8.052  0.0482  0.0154 -0.2050
  125OSM   H17S13326   0.501   0.542   8.049 -0.1643 -0.1328  0.9442
  125OSM   H17T13327   0.360   0.625   7.992  0.9185 -0.1151 -1.5619
  125OSM   C18S13328   0.424   0.699   8.193  0.1636 -0.4964  0.6915
  125OSM   H18S13329   0.378   0.800   8.193 -0.0451 -0.5809 -0.2747
  125OSM   H18T13330   0.512   0.693   8.261  1.0521  0.7410 -0.3130
  125OSM   H18U13331   0.344   0.632   8.233 -1.9895  1.3615 -0.2799
  125OSM    C1F13332   0.192   0.879   6.621  0.6652 -0.4596 -0.5743
  125OSM     OF13333   0.086   0.929   6.578  0.3177  0.2940  0.4620
  125OSM    C2F13334   0.253   0.917   6.753 -0.2485  0.2560 -0.5161
  125OSM    H2F13335   0.362   0.932   6.743  0.3164 -2.2810  0.9870
  125OSM    H2G13336   0.270   0.827   6.816  0.3835 -0.7580 -2.0665
  125OSM    C3F13337   0.177   1.024   6.828  0.1607 -0.2040  0.3742
  125OSM    H3F13338   0.073   0.986   6.839 -0.1068  0.6599  0.9997
  125OSM    H3G13339   0.182   1.120   6.773  0.5629  0.9622  2.3431
  125OSM    C4F13340   0.235   1.062   6.966  0.7251  1.1134  0.3863
  125OSM    H4F13341   0.338   1.094   6.939  1.5107 -0.6206  1.1751
  125OSM    H4G13342   0.251   0.977   7.036  3.2195 -1.2798 -2.7548
  125OSM    C5F13343   0.182   1.188   7.034  0.4813  0.4643  0.0601
  125OSM    H5F13344   0.107   1.236   6.968 -0.3333 -1.0667 -0.1808
  125OSM    H5G13345   0.269   1.256   7.045  0.2215  1.1234 -1.6071
  125OSM    C6F13346   0.102   1.163   7.161 -0.3609  0.1603  0.0321
  125OSM    H6F13347   0.039   1.073   7.142  0.0818 -0.6385  2.0517
  125OSM    H6G13348   0.042   1.251   7.191  1.4352  0.9737  1.4558
  125OSM    C7F13349   0.193   1.131   7.280 -0.5881 -0.8167  0.1820
  125OSM    H7F13350   0.284   1.192   7.262 -1.2995 -0.0073 -0.7959
  125OSM    H7G13351   0.221   1.024   7.294 -2.7724 -1.4021  0.4051
  125OSM    C8F13352   0.144   1.180   7.417 -0.2842 -0.5366 -0.5616
  125OSM    H8F13353   0.131   1.289   7.402  0.1145 -0.5515 -1.0445
  125OSM    H8G13354   0.217   1.167   7.500  0.8447 -1.3443 -1.6417
  125OSM    C9F13355   0.012   1.113   7.446 -0.7345  0.8180  0.6047
  125OSM    H9F13356  -0.047   1.074   7.362 -0.0174 -0.6109  0.7260
  125OSM   C10F13357  -0.038   1.082   7.566 -0.2422 -0.0848 -1.0103
  125OSM   H10F13358  -0.139   1.038   7.571  0.8972 -2.7876 -0.2540
  125OSM   C11F13359   0.018   1.117   7.704 -0.1122 -0.0502 -0.0616
  125OSM   H11F13360  -0.071   1.110   7.770 -0.8538 -1.2275 -1.1451
  125OSM   H11G13361   0.046   1.224   7.719  0.2946 -0.5082  3.1851
  125OSM   C12F13362   0.132   1.027   7.744  0.4299 -1.0339 -0.1636
  125OSM   H12F13363   0.232   1.053   7.704  2.0632 -1.5914  3.1509
  125OSM   H12G13364   0.111   0.921   7.718  1.3345 -1.4392  0.6746
  125OSM   C13F13365   0.153   1.037   7.891  0.3233 -0.7918 -0.4562
  125OSM   H13F13366   0.224   0.957   7.920  1.3048  0.4395  0.6804
  125OSM   H13G13367   0.062   1.022   7.953 -0.0283  2.9621  0.1887
  125OSM   C14F13368   0.201   1.182   7.936  0.0095  0.1048  0.3469
  125OSM   H14F13369   0.115   1.250   7.919  0.8045  1.0518  0.0314
  125OSM   H14G13370   0.294   1.200   7.877 -0.5234 -0.4247 -0.6827
  125OSM   C15F13371   0.234   1.195   8.084 -0.0353 -0.5275 -0.0843
  125OSM   H15F13372   0.320   1.132   8.115  0.0194  0.0491  1.0126
  125OSM   H15G13373   0.147   1.166   8.147 -1.7208  0.4874 -1.8295
  125OSM   C16F13374   0.277   1.338   8.129  0.3076 -0.1961  0.4596
  125OSM   H16F13375   0.220   1.412   8.070  1.1407 -0.9707 -1.3976
  125OSM   H16G13376   0.387   1.349   8.117  0.3778 -0.9372  0.3511
  125OSM   C17F13377   0.231   1.374   8.272  0.2263 -0.2403  0.3979
  125OSM   H17F13378   0.296   1.315   8.340 -0.2006 -1.2219 -0.0274
  125OSM   H17G13379   0.122   1.358   8.285 -0.0894  0.3538 -1.2400
  125OSM   C18F13380   0.269   1.514   8.314  0.7271 -0.5366  0.2786
  125OSM   H18F13381   0.375   1.537   8.290  1.1134 -2.3490  0.1638
  125OSM   H18G13382   0.267   1.523   8.424  1.4081  0.8000  0.2016
  125OSM   H18H13383   0.218   1.601   8.267  0.1553 -0.5322  0.8918
  126OSM      N13384   4.724   5.624   6.396 -0.9072 -0.2092  0.7233
  126OSM    C1513385   4.653   5.531   6.490  0.1173  1.1445  0.3627
  126OSM   H15A13386   4.683   5.550   6.592 -2.3069  1.1460  1.1434
  126OSM   H15B13387   4.671   5.429   6.457 -2.6527  0.9076 -0.7199
  126OSM   H15C13388   4.546   5.532   6.477  0.3037  0.7329 -1.4776
  126OSM    C1413389   4.657   5.634   6.265  0.3250 -0.0733  0.5718
  126OSM   H14A13390   4.679   5.722   6.205  0.3706 -1.7427 -2.0137
  126OSM   H14B13391   4.552   5.640   6.291  0.2849 -2.3250  1.0792
  126OSM   H14C13392   4.674   5.551   6.199  0.0046 -0.8882  1.4997
  126OSM    C1313393   4.716   5.763   6.455 -0.0355  0.7675 -0.9406
  126OSM   H13A13394   4.732   5.840   6.381 -2.1680  0.3858 -1.8930
  126OSM   H13B13395   4.781   5.782   6.539  1.2288 -2.5703 -1.0035
  126OSM   H13C13396   4.613   5.773   6.487  0.8641 -0.1253  2.6797
  126OSM    C1213397   4.865   5.574   6.360  0.4156 -0.4331  0.1063
  126OSM   H12A13398   4.912   5.656   6.307 -0.3150  0.8693  1.3847
  126OSM   H12B13399   4.861   5.486   6.298  0.6939 -2.0389  2.2460
  126OSM    C1113400   4.959   5.541   6.472 -0.4850 -0.6506 -0.4445
  126OSM   H11A13401   4.956   5.625   6.545 -0.9968 -0.1841 -0.9931
  126OSM   H11B13402   5.059   5.529   6.426  0.0793 -0.2908  0.6538
  126OSM      P13403   4.955   5.270   6.493  0.1500 -0.4400  0.1234
  126OSM    O1313404   4.928   5.266   6.345  0.2730 -0.2615 -0.6322
  126OSM    O1413405   5.093   5.246   6.539 -0.5866 -0.4020 -0.1891
  126OSM    O1113406   4.855   5.182   6.579 -0.1775 -0.0776  0.4379
  126OSM    O1213407   4.927   5.421   6.537 -0.0221  0.1724  0.0090
  126OSM    C1S13408   4.885   5.125   6.705 -0.9725 -0.6916 -0.2462
  126OSM    H1S13409   4.992   5.097   6.719 -0.4411  0.6407 -1.4581
  126OSM    H1T13410   4.841   5.023   6.711  0.1437 -1.2264 -0.8749
  126OSM     NF13411   4.870   5.125   6.965  0.3647 -0.3693  0.1801
  126OSM    HNF13412   4.794   5.084   7.014 -0.9781  0.1899 -1.3346
  126OSM    C2S13413   4.838   5.201   6.839  0.0947  0.3739  0.5015
  126OSM    H2S13414   4.895   5.296   6.833 -0.8053  0.8811 -0.4904
  126OSM    C3S13415   4.685   5.236   6.833 -0.4447  0.7382 -0.2941
  126OSM    H3S13416   4.625   5.142   6.829 -1.8598  1.5216  1.2416
  126OSM     O313417   4.635   5.316   6.724 -0.4061 -0.6925  0.4315
  126OSM    HO313418   4.695   5.307   6.650  0.6826 -0.5240  1.2609
  126OSM    C4S13419   4.642   5.309   6.953  1.2425 -0.3825  0.7060
  126OSM    H4S13420   4.699   5.400   6.973  1.0906 -0.0535 -0.3357
  126OSM    C5S13421   4.535   5.285   7.037  0.8247 -0.0448  0.0729
  126OSM    H5S13422   4.469   5.198   7.019  0.1101  0.4475  0.2854
  126OSM    C6S13423   4.512   5.377   7.148 -0.4225  0.0195 -0.1994
  126OSM    H6S13424   4.412   5.424   7.163  0.1075  0.7089  1.4590
  126OSM    H6T13425   4.583   5.463   7.151 -1.5586  0.9733  1.4810
  126OSM    C7S13426   4.533   5.281   7.266 -0.5617  0.6007 -0.2645
  126OSM    H7S13427   4.639   5.248   7.259 -0.9409 -0.3478 -3.9675
  126OSM    H7T13428   4.456   5.202   7.252 -0.2304  0.4139 -1.1300
  126OSM    C8S13429   4.504   5.360   7.398  0.2773  0.7318  0.3115
  126OSM    H8S13430   4.408   5.413   7.383 -0.5055 -0.6229  0.3406
  126OSM    H8T13431   4.577   5.438   7.425  1.0728  0.6107 -1.3505
  126OSM    C9S13432   4.492   5.259   7.505 -0.0664 -0.5904  0.9149
  126OSM    H9S13433   4.588   5.205   7.519 -0.5587 -1.5930  0.5309
  126OSM    H9T13434   4.421   5.178   7.479  1.2749 -1.0215 -1.7490
  126OSM   C10S13435   4.462   5.324   7.643  0.3389  0.6640 -0.2344
  126OSM   H10S13436   4.376   5.393   7.633 -0.0951 -0.1400 -3.1105
  126OSM   H10T13437   4.549   5.387   7.669  1.4014 -1.6441  2.3254
  126OSM   C11S13438   4.465   5.229   7.759 -0.3892 -0.3538 -0.2610
  126OSM   H11S13439   4.551   5.161   7.740 -0.1774 -0.5176  1.1770
  126OSM   H11T13440   4.373   5.167   7.755 -0.2365 -0.5329 -1.8568
  126OSM   C12S13441   4.500   5.292   7.892 -0.7926 -0.5078  0.6470
  126OSM   H12S13442   4.448   5.390   7.899  2.4682  1.5184 -0.8770
  126OSM   H12T13443   4.605   5.326   7.882 -0.8198 -0.4956  0.3901
  126OSM   C13S13444   4.468   5.199   8.009 -0.0593  0.3292 -1.1503
  126OSM   H13S13445   4.546   5.121   8.022 -0.6084 -0.2509 -1.2843
  126OSM   H13T13446   4.373   5.146   7.986  0.5089 -1.9288  1.3052
  126OSM   C14S13447   4.442   5.279   8.140 -0.2270 -0.4719  0.4154
  126OSM   H14S13448   4.366   5.357   8.119  0.0201 -0.0806  0.9781
  126OSM   H14T13449   4.532   5.328   8.183 -1.1548  0.9773  0.7660
  126OSM   C15S13450   4.382   5.189   8.247  0.4513 -0.4589 -0.7712
  126OSM   H15S13451   4.456   5.112   8.278  2.3815  1.7976  0.5494
  126OSM   H15T13452   4.296   5.135   8.202  1.6058 -2.2050 -0.9809
  126OSM   C16S13453   4.334   5.270   8.370  0.1429  0.3081 -0.1398
  126OSM   H16S13454   4.253   5.339   8.340 -2.4608 -2.1867  0.6888
  126OSM   H16T13455   4.415   5.323   8.424  0.4908 -1.7889  1.5277
  126OSM   C17S13456   4.284   5.165   8.465  0.8677  0.0079  0.4131
  126OSM   H17S13457   4.371   5.099   8.482  2.8093  1.7369 -2.0986
  126OSM   H17T13458   4.203   5.107   8.414  2.7161 -0.3211 -2.3998
  126OSM   C18S13459   4.241   5.223   8.603  0.4823  0.2219  0.3848
  126OSM   H18S13460   4.320   5.290   8.642  1.5391 -0.0925 -1.1094
  126OSM   H18T13461   4.234   5.133   8.668 -0.8396  0.2674  0.3371
  126OSM   H18U13462   4.143   5.275   8.601  1.5838  2.4331  1.0031
  126OSM    C1F13463   4.995   5.099   7.005 -0.1873 -0.3313 -0.1863
  126OSM     OF13464   5.088   5.134   6.934  0.0684 -0.1825 -0.4526
  126OSM    C2F13465   5.001   5.020   7.126  0.1056 -0.0783  0.5377
  126OSM    H2F13466   4.957   4.919   7.114  1.3897 -0.6663  0.6194
  126OSM    H2G13467   4.928   5.059   7.201 -1.0880 -2.9297  0.9757
  126OSM    C3F13468   5.145   5.008   7.188 -0.1094 -0.3322 -0.4160
  126OSM    H3F13469   5.199   5.105   7.189  0.3369 -0.5155 -2.4014
  126OSM    H3G13470   5.198   4.939   7.118  0.0529 -0.8526  0.2099
  126OSM    C4F13471   5.136   4.928   7.318  0.4748 -0.0076  0.0382
  126OSM    H4F13472   5.109   4.823   7.295  1.4735  0.1646 -2.2014
  126OSM    H4G13473   5.066   4.967   7.395  1.5933  2.6281 -0.1490
  126OSM    C5F13474   5.282   4.887   7.366  0.3090 -0.0199 -0.5795
  126OSM    H5F13475   5.332   4.984   7.381  1.9988 -1.1859  2.0572
  126OSM    H5G13476   5.327   4.824   7.286 -1.9083 -2.7622  0.1578
  126OSM    C6F13477   5.276   4.819   7.503  0.2516 -0.8102 -0.3982
  126OSM    H6F13478   5.271   4.709   7.487  0.5406 -0.9834  0.5870
  126OSM    H6G13479   5.190   4.860   7.560 -0.1368 -0.1220 -1.4518
  126OSM    C7F13480   5.404   4.835   7.592  0.1831 -0.0815 -0.4303
  126OSM    H7F13481   5.422   4.944   7.602 -0.4984  0.1358 -1.4590
  126OSM    H7G13482   5.490   4.797   7.533  3.3356  3.0915  1.6810
  126OSM    C8F13483   5.410   4.756   7.725  0.4223  0.2085 -0.1510
  126OSM    H8F13484   5.393   4.646   7.720 -2.5974  0.5257  1.0223
  126OSM    H8G13485   5.313   4.783   7.772  0.6134 -0.2558  0.5103
  126OSM    C9F13486   5.536   4.794   7.808  0.5459 -0.0444 -0.0435
  126OSM    H9F13487   5.624   4.816   7.746 -0.1561  0.2484 -0.9646
  126OSM   C10F13488   5.530   4.841   7.938  0.8394 -0.2113 -0.1963
  126OSM   H10F13489   5.619   4.859   7.999  0.9415 -0.5913 -0.2278
  126OSM   C11F13490   5.401   4.846   8.016 -0.1119 -0.6651  0.3508
  126OSM   H11F13491   5.341   4.915   7.953  1.7547  0.8280  0.1244
  126OSM   H11G13492   5.421   4.909   8.105  1.2421 -0.1550 -0.2835
  126OSM   C12F13493   5.334   4.714   8.050  0.0467 -0.5398 -0.2392
  126OSM   H12F13494   5.408   4.632   8.060 -0.5295 -0.8773  1.7256
  126OSM   H12G13495   5.268   4.690   7.964  1.7443 -0.5951 -1.5726
  126OSM   C13F13496   5.253   4.725   8.182 -0.1547 -0.2560 -0.5626
  126OSM   H13F13497   5.189   4.634   8.195 -1.6017  0.8416  0.3383
  126OSM   H13G13498   5.175   4.803   8.166  1.4515  1.1921 -1.5859
  126OSM   C14F13499   5.325   4.743   8.316 -0.3390 -0.1329  0.7661
  126OSM   H14F13500   5.247   4.770   8.390 -1.0033  1.3885 -0.4153
  126OSM   H14G13501   5.403   4.822   8.302  0.0506 -0.7488 -0.8055
  126OSM   C15F13502   5.411   4.621   8.353 -0.4597  0.2404  0.6874
  126OSM   H15F13503   5.509   4.618   8.302 -1.2126  0.5681 -0.8576
  126OSM   H15G13504   5.357   4.529   8.322 -2.1987  1.4675 -0.0798
  126OSM   C16F13505   5.422   4.612   8.503 -0.9060  0.0661  0.2617
  126OSM   H16F13506   5.321   4.611   8.551  0.1354  0.7874  2.6384
  126OSM   H16G13507   5.481   4.703   8.525  0.1225  0.4489 -3.4823
  126OSM   C17F13508   5.490   4.481   8.542 -0.7258  0.2915  0.2712
  126OSM   H17F13509   5.444   4.395   8.489  0.2449 -0.3481  0.4444
  126OSM   H17G13510   5.469   4.459   8.649 -1.6382 -4.0633 -0.6032
  126OSM   C18F13511   5.647   4.483   8.543  0.5424  0.4146  0.0881
  126OSM   H18F13512   5.699   4.493   8.445 -3.1562  3.3433 -1.8675
  126OSM   H18G13513   5.683   4.387   8.586  0.5388  0.0527 -0.6989
  126OSM   H18H13514   5.683   4.561   8.614  2.4900  0.9340 -1.3868
  127OSM      N13515   1.711   0.986   6.525  0.0902  0.1557 -0.3250
  127OSM    C1513516   1.786   0.997   6.401  0.0793 -0.4821  0.3100
  127OSM   H15A13517   1.797   1.099   6.365 -2.7458 -0.1290  0.1894
  127OSM   H15B13518   1.734   0.947   6.320 -0.2443  0.7897 -0.3088
  127OSM   H15C13519   1.888   0.963   6.408 -0.1488 -2.4666 -3.3171
  127OSM    C1413520   1.781   1.035   6.647  0.0732 -0.2414  0.1536
  127OSM   H14A13521   1.879   0.990   6.650 -0.1243 -0.8048 -1.0467
  127OSM   H14B13522   1.721   1.009   6.733  0.1087 -1.8086 -0.2600
  127OSM   H14C13523   1.795   1.142   6.643 -1.0703 -0.1183 -2.3227
  127OSM    C1313524   1.577   1.066   6.505  0.1906 -0.0413 -0.3666
  127OSM   H13A13525   1.529   1.022   6.419 -0.7337  2.0074 -0.9434
  127OSM   H13B13526   1.590   1.173   6.498 -2.4079  0.9060  4.5667
  127OSM   H13C13527   1.506   1.056   6.586 -1.9417  0.9329 -2.0228
  127OSM    C1213528   1.680   0.837   6.555  0.3108  0.4080  0.1858
  127OSM   H12A13529   1.625   0.792   6.474 -1.6325  0.9681  1.1373
  127OSM   H12B13530   1.618   0.841   6.643  0.1607  0.6723  0.0662
  127OSM    C1113531   1.797   0.744   6.591  0.6758  0.4681 -0.6078
  127OSM   H11A13532   1.763   0.648   6.636  0.3727  0.1192 -1.5526
  127OSM   H11B13533   1.855   0.796   6.670  0.3758  0.8784 -0.6509
  127OSM      P13534   1.839   0.605   6.378  0.3092  0.2049  0.0470
  127OSM    O1313535   1.695   0.576   6.382  0.1794  0.3137  0.0658
  127OSM    O1413536   1.886   0.634   6.241 -0.0956 -0.4740 -0.0362
  127OSM    O1113537   1.914   0.483   6.443 -0.5119  0.2312  0.6009
  127OSM    O1213538   1.884   0.719   6.485 -0.3647 -0.5467 -0.2761
  127OSM    C1S13539   2.026   0.495   6.539  0.1034  0.9410 -0.6939
  127OSM    H1S13540   1.981   0.505   6.640 -1.9925  0.7110 -1.5708
  127OSM    H1T13541   2.094   0.582   6.523  2.6965 -0.4216  1.8957
  127OSM     NF13542   2.187   0.366   6.668 -0.2231 -0.6041 -0.5819
  127OSM    HNF13543   2.278   0.405   6.676 -0.9020  0.9044  0.2507
  127OSM    C2S13544   2.110   0.361   6.551 -0.0823  0.0836  1.0120
  127OSM    H2S13545   2.045   0.270   6.557  2.0065 -1.6564 -0.7841
  127OSM    C3S13546   2.200   0.340   6.429 -1.1288 -0.6563  0.5760
  127OSM    H3S13547   2.272   0.423   6.416 -1.2763 -0.7401 -1.0021
  127OSM     O313548   2.138   0.365   6.305  0.1035  0.4039  0.1701
  127OSM    HO313549   2.055   0.406   6.329  0.8087  2.3800 -0.5971
  127OSM    C4S13550   2.283   0.217   6.437  0.2436  0.6638 -0.1391
  127OSM    H4S13551   2.363   0.238   6.509 -0.9160 -0.0072  1.4215
  127OSM    C5S13552   2.251   0.094   6.384  0.4824  0.3892 -0.7494
  127OSM    H5S13553   2.154   0.082   6.333 -0.6348  2.7697  0.6041
  127OSM    C6S13554   2.336  -0.030   6.402  1.0821  0.3710 -0.1401
  127OSM    H6S13555   2.390  -0.068   6.312 -0.5968 -1.2435 -0.5253
  127OSM    H6T13556   2.273  -0.117   6.430 -1.1980  1.3577 -1.8463
  127OSM    C7S13557   2.430  -0.016   6.523 -0.1475  0.4897 -0.4830
  127OSM    H7S13558   2.504   0.066   6.515  0.4272  0.1033  0.6173
  127OSM    H7T13559   2.486  -0.112   6.533  0.5862  0.9375 -0.2247
  127OSM    C8S13560   2.365  -0.021   6.667 -0.7602  0.1063  0.4483
  127OSM    H8S13561   2.313  -0.117   6.687  0.8489 -1.1098 -0.8387
  127OSM    H8T13562   2.289   0.060   6.673 -0.1335  0.9028 -1.3634
  127OSM    C9S13563   2.469   0.011   6.775 -0.2687  0.2956  0.0156
  127OSM    H9S13564   2.511   0.105   6.733  1.4524 -0.2135  0.5238
  127OSM    H9T13565   2.553  -0.062   6.772 -1.2869 -0.9058 -2.7598
  127OSM   C10S13566   2.407   0.023   6.913  0.8564  0.8450  0.8575
  127OSM   H10S13567   2.387  -0.079   6.954  3.5546  0.4678  1.4816
  127OSM   H10T13568   2.313   0.079   6.896  0.4962 -0.0729 -0.3456
  127OSM   C11S13569   2.491   0.102   7.007 -0.6891 -0.5094  0.2807
  127OSM   H11S13570   2.490   0.210   6.980 -1.2843 -0.5920 -0.0424
  127OSM   H11T13571   2.596   0.073   6.984 -1.1858 -1.5686 -0.7638
  127OSM   C12S13572   2.456   0.076   7.150 -0.4716 -0.0172  0.0411
  127OSM   H12S13573   2.465  -0.033   7.168 -0.6388  0.0643  0.6611
  127OSM   H12T13574   2.349   0.104   7.157 -0.0081  1.6796  1.0749
  127OSM   C13S13575   2.536   0.163   7.249 -0.3461 -0.0248 -0.1646
  127OSM   H13S13576   2.496   0.266   7.234  1.4109  0.5195 -1.5713
  127OSM   H13T13577   2.647   0.158   7.243 -0.4406 -1.9348 -1.0849
  127OSM   C14S13578   2.499   0.126   7.389 -0.7808 -0.1340 -0.0327
  127OSM   H14S13579   2.563   0.197   7.446  1.0107 -0.8951 -0.9964
  127OSM   H14T13580   2.533   0.024   7.418 -1.4667 -0.7262 -1.2354
  127OSM   C15S13581   2.346   0.138   7.419 -0.6421 -0.5110 -0.7263
  127OSM   H15S13582   2.296   0.050   7.372  1.2195 -2.2268  0.3385
  127OSM   H15T13583   2.308   0.235   7.381  0.8877  0.0946 -0.7805
  127OSM   C16S13584   2.307   0.146   7.569  0.0637 -0.4527  0.8363
  127OSM   H16S13585   2.346   0.052   7.612  1.2122 -1.1047 -1.4338
  127OSM   H16T13586   2.197   0.147   7.581 -0.2364 -1.3172 -1.3311
  127OSM   C17S13587   2.365   0.271   7.644  0.1079 -0.3187  0.0078
  127OSM   H17S13588   2.332   0.371   7.608 -0.6141  0.2051  2.0174
  127OSM   H17T13589   2.476   0.275   7.649  0.0262  0.5085  2.3655
  127OSM   C18S13590   2.322   0.272   7.790  0.6764  0.0620 -0.0691
  127OSM   H18S13591   2.363   0.371   7.823  2.2030 -0.0617 -1.4567
  127OSM   H18T13592   2.373   0.191   7.847  1.1781 -0.6793 -1.5335
  127OSM   H18U13593   2.212   0.278   7.805  0.9625  0.9714  2.0460
  127OSM    C1F13594   2.127   0.323   6.780 -0.3765 -0.8636 -0.7436
  127OSM     OF13595   2.021   0.266   6.775 -0.5417  0.2014 -0.6469
  127OSM    C2F13596   2.192   0.376   6.907  0.6214 -0.8038  0.1280
  127OSM    H2F13597   2.228   0.481   6.901 -0.8243 -0.0601  2.7722
  127OSM    H2G13598   2.276   0.308   6.934  0.7607 -0.5348  0.3798
  127OSM    C3F13599   2.094   0.367   7.032 -0.5750 -0.3120 -0.3743
  127OSM    H3F13600   2.071   0.259   7.050  0.7958 -0.3895  1.2422
  127OSM    H3G13601   2.002   0.426   7.015 -0.0396  1.3272  1.8859
  127OSM    C4F13602   2.147   0.419   7.171  0.3932  0.0245 -0.2031
  127OSM    H4F13603   2.152   0.529   7.166  0.0875 -0.0126 -2.9144
  127OSM    H4G13604   2.245   0.373   7.194  1.1774  2.0080  0.6247
  127OSM    C5F13605   2.050   0.379   7.291  0.3239 -0.1589  0.2559
  127OSM    H5F13606   2.112   0.390   7.383  3.8957  0.9934 -2.0757
  127OSM    H5G13607   2.021   0.272   7.280 -2.9655  0.8261 -2.3616
  127OSM    C6F13608   1.917   0.458   7.301 -0.7293 -0.1637 -0.4708
  127OSM    H6F13609   1.868   0.443   7.203  1.8623  0.7927 -2.0345
  127OSM    H6G13610   1.937   0.567   7.294 -0.4001 -0.2305 -0.5936
  127OSM    C7F13611   1.839   0.434   7.427 -0.3963  0.1512  0.4822
  127OSM    H7F13612   1.823   0.324   7.437  0.0960  0.1055  0.8022
  127OSM    H7G13613   1.735   0.472   7.426 -0.4369  0.0800  1.2973
  127OSM    C8F13614   1.902   0.470   7.559  0.0886  0.1785 -0.6263
  127OSM    H8F13615   1.999   0.426   7.591 -0.4432  0.5785  1.7725
  127OSM    H8G13616   1.833   0.428   7.637 -1.1042  3.7832  0.4348
  127OSM    C9F13617   1.895   0.614   7.586 -0.5647 -0.9561 -0.0035
  127OSM    H9F13618   1.830   0.663   7.512 -0.5172  1.1597  1.2718
  127OSM   C10F13619   1.932   0.682   7.691  0.1551 -0.5395 -0.6900
  127OSM   H10F13620   1.929   0.792   7.686 -0.3475 -0.5949 -2.5643
  127OSM   C11F13621   2.001   0.632   7.818  0.8758 -0.4256 -0.6930
  127OSM   H11F13622   1.992   0.522   7.828  3.0851 -0.4933  1.4688
  127OSM   H11G13623   1.944   0.674   7.904 -2.0989  0.0689 -2.7362
  127OSM   C12F13624   2.150   0.670   7.820  0.0993 -0.2307 -0.1032
  127OSM   H12F13625   2.158   0.773   7.779 -0.1796  0.0866  0.6143
  127OSM   H12G13626   2.208   0.606   7.750  0.6045  0.4548 -0.3228
  127OSM   C13F13627   2.217   0.666   7.959 -0.0500 -0.6342  0.7170
  127OSM   H13F13628   2.187   0.569   8.005 -2.0658  0.6758  2.3383
  127OSM   H13G13629   2.176   0.744   8.026  2.0950  0.9453  0.2803
  127OSM   C14F13630   2.371   0.675   7.945 -0.8044 -0.1044  0.2191
  127OSM   H14F13631   2.409   0.595   7.878  1.1128  0.8061  0.1273
  127OSM   H14G13632   2.424   0.665   8.042 -0.0214 -2.5338 -0.3852
  127OSM   C15F13633   2.422   0.814   7.897  0.4569 -0.1799 -1.2090
  127OSM   H15F13634   2.425   0.813   7.786 -0.5832  0.5814 -1.2521
  127OSM   H15G13635   2.530   0.809   7.924 -0.0103 -0.5284  0.7524
  127OSM   C16F13636   2.350   0.933   7.961 -0.0482 -0.7322  0.7713
  127OSM   H16F13637   2.242   0.932   7.935 -0.1904  1.9679  0.8873
  127OSM   H16G13638   2.393   1.026   7.918  0.6374 -0.1178  2.6754
  127OSM   C17F13639   2.355   0.937   8.115 -0.7722  0.1740 -0.7477
  127OSM   H17F13640   2.335   0.837   8.159 -0.2284  0.3737 -0.0229
  127OSM   H17G13641   2.264   0.995   8.143  0.0778  1.1741  0.0158
  127OSM   C18F13642   2.483   1.000   8.174 -0.4960 -0.1686  0.0597
  127OSM   H18F13643   2.504   1.102   8.134  0.1038 -0.7680 -1.2222
  127OSM   H18G13644   2.568   0.933   8.149  0.1223  1.1211 -1.4951
  127OSM   H18H13645   2.476   1.006   8.285 -0.5207  0.8284  0.0154
  128OSM      N13646   1.081   3.912   5.760 -0.1993 -0.1695 -0.5643
  128OSM    C1513647   1.111   4.041   5.697  0.8870 -0.0393 -0.0261
  128OSM   H15A13648   1.113   4.129   5.759  0.1011  0.0714 -0.1461
  128OSM   H15B13649   1.058   4.057   5.604 -1.5963  1.7705  1.5598
  128OSM   H15C13650   1.212   4.037   5.659 -0.0134  0.4345 -2.6549
  128OSM    C1413651   0.940   3.928   5.810  0.2524 -0.7687  0.2363
  128OSM   H14A13652   0.933   4.015   5.874 -0.4151 -1.9542  1.8515
  128OSM   H14B13653   0.904   3.839   5.860  1.4488 -1.2003  0.3466
  128OSM   H14C13654   0.871   3.945   5.729  0.5121  1.3182  0.3836
  128OSM    C1313655   1.087   3.805   5.654  0.0496  0.7030  1.1285
  128OSM   H13A13656   1.185   3.807   5.609  1.0887 -0.3146  3.1994
  128OSM   H13B13657   1.012   3.830   5.580  1.4114  1.1146 -0.1735
  128OSM   H13C13658   1.057   3.707   5.690 -2.2169 -0.3195 -2.8570
  128OSM    C1213659   1.168   3.871   5.881 -0.4107 -0.0054 -0.6347
  128OSM   H12A13660   1.263   3.834   5.847  0.1976 -0.4200  1.3722
  128OSM   H12B13661   1.112   3.789   5.924  0.9066  0.0106  1.2626
  128OSM    C1113662   1.181   3.972   5.999  0.1426 -0.7631  0.7400
  128OSM   H11A13663   1.211   4.072   5.959 -3.0069  0.6153  1.4996
  128OSM   H11B13664   1.255   3.940   6.075  0.5026  2.2048  1.7710
  128OSM      P13665   0.973   3.893   6.154 -0.1006  0.3627 -0.4150
  128OSM    O1313666   0.830   3.942   6.178  0.8789 -0.5138 -0.8262
  128OSM    O1413667   0.978   3.760   6.088  0.1937 -0.6178 -0.3620
  128OSM    O1113668   1.044   3.883   6.291  0.1304  0.2416 -0.4382
  128OSM    O1213669   1.058   3.988   6.070  0.0978  0.3190  0.3118
  128OSM    C1S13670   1.146   3.955   6.364  0.2812 -0.1473  0.2521
  128OSM    H1S13671   1.144   4.057   6.321 -1.7809 -0.8123 -1.4076
  128OSM    H1T13672   1.246   3.907   6.355 -0.0269 -0.5466 -1.4595
  128OSM     NF13673   1.196   4.079   6.580  0.0641 -0.2761 -0.1145
  128OSM    HNF13674   1.267   4.053   6.645  0.6405  2.6551  0.6051
  128OSM    C2S13675   1.103   3.983   6.517 -0.1217 -0.2598  0.5622
  128OSM    H2S13676   1.001   4.026   6.514  0.3089  0.8629  1.2078
  128OSM    C3S13677   1.078   3.859   6.598 -0.3862 -0.0712  0.3578
  128OSM    H3S13678   1.177   3.809   6.593 -0.2952  0.0918  0.5054
  128OSM     O313679   0.985   3.765   6.537 -0.2002  0.3540  0.4658
  128OSM    HO313680   0.968   3.806   6.452  1.6054 -0.7113 -0.4793
  128OSM    C4S13681   1.042   3.902   6.735 -0.7020  0.6373 -0.2090
  128OSM    H4S13682   0.978   3.991   6.735 -0.9945  0.4370  0.8394
  128OSM    C5S13683   1.088   3.839   6.845  0.5230 -0.4997  0.4253
  128OSM    H5S13684   1.159   3.756   6.833  0.0063 -0.5936 -2.7920
  128OSM    C6S13685   1.062   3.878   6.985 -0.0616 -0.3340  0.1385
  128OSM    H6S13686   0.958   3.850   7.015 -0.3400  0.0304 -0.4606
  128OSM    H6T13687   1.066   3.989   6.993  0.4305 -0.3756  0.4811
  128OSM    C7S13688   1.162   3.824   7.084 -0.1363 -0.1562  0.5341
  128OSM    H7S13689   1.268   3.849   7.059 -1.2754  3.2683 -1.4435
  128OSM    H7T13690   1.142   3.716   7.071 -3.5166  0.5565 -1.1707
  128OSM    C8S13691   1.130   3.874   7.227  0.6944  0.0978 -0.4767
  128OSM    H8S13692   1.020   3.869   7.241  1.0241 -2.5879  2.3214
  128OSM    H8T13693   1.151   3.981   7.246 -0.8279  0.9197 -3.0965
  128OSM    C9S13694   1.210   3.808   7.338  0.4719  0.4942 -0.4413
  128OSM    H9S13695   1.317   3.802   7.311  1.3737 -1.3315  2.9087
  128OSM    H9T13696   1.171   3.704   7.351  0.3422  0.7600  1.6032
  128OSM   C10S13697   1.184   3.880   7.475 -0.9601 -0.2535 -0.1007
  128OSM   H10S13698   1.080   3.852   7.504  0.3616 -3.3504  2.3094
  128OSM   H10T13699   1.198   3.990   7.486  2.4376 -0.8193  3.4916
  128OSM   C11S13700   1.255   3.818   7.587  0.4367 -0.1232 -0.3647
  128OSM   H11S13701   1.366   3.825   7.578  0.2050  2.6558 -1.9084
  128OSM   H11T13702   1.250   3.707   7.574 -0.3253 -0.0465 -0.7484
  128OSM   C12S13703   1.200   3.849   7.724 -0.7466 -0.3201 -0.5194
  128OSM   H12S13704   1.096   3.809   7.725 -0.6136 -0.6929  1.1808
  128OSM   H12T13705   1.199   3.959   7.740  0.4781 -0.3090 -0.4653
  128OSM   C13S13706   1.268   3.787   7.849 -0.2250 -1.0506  0.8303
  128OSM   H13S13707   1.354   3.855   7.869 -1.2193  0.1311  1.2132
  128OSM   H13T13708   1.317   3.689   7.833 -0.6248 -1.2618  0.8902
  128OSM   C14S13709   1.192   3.800   7.976 -0.2123 -0.1337  0.8006
  128OSM   H14S13710   1.106   3.732   7.961 -0.4562 -0.3399  2.8299
  128OSM   H14T13711   1.157   3.904   7.996 -0.2368 -0.1769  0.9863
  128OSM   C15S13712   1.290   3.757   8.090 -0.2575  0.7400  0.8671
  128OSM   H15S13713   1.344   3.842   8.136  0.7061  1.6577 -1.7296
  128OSM   H15T13714   1.356   3.680   8.045  1.6084  1.3574  2.4587
  128OSM   C16S13715   1.210   3.686   8.204  0.3944 -0.3200  0.1988
  128OSM   H16S13716   1.187   3.585   8.164  0.0631  0.5422 -1.8668
  128OSM   H16T13717   1.109   3.730   8.220 -0.3926 -1.7076 -0.6947
  128OSM   C17S13718   1.287   3.662   8.335  0.4761  0.1032  0.2129
  128OSM   H17S13719   1.278   3.760   8.386  0.3541 -1.5004  3.5100
  128OSM   H17T13720   1.388   3.622   8.310 -0.4996 -1.5813 -1.2276
  128OSM   C18S13721   1.220   3.562   8.420 -0.4360 -0.0659 -0.7949
  128OSM   H18S13722   1.291   3.524   8.496 -1.9632 -1.2669  0.0953
  128OSM   H18T13723   1.194   3.469   8.365  0.2738 -1.2028  0.7272
  128OSM   H18U13724   1.136   3.609   8.475  1.2637  0.6706  1.3163
  128OSM    C1F13725   1.199   4.202   6.523 -0.2665  0.4952 -0.2365
  128OSM     OF13726   1.103   4.250   6.464  0.4329  0.2728  0.1507
  128OSM    C2F13727   1.328   4.278   6.546  0.2687  0.3909  0.8889
  128OSM    H2F13728   1.362   4.311   6.445 -0.2697 -0.4807  0.4144
  128OSM    H2G13729   1.405   4.215   6.596  1.9208  1.3706 -0.2921
  128OSM    C3F13730   1.319   4.404   6.639  0.4470  0.5801 -0.2644
  128OSM    H3F13731   1.233   4.472   6.624 -0.0729 -0.0012  0.0496
  128OSM    H3G13732   1.406   4.473   6.631  0.4155  0.5290 -1.0804
  128OSM    C4F13733   1.312   4.345   6.781  0.0352  0.2317 -0.2510
  128OSM    H4F13734   1.405   4.288   6.805 -0.4806 -0.6192 -0.2278
  128OSM    H4G13735   1.233   4.268   6.794  1.6863 -1.3880  0.7727
  128OSM    C5F13736   1.294   4.455   6.883 -0.0583  0.2655 -0.4581
  128OSM    H5F13737   1.236   4.541   6.843  1.8916  3.5539  3.1533
  128OSM    H5G13738   1.396   4.494   6.899 -0.0990  0.7294 -1.2749
  128OSM    C6F13739   1.242   4.402   7.018  0.3430  0.0020  0.5573
  128OSM    H6F13740   1.149   4.348   6.992 -0.1680  0.8771  0.5205
  128OSM    H6G13741   1.217   4.490   7.082  1.3950  0.9360 -0.2613
  128OSM    C7F13742   1.348   4.319   7.096  0.0870  0.9572 -0.2842
  128OSM    H7F13743   1.381   4.228   7.041  0.2650 -0.6447  2.2947
  128OSM    H7G13744   1.291   4.273   7.180 -0.5609 -0.3080 -1.3744
  128OSM    C8F13745   1.471   4.402   7.152 -0.2192  0.2198  0.0161
  128OSM    H8F13746   1.540   4.433   7.070 -1.5853  2.4891 -0.3600
  128OSM    H8G13747   1.525   4.332   7.219  0.8293 -0.5183 -1.5365
  128OSM    C9F13748   1.431   4.527   7.224  0.3333  0.6034 -0.3213
  128OSM    H9F13749   1.467   4.623   7.184 -0.3270  1.3266  0.7785
  128OSM   C10F13750   1.374   4.537   7.346 -0.5228 -0.3606 -0.4720
  128OSM   H10F13751   1.354   4.640   7.378 -0.3550 -0.3897 -0.2735
  128OSM   C11F13752   1.328   4.430   7.432 -0.2756 -0.1517 -0.8752
  128OSM   H11F13753   1.355   4.325   7.409 -1.2010 -0.7869  0.7541
  128OSM   H11G13754   1.217   4.435   7.426 -0.2130  1.7244 -0.9226
  128OSM   C12F13755   1.381   4.463   7.583  0.2033 -0.2803  0.6553
  128OSM   H12F13756   1.346   4.564   7.613  0.6411  0.6658 -1.7814
  128OSM   H12G13757   1.492   4.475   7.584  0.1106  0.6411  0.6817
  128OSM   C13F13758   1.351   4.363   7.697  0.2996  0.4842 -0.2366
  128OSM   H13F13759   1.376   4.415   7.792  2.1802  0.0764 -0.4762
  128OSM   H13G13760   1.411   4.270   7.686 -0.4555  0.0819 -1.1372
  128OSM   C14F13761   1.203   4.314   7.701 -0.1038 -0.0974 -0.8434
  128OSM   H14F13762   1.195   4.244   7.615  0.4746  0.0908 -1.0536
  128OSM   H14G13763   1.137   4.403   7.696  1.5386  1.3061  1.1019
  128OSM   C15F13764   1.174   4.240   7.837 -0.7698  0.4639  0.1387
  128OSM   H15F13765   1.268   4.193   7.874  0.5787  0.8127 -2.5496
  128OSM   H15G13766   1.104   4.159   7.806 -0.0948 -0.0240 -0.1432
  128OSM   C16F13767   1.100   4.332   7.927 -0.1399  0.1891  0.1379
  128OSM   H16F13768   1.004   4.357   7.877 -0.9210 -0.5251  1.2351
  128OSM   H16G13769   1.150   4.428   7.957 -1.0222  0.1299  1.9395
  128OSM   C17F13770   1.067   4.262   8.062  0.8856  0.0916  0.0894
  128OSM   H17F13771   0.998   4.178   8.037 -1.3646  1.7225  0.5167
  128OSM   H17G13772   1.022   4.337   8.129  1.5912 -0.5806  1.3486
  128OSM   C18F13773   1.192   4.210   8.134  0.3631 -0.3836  0.1608
  128OSM   H18F13774   1.278   4.280   8.130  1.2272 -1.3234  1.4021
  128OSM   H18G13775   1.232   4.124   8.076  1.8923  0.0966  0.4595
  128OSM   H18H13776   1.170   4.164   8.233 -0.6231 -5.6245 -2.1279
  129OSM      N13777   6.769   4.861   6.074 -0.1009  0.4328 -0.2597
  129OSM    C1513778   6.887   4.813   6.002  0.2096 -0.2435 -0.5138
  129OSM   H15A13779   6.933   4.889   5.941  2.9157 -1.8303 -0.6188
  129OSM   H15B13780   6.862   4.728   5.940 -2.0753 -1.2427  1.6145
  129OSM   H15C13781   6.967   4.791   6.072  0.1570  1.3655  0.0983
  129OSM    C1413782   6.665   4.907   5.977 -0.5891  0.0894 -0.8205
  129OSM   H14A13783   6.666   4.841   5.891  0.9486  1.7113 -2.1329
  129OSM   H14B13784   6.691   5.002   5.932 -1.6050 -0.2424 -2.1485
  129OSM   H14C13785   6.571   4.903   6.029  0.1960 -2.2433  0.5700
  129OSM    C1313786   6.714   4.751   6.158 -0.4273 -0.4537  0.6092
  129OSM   H13A13787   6.787   4.706   6.224 -0.4453 -1.3449  0.0451
  129OSM   H13B13788   6.685   4.668   6.095 -2.1994  0.5047  0.1133
  129OSM   H13C13789   6.625   4.768   6.215 -0.6344 -0.5816  0.3299
  129OSM    C1213790   6.818   4.962   6.176  0.9924  0.6465 -0.1533
  129OSM   H12A13791   6.878   4.918   6.254 -0.1353  0.8117  0.8419
  129OSM   H12B13792   6.724   4.995   6.217 -0.7415 -1.8727 -1.7644
  129OSM    C1113793   6.893   5.083   6.131 -0.0778 -0.1560  0.2506
  129OSM   H11A13794   6.975   5.062   6.058 -1.0904  0.6520 -1.1775
  129OSM   H11B13795   6.941   5.137   6.215  1.0252 -0.5028 -0.1391
  129OSM      P13796   6.709   5.262   6.145 -0.0796  0.2659 -0.2654
  129OSM    O1313797   6.642   5.350   6.051  0.1144 -0.9501 -0.4788
  129OSM    O1413798   6.626   5.179   6.236 -0.3022  0.5887  0.6129
  129OSM    O1113799   6.809   5.340   6.231 -0.5481 -0.4283 -0.5020
  129OSM    O1213800   6.808   5.174   6.063 -0.3289 -0.0611 -0.0207
  129OSM    C1S13801   6.779   5.435   6.333  0.1767 -0.0992 -0.0744
  129OSM    H1S13802   6.671   5.445   6.356  0.2185 -0.4633  0.2760
  129OSM    H1T13803   6.784   5.537   6.289 -2.8182 -0.3207 -1.1284
  129OSM     NF13804   6.808   5.506   6.566  0.4696 -0.2273  0.0823
  129OSM    HNF13805   6.839   5.601   6.572  0.7956 -0.1053 -2.5667
  129OSM    C2S13806   6.865   5.424   6.469 -0.4750  0.5292 -0.1326
  129OSM    H2S13807   6.863   5.319   6.505 -0.2308  0.3907 -0.5151
  129OSM    C3S13808   7.009   5.469   6.434 -0.1016  0.9172  0.2265
  129OSM    H3S13809   7.006   5.572   6.393  0.8310  1.0423  0.4573
  129OSM     O313810   7.053   5.395   6.321  0.2757 -0.3447  0.2297
  129OSM    HO313811   6.976   5.375   6.267 -0.2125  1.4363  0.2165
  129OSM    C4S13812   7.101   5.447   6.549 -0.1873 -0.4453 -0.7504
  129OSM    H4S13813   7.091   5.524   6.627  0.4230 -1.6052  0.5334
  129OSM    C5S13814   7.194   5.352   6.567 -0.4458  0.2368 -0.1721
  129OSM    H5S13815   7.202   5.274   6.491  0.0269 -1.3621  1.4363
  129OSM    C6S13816   7.275   5.334   6.692 -0.4250  0.2563  0.3874
  129OSM    H6S13817   7.376   5.375   6.671 -0.9794  0.8441 -1.2596
  129OSM    H6T13818   7.283   5.223   6.700 -0.6858  0.3476  2.2398
  129OSM    C7S13819   7.220   5.387   6.824 -0.5535 -0.1520  0.3469
  129OSM    H7S13820   7.128   5.328   6.844  0.4151 -2.2667 -1.0662
  129OSM    H7T13821   7.189   5.494   6.817  0.8740  0.2241 -0.6706
  129OSM    C8S13822   7.323   5.376   6.936  0.4074  0.3281 -0.2701
  129OSM    H8S13823   7.427   5.411   6.925  1.3851 -1.0107  3.3240
  129OSM    H8T13824   7.343   5.267   6.948  2.4076  0.7634  0.6819
  129OSM    C9S13825   7.280   5.437   7.075 -0.4245 -0.3413  0.7442
  129OSM    H9S13826   7.214   5.369   7.133 -0.1921 -0.7156  0.5817
  129OSM    H9T13827   7.222   5.531   7.072 -1.6644 -0.9850  2.8400
  129OSM   C10S13828   7.395   5.454   7.169  0.6840  0.1371  0.7452
  129OSM   H10S13829   7.449   5.538   7.120  1.1462  1.2282  2.9898
  129OSM   H10T13830   7.457   5.363   7.156  0.4370  0.0565  0.0368
  129OSM   C11S13831   7.353   5.481   7.314  0.3361  0.2373 -0.0654
  129OSM   H11S13832   7.325   5.381   7.354  0.1230  0.2764 -0.1166
  129OSM   H11T13833   7.261   5.543   7.326  0.3428  0.2579 -0.1209
  129OSM   C12S13834   7.462   5.529   7.407 -0.7422  0.1662  1.1376
  129OSM   H12S13835   7.504   5.625   7.371 -1.1858 -0.8674 -2.4730
  129OSM   H12T13836   7.539   5.449   7.403  0.1277  0.9789  1.3023
  129OSM   C13S13837   7.419   5.524   7.552  0.1423 -0.2577  0.1554
  129OSM   H13S13838   7.377   5.424   7.575 -3.5078  1.0166 -0.2876
  129OSM   H13T13839   7.332   5.592   7.565 -0.5741 -1.3848  1.4270
  129OSM   C14S13840   7.522   5.565   7.660  0.2148 -0.2814  0.2515
  129OSM   H14S13841   7.587   5.650   7.632 -0.3588 -0.2153 -0.9098
  129OSM   H14T13842   7.591   5.478   7.670  0.5289 -0.0295  0.2644
  129OSM   C15S13843   7.448   5.601   7.787 -1.1327 -0.4653  0.6972
  129OSM   H15S13844   7.391   5.511   7.819 -0.0899 -1.4571 -0.1222
  129OSM   H15T13845   7.383   5.685   7.757  0.9062  0.6916 -0.7392
  129OSM   C16S13846   7.538   5.626   7.913 -0.4328 -0.4168  0.2011
  129OSM   H16S13847   7.635   5.575   7.891 -0.3420  0.0294 -0.4742
  129OSM   H16T13848   7.499   5.576   8.004  1.0707  0.2213  1.2360
  129OSM   C17S13849   7.568   5.768   7.938 -0.1717  1.1362 -0.1700
  129OSM   H17S13850   7.467   5.814   7.934 -0.6413  0.1592  0.1412
  129OSM   H17T13851   7.625   5.803   7.850  2.3589  1.2711  1.4417
  129OSM   C18S13852   7.647   5.786   8.076  0.4592  0.5729  0.2302
  129OSM   H18S13853   7.597   5.738   8.163 -1.9317 -0.0927 -1.3881
  129OSM   H18T13854   7.669   5.889   8.109  2.2125  0.0600  0.7388
  129OSM   H18U13855   7.745   5.734   8.073  0.0380 -0.2441  0.2529
  129OSM    C1F13856   6.695   5.482   6.634 -0.0929 -0.7783  0.4656
  129OSM     OF13857   6.649   5.370   6.640 -0.6351 -0.4451 -0.0856
  129OSM    C2F13858   6.614   5.590   6.687  0.5326 -0.3633  0.3301
  129OSM    H2F13859   6.588   5.651   6.598 -1.3268  0.5378  1.4467
  129OSM    H2G13860   6.665   5.648   6.766 -0.4430  0.7972  0.1345
  129OSM    C3F13861   6.478   5.554   6.744  0.5791 -0.1986 -0.2915
  129OSM    H3F13862   6.483   5.481   6.827 -0.2016  1.2800  1.1084
  129OSM    H3G13863   6.424   5.507   6.659 -0.8206  0.6617  0.0875
  129OSM    C4F13864   6.406   5.682   6.777  1.0231 -0.3080  0.0845
  129OSM    H4F13865   6.411   5.747   6.688 -0.1705  1.5478  1.3003
  129OSM    H4G13866   6.449   5.730   6.867  1.9729  1.1137 -1.0941
  129OSM    C5F13867   6.250   5.664   6.804 -0.6640 -0.1002 -0.1107
  129OSM    H5F13868   6.209   5.619   6.711 -0.4280  2.9304 -1.8058
  129OSM    H5G13869   6.204   5.764   6.817 -0.4530 -0.0133 -0.0318
  129OSM    C6F13870   6.221   5.575   6.923 -0.3920 -0.3864  0.4004
  129OSM    H6F13871   6.275   5.617   7.010 -0.1874 -3.4739  1.8738
  129OSM    H6G13872   6.263   5.473   6.916 -2.0717 -1.0466 -1.1160
  129OSM    C7F13873   6.069   5.578   6.962 -0.8214  0.9428 -0.5747
  129OSM    H7F13874   6.016   5.509   6.893  0.8218  1.9176 -2.9805
  129OSM    H7G13875   6.026   5.680   6.954  1.9960  2.2572 -0.4574
  129OSM    C8F13876   6.051   5.522   7.105 -0.1829  0.3380 -0.6402
  129OSM    H8F13877   5.943   5.523   7.130  0.1846 -0.9830  1.2089
  129OSM    H8G13878   6.095   5.599   7.171  0.1525 -1.2592  1.0958
  129OSM    C9F13879   6.109   5.386   7.152 -0.3269  0.4249  0.0583
  129OSM    H9F13880   6.065   5.293   7.111  0.4531  0.2915 -0.5029
  129OSM   C10F13881   6.221   5.360   7.225  0.6059  0.3519  0.1620
  129OSM   H10F13882   6.240   5.258   7.260  1.6804  0.7848  0.8885
  129OSM   C11F13883   6.314   5.461   7.270 -0.5267  0.2059 -1.4215
  129OSM   H11F13884   6.286   5.563   7.236 -2.4381 -1.3272 -4.9623
  129OSM   H11G13885   6.422   5.435   7.264 -0.5955 -0.2225 -0.9030
  129OSM   C12F13886   6.300   5.455   7.425  0.2885 -0.3592 -0.3412
  129OSM   H12F13887   6.387   5.498   7.479 -1.1871  1.3687  0.7621
  129OSM   H12G13888   6.302   5.355   7.474 -0.8933 -0.7507 -1.0545
  129OSM   C13F13889   6.179   5.533   7.472  0.2644 -0.2178  0.2096
  129OSM   H13F13890   6.090   5.493   7.420  1.5284  1.0681 -3.2047
  129OSM   H13G13891   6.183   5.639   7.439  0.0796 -0.2567  0.0569
  129OSM   C14F13892   6.149   5.524   7.623 -0.2912 -0.2688  0.3215
  129OSM   H14F13893   6.239   5.493   7.680 -0.6832 -0.1526  1.0272
  129OSM   H14G13894   6.072   5.447   7.643  0.6319 -1.4158 -0.4805
  129OSM   C15F13895   6.115   5.660   7.680  0.8029  0.3959  0.0090
  129OSM   H15F13896   6.016   5.676   7.632 -0.0249 -0.1034  1.5007
  129OSM   H15G13897   6.187   5.742   7.657  3.9848 -2.7758 -2.3681
  129OSM   C16F13898   6.110   5.655   7.838  0.2265  0.1005  0.1412
  129OSM   H16F13899   6.208   5.628   7.883  0.1307 -1.5140 -0.5533
  129OSM   H16G13900   6.035   5.577   7.863  1.8519 -1.3710  0.6488
  129OSM   C17F13901   6.058   5.792   7.896  0.1852 -0.2661  0.6158
  129OSM   H17F13902   5.962   5.816   7.846  1.4427  2.0138 -0.8676
  129OSM   H17G13903   6.121   5.875   7.858 -1.5866  0.1832 -1.5592
  129OSM   C18F13904   6.045   5.799   8.045 -0.5131  0.0253 -0.0320
  129OSM   H18F13905   5.987   5.886   8.083  0.4381  0.0855  1.3560
  129OSM   H18G13906   6.144   5.796   8.095 -0.3085  0.5855 -0.3973
  129OSM   H18H13907   5.984   5.710   8.074  0.5360 -0.4969  0.6028
  130OSM      N13908   1.644   3.473   6.011  0.1085 -0.2422  0.0836
  130OSM    C1513909   1.678   3.603   5.936 -0.3619 -0.1371  0.0130
  130OSM   H15A13910   1.584   3.641   5.898 -1.3418 -1.0236  1.4396
  130OSM   H15B13911   1.738   3.564   5.855  1.4828 -0.2132  1.3344
  130OSM   H15C13912   1.731   3.672   6.000  1.0125 -1.6866  0.6253
  130OSM    C1413913   1.553   3.393   5.922  0.4206  0.0788  0.4221
  130OSM   H14A13914   1.600   3.362   5.829  2.1718  0.6623  1.0692
  130OSM   H14B13915   1.453   3.432   5.910  0.5135  0.5881  1.2156
  130OSM   H14C13916   1.535   3.297   5.967 -1.1496 -0.6052 -1.4886
  130OSM    C1313917   1.776   3.405   6.049 -0.5627  0.0398  0.2538
  130OSM   H13A13918   1.830   3.370   5.962 -0.9399  0.9901 -0.3754
  130OSM   H13B13919   1.753   3.316   6.106  1.1248 -0.7915 -0.2766
  130OSM   H13C13920   1.846   3.472   6.096 -1.5651  0.5937  0.9918
  130OSM    C1213921   1.571   3.502   6.142 -0.0953 -0.2571  0.2926
  130OSM   H12A13922   1.488   3.568   6.126  1.4828  1.7151 -0.2199
  130OSM   H12B13923   1.641   3.565   6.195  2.1046  1.1995 -3.8708
  130OSM    C1113924   1.536   3.385   6.238  0.3851 -0.2848 -0.0858
  130OSM   H11A13925   1.479   3.422   6.326  2.3400  1.3445  0.5696
  130OSM   H11B13926   1.634   3.361   6.287  0.4209 -0.5185 -0.2721
  130OSM      P13927   1.505   3.120   6.200  0.5262 -0.3486 -0.3571
  130OSM    O1313928   1.407   3.028   6.139  0.4675  0.0392 -0.0610
  130OSM    O1413929   1.642   3.107   6.143  0.8661  0.2214  0.1467
  130OSM    O1113930   1.508   3.092   6.359 -0.1311 -0.0153  0.1571
  130OSM    O1213931   1.459   3.277   6.189 -0.2493 -0.3661  0.4239
  130OSM    C1S13932   1.411   3.151   6.454 -0.3031 -0.0845  0.4259
  130OSM    H1S13933   1.322   3.087   6.438  0.6621 -1.9919  2.1438
  130OSM    H1T13934   1.392   3.257   6.428  1.2760  0.0060 -0.5015
  130OSM     NF13935   1.363   3.182   6.700  0.5086  0.1866  0.5503
  130OSM    HNF13936   1.381   3.259   6.760 -0.6715  1.3210 -0.4984
  130OSM    C2S13937   1.462   3.140   6.601  1.5488  0.6905 -0.1732
  130OSM    H2S13938   1.474   3.031   6.620 -0.8581  0.3303 -0.3208
  130OSM    C3S13939   1.595   3.212   6.620  0.9190  0.3652 -0.6113
  130OSM    H3S13940   1.573   3.320   6.609 -0.3242  0.0354 -1.6468
  130OSM     O313941   1.693   3.192   6.520  0.3800 -0.0540 -0.4793
  130OSM    HO313942   1.645   3.168   6.440  0.7044 -1.3255 -0.3188
  130OSM    C4S13943   1.650   3.188   6.757 -0.7188 -0.6937  0.0089
  130OSM    H4S13944   1.626   3.267   6.829 -1.8798 -2.0652  1.1842
  130OSM    C5S13945   1.730   3.089   6.796 -0.1644 -0.1825  0.4687
  130OSM    H5S13946   1.764   3.017   6.721 -1.8455  0.2415 -0.7737
  130OSM    C6S13947   1.786   3.065   6.932  0.1426 -0.1888 -0.5881
  130OSM    H6S13948   1.896   3.054   6.929  0.1156 -0.3796 -0.9694
  130OSM    H6T13949   1.752   2.962   6.956  3.1099 -1.2928 -0.7395
  130OSM    C7S13950   1.753   3.164   7.050  0.0574 -0.3439  0.7427
  130OSM    H7S13951   1.643   3.158   7.061 -0.0992  0.1146 -0.4941
  130OSM    H7T13952   1.779   3.270   7.028  0.1469  0.0637  2.5982
  130OSM    C8S13953   1.822   3.134   7.180  0.5073  0.6066 -0.0060
  130OSM    H8S13954   1.931   3.154   7.181  0.7063 -0.3135 -1.2051
  130OSM    H8T13955   1.808   3.024   7.190 -2.5310  0.7502 -1.5090
  130OSM    C9S13956   1.755   3.202   7.297 -0.0024  0.9654 -0.5121
  130OSM    H9S13957   1.646   3.204   7.274 -0.3791 -0.8907  0.8947
  130OSM    H9T13958   1.787   3.307   7.311 -0.5173  0.9981  0.5051
  130OSM   C10S13959   1.762   3.114   7.426 -0.2311 -0.3176  0.1420
  130OSM   H10S13960   1.869   3.098   7.452 -0.2240  1.1282  1.1329
  130OSM   H10T13961   1.734   3.010   7.397 -0.5148 -0.4131  0.7475
  130OSM   C11S13962   1.681   3.171   7.544 -0.5779 -0.1967  1.1797
  130OSM   H11S13963   1.573   3.177   7.519 -0.7322 -1.7308  1.4085
  130OSM   H11T13964   1.712   3.277   7.559 -1.2141  0.5867 -2.1844
  130OSM   C12S13965   1.693   3.098   7.678  0.3622 -0.1308 -0.2360
  130OSM   H12S13966   1.699   2.989   7.658  2.5481 -0.5124  1.9325
  130OSM   H12T13967   1.617   3.127   7.754  1.6858  0.9247  0.7478
  130OSM   C13S13968   1.828   3.126   7.740 -0.7648 -0.7196 -0.7670
  130OSM   H13S13969   1.821   3.235   7.760 -2.5853 -0.1368 -3.9277
  130OSM   H13T13970   1.913   3.120   7.669  0.9465 -0.4118  1.1376
  130OSM   C14S13971   1.846   3.061   7.883 -0.0055 -0.8210  0.2789
  130OSM   H14S13972   1.808   2.958   7.867 -2.0573 -0.0816  0.0386
  130OSM   H14T13973   1.772   3.108   7.951 -0.2876  0.3631 -0.8237
  130OSM   C15S13974   1.987   3.053   7.946  0.1117 -0.7579  0.3033
  130OSM   H15S13975   2.011   3.157   7.976 -0.8592 -0.9385  1.7477
  130OSM   H15T13976   2.060   3.021   7.868  0.5034 -0.7804  0.6737
  130OSM   C16S13977   1.990   2.972   8.073 -0.2864  0.5886  0.0511
  130OSM   H16S13978   2.093   2.955   8.109  0.6467 -1.3364 -3.0845
  130OSM   H16T13979   1.962   2.869   8.040 -1.9329  0.7675  0.8004
  130OSM   C17S13980   1.901   3.021   8.185 -0.3571  0.3324 -0.3235
  130OSM   H17S13981   1.903   3.132   8.180 -0.3617  0.4853  1.9485
  130OSM   H17T13982   1.955   2.991   8.277  1.8204  1.4744 -1.1538
  130OSM   C18S13983   1.762   2.953   8.182  0.0417  0.3056 -0.5634
  130OSM   H18S13984   1.712   2.962   8.083 -0.3201  1.4983 -0.2951
  130OSM   H18T13985   1.697   3.000   8.258  0.2901 -1.3119  0.7048
  130OSM   H18U13986   1.788   2.849   8.212 -1.2551  0.5193  1.4585
  130OSM    C1F13987   1.262   3.098   6.733 -0.4479  0.1851  0.3567
  130OSM     OF13988   1.233   3.008   6.658  0.2807 -0.0398  0.2759
  130OSM    C2F13989   1.195   3.121   6.861  1.1071  0.2545 -0.3251
  130OSM    H2F13990   1.278   3.155   6.927  0.8655  0.1930  0.0148
  130OSM    H2G13991   1.167   3.022   6.904  4.6872 -1.1741 -0.9566
  130OSM    C3F13992   1.062   3.213   6.847 -1.0286  0.0807  0.1080
  130OSM    H3F13993   0.993   3.153   6.784  1.6257 -1.1434 -1.8585
  130OSM    H3G13994   1.090   3.301   6.785  0.6523 -1.3704 -1.2962
  130OSM    C4F13995   1.002   3.252   6.984 -0.8997 -0.1401  0.0018
  130OSM    H4F13996   1.089   3.260   7.054 -1.0681 -0.5438  0.2613
  130OSM    H4G13997   0.933   3.172   7.017 -0.3838 -0.4723  0.3034
  130OSM    C5F13998   0.931   3.387   6.986  0.5794 -0.4253 -0.5715
  130OSM    H5F13999   0.832   3.383   6.935 -0.6201  1.3997  1.4549
  130OSM    H5G14000   0.989   3.461   6.927 -0.8448  0.7897 -0.5143
  130OSM    C6F14001   0.907   3.443   7.125  0.2721  0.3906  0.3379
  130OSM    H6F14002   1.003   3.464   7.176 -0.0845 -1.6329  1.9685
  130OSM    H6G14003   0.853   3.370   7.188 -0.6289  1.2436  0.5794
  130OSM    C7F14004   0.837   3.583   7.113  0.4933  0.4669 -0.6120
  130OSM    H7F14005   0.733   3.581   7.072 -1.1818 -4.2430  2.8795
  130OSM    H7G14006   0.913   3.640   7.056  0.3768 -1.2214 -2.5874
  130OSM    C8F14007   0.834   3.645   7.255 -0.1818  0.2463 -1.4939
  130OSM    H8F14008   0.827   3.755   7.242 -1.1410  0.2942 -0.6627
  130OSM    H8G14009   0.933   3.629   7.304 -1.0276  2.7514  1.3686
  130OSM    C9F14010   0.719   3.584   7.332  0.7613  0.1946  0.7163
  130OSM    H9F14011   0.624   3.607   7.283  1.1375 -0.6834 -0.4676
  130OSM   C10F14012   0.718   3.505   7.438 -0.2359 -0.6824 -0.1701
  130OSM   H10F14013   0.619   3.471   7.468 -1.7009  1.4922 -2.1698
  130OSM   C11F14014   0.835   3.447   7.512 -0.0175  0.7396 -0.4931
  130OSM   H11F14015   0.935   3.483   7.481  0.2713 -0.7812 -1.4272
  130OSM   H11G14016   0.852   3.339   7.494  1.6437  1.2679 -2.5498
  130OSM   C12F14017   0.808   3.467   7.668  0.0910 -0.0408  0.5394
  130OSM   H12F14018   0.887   3.401   7.709  1.8709  1.6731  0.0322
  130OSM   H12G14019   0.708   3.426   7.695  0.7984 -0.6745  2.3498
  130OSM   C13F14020   0.822   3.611   7.701  0.2370 -0.8544 -0.1920
  130OSM   H13F14021   0.737   3.671   7.661  1.1997  0.5269 -0.2449
  130OSM   H13G14022   0.916   3.640   7.650  1.5636 -1.5982  1.7155
  130OSM   C14F14023   0.845   3.636   7.857 -0.8180 -0.2949  0.0803
  130OSM   H14F14024   0.877   3.741   7.874 -0.1638 -0.4473 -0.1630
  130OSM   H14G14025   0.927   3.571   7.896  1.1042  2.8515  1.6652
  130OSM   C15F14026   0.725   3.610   7.943  0.0463  0.6449 -0.5520
  130OSM   H15F14027   0.677   3.517   7.907  1.3462  0.3934 -1.7034
  130OSM   H15G14028   0.655   3.690   7.909  0.6526  1.2007 -0.5246
  130OSM   C16F14029   0.749   3.614   8.096 -0.1792 -0.8655 -0.4396
  130OSM   H16F14030   0.646   3.630   8.135  0.3252  1.2611  0.1387
  130OSM   H16G14031   0.825   3.693   8.115  0.5029 -1.7238  0.4576
  130OSM   C17F14032   0.794   3.480   8.149 -0.2563  0.4016  0.3341
  130OSM   H17F14033   0.889   3.458   8.095 -2.0597 -0.1490 -2.8707
  130OSM   H17G14034   0.715   3.409   8.115  2.0244 -0.2847 -4.3296
  130OSM   C18F14035   0.816   3.474   8.295  0.3597 -0.0378 -0.4127
  130OSM   H18F14036   0.740   3.525   8.358  0.6724  1.8747 -1.5083
  130OSM   H18G14037   0.908   3.530   8.324  0.7809 -0.7741 -0.2768
  130OSM   H18H14038   0.825   3.371   8.337  1.7797  0.3087  0.1874
  131OSM      N14039   1.962   0.174   5.841  0.2770  0.0394  1.3299
  131OSM    C1514040   1.823   0.229   5.816 -0.2611 -0.2527 -0.1859
  131OSM   H15A14041   1.774   0.283   5.896 -0.1911  0.2736 -0.4935
  131OSM   H15B14042   1.754   0.150   5.790  0.9959 -0.7610 -2.1406
  131OSM   H15C14043   1.832   0.305   5.739  0.3552  0.3255  0.4451
  131OSM    C1414044   2.014   0.106   5.719 -0.2345  0.6488  0.7956
  131OSM   H14A14045   1.976   0.009   5.694  1.1039  0.6060 -1.3402
  131OSM   H14B14046   2.121   0.089   5.721 -0.1916  0.9458  1.3298
  131OSM   H14C14047   1.994   0.168   5.632 -0.1323 -0.7935 -0.2849
  131OSM    C1314048   2.049   0.292   5.858  0.6882 -0.4348  0.6870
  131OSM   H13A14049   2.153   0.266   5.871  1.9627  3.5035 -0.0938
  131OSM   H13B14050   2.012   0.353   5.939 -0.1421 -0.6500  0.4809
  131OSM   H13C14051   2.042   0.359   5.773  1.2432  0.4877  1.3452
  131OSM    C1214052   1.959   0.076   5.950 -0.1044  0.6161  0.0296
  131OSM   H12A14053   2.046   0.013   5.949 -0.5237  0.0148  0.5548
  131OSM   H12B14054   1.878   0.006   5.936  0.3416 -0.4774  2.4714
  131OSM    C1114055   1.950   0.132   6.087 -0.0457 -0.0015 -0.5481
  131OSM   H11A14056   2.031   0.203   6.116 -1.0683  1.6671 -1.5504
  131OSM   H11B14057   1.960   0.050   6.161  1.0812  0.2440 -0.4052
  131OSM      P14058   1.700   0.110   6.148  0.3634 -0.0048 -0.5758
  131OSM    O1314059   1.583   0.200   6.147 -0.1047  0.0630  0.7831
  131OSM    O1414060   1.703  -0.000   6.054  0.4482  0.2073 -0.0480
  131OSM    O1114061   1.756   0.067   6.291 -0.1513  0.1452  0.8436
  131OSM    O1214062   1.830   0.197   6.112  0.3175 -0.6948 -0.3485
  131OSM    C1S14063   1.795   0.165   6.388  0.1451 -0.5317 -0.4066
  131OSM    H1S14064   1.739   0.259   6.372 -0.7630 -0.9436  0.3071
  131OSM    H1T14065   1.899   0.197   6.366  0.9348 -1.2776  1.9434
  131OSM     NF14066   1.792   0.224   6.625 -0.1709  0.7517  0.5096
  131OSM    HNF14067   1.870   0.226   6.687 -0.0808 -1.2702  0.5312
  131OSM    C2S14068   1.794   0.111   6.529 -0.2339 -0.3693  0.0098
  131OSM    H2S14069   1.697   0.058   6.535 -0.7110  0.5587  0.5927
  131OSM    C3S14070   1.914   0.009   6.541  0.5240 -0.4616  0.0700
  131OSM    H3S14071   2.012   0.060   6.551  0.4628 -0.3156 -0.0871
  131OSM     O314072   1.925  -0.081   6.427 -0.4563 -0.0377 -0.2323
  131OSM    HO314073   1.861  -0.050   6.364  2.0633 -0.2463 -3.1129
  131OSM    C4S14074   1.894  -0.071   6.667  0.4069 -0.0085  0.2302
  131OSM    H4S14075   1.824  -0.155   6.656 -0.3900  0.5014  1.2634
  131OSM    C5S14076   1.980  -0.065   6.770 -0.1182  0.3470 -0.0954
  131OSM    H5S14077   2.065   0.003   6.760 -0.6535  0.7163 -3.1043
  131OSM    C6S14078   1.966  -0.142   6.895 -0.0485  0.4751 -0.1810
  131OSM    H6S14079   2.057  -0.206   6.901  0.6122  1.5316  1.6779
  131OSM    H6T14080   1.877  -0.208   6.895 -0.3779  0.9128 -0.8857
  131OSM    C7S14081   1.955  -0.038   7.009 -0.5304 -0.0660  0.9158
  131OSM    H7S14082   1.892   0.052   6.998  0.5863  0.7633  1.1247
  131OSM    H7T14083   2.049   0.020   7.021 -2.0234  2.2743  1.9787
  131OSM    C8S14084   1.930  -0.109   7.143 -0.1040  0.5520  0.1861
  131OSM    H8S14085   2.001  -0.195   7.149  1.0786  1.0019 -4.0540
  131OSM    H8T14086   1.828  -0.153   7.137  0.2614 -0.1903 -0.9621
  131OSM    C9S14087   1.954  -0.024   7.269 -0.2693 -0.1351 -0.7945
  131OSM    H9S14088   1.871   0.049   7.259 -1.9029 -1.6957  0.6686
  131OSM    H9T14089   2.052   0.028   7.267 -1.2742  1.8505 -2.2909
  131OSM   C10S14090   1.943  -0.096   7.405  0.0589 -0.3291  0.2169
  131OSM   H10S14091   2.030  -0.164   7.416 -1.3826 -2.7085 -1.9163
  131OSM   H10T14092   1.857  -0.159   7.374 -0.6878  1.7880 -2.4368
  131OSM   C11S14093   1.927   0.002   7.518  0.7180 -0.0530  0.6377
  131OSM   H11S14094   1.833   0.060   7.505  1.7088  1.4938  0.1261
  131OSM   H11T14095   2.010   0.074   7.535 -0.0926  0.4093  3.0575
  131OSM   C12S14096   1.920  -0.066   7.658  0.7674  0.0578 -0.9170
  131OSM   H12S14097   1.999  -0.143   7.666 -1.1032 -1.9601 -0.7684
  131OSM   H12T14098   1.824  -0.122   7.667  1.0442 -0.2241  0.3627
  131OSM   C13S14099   1.923   0.034   7.779 -0.1703 -0.6382 -0.4277
  131OSM   H13S14100   2.021   0.086   7.788 -1.0207  1.1189 -0.8857
  131OSM   H13T14101   1.919  -0.026   7.872  1.6105 -0.9876 -0.5284
  131OSM   C14S14102   1.818   0.134   7.800  0.1136 -0.4867  0.2483
  131OSM   H14S14103   1.719   0.096   7.833  0.5668 -1.5313  0.4534
  131OSM   H14T14104   1.804   0.186   7.704 -1.2034 -2.2508 -0.5671
  131OSM   C15S14105   1.857   0.232   7.917  0.0986  0.1657  0.1119
  131OSM   H15S14106   1.956   0.277   7.891 -0.3392  0.7616 -0.5332
  131OSM   H15T14107   1.885   0.165   8.002  2.0111 -0.1579 -0.7221
  131OSM   C16S14108   1.743   0.324   7.947 -0.2280  0.0387 -0.2980
  131OSM   H16S14109   1.651   0.270   7.977 -0.1173 -0.8626 -1.5004
  131OSM   H16T14110   1.720   0.384   7.856  0.4054 -0.8406 -1.0537
  131OSM   C17S14111   1.774   0.423   8.064  0.5239 -0.1204  0.5037
  131OSM   H17S14112   1.847   0.502   8.035 -0.3084  0.8416  0.9810
  131OSM   H17T14113   1.823   0.366   8.146  2.2879 -0.8811 -0.9961
  131OSM   C18S14114   1.647   0.502   8.112 -0.2091 -0.4717 -0.5555
  131OSM   H18S14115   1.566   0.426   8.110 -0.5416 -0.1966 -4.3602
  131OSM   H18T14116   1.615   0.570   8.030  4.5073  0.4391 -1.9285
  131OSM   H18U14117   1.669   0.549   8.211  2.6892 -2.3523 -0.1773
  131OSM    C1F14118   1.695   0.312   6.660 -0.4116 -0.0425 -0.0179
  131OSM     OF14119   1.589   0.306   6.599  0.2367 -0.2197 -0.2556
  131OSM    C2F14120   1.716   0.401   6.779 -0.1785 -0.2518  0.1691
  131OSM    H2F14121   1.692   0.506   6.753  2.1278  0.0323 -1.0090
  131OSM    H2G14122   1.819   0.384   6.818  1.2600  2.2675 -2.1739
  131OSM    C3F14123   1.617   0.374   6.895  0.6786  0.5541 -0.2395
  131OSM    H3F14124   1.629   0.270   6.931 -0.4969  1.2699  2.4915
  131OSM    H3G14125   1.512   0.366   6.859 -0.1762 -2.9339  2.4470
  131OSM    C4F14126   1.647   0.466   7.015  0.3124 -0.0573 -0.0630
  131OSM    H4F14127   1.610   0.565   6.982  1.4931  1.4054  2.7026
  131OSM    H4G14128   1.757   0.466   7.033  0.6276  0.1506 -1.7522
  131OSM    C5F14129   1.561   0.413   7.134  0.8267 -0.2165 -0.1182
  131OSM    H5F14130   1.593   0.458   7.231  1.4929  2.9386 -1.6654
  131OSM    H5G14131   1.589   0.306   7.127  1.0133 -0.0896 -1.7014
  131OSM    C6F14132   1.405   0.439   7.118  0.9484  0.8223  0.1872
  131OSM    H6F14133   1.372   0.395   7.021  1.8788  1.2487 -0.3316
  131OSM    H6G14134   1.376   0.545   7.108  1.1923  0.8105 -0.7418
  131OSM    C7F14135   1.319   0.374   7.233 -0.3974 -0.0270  0.5009
  131OSM    H7F14136   1.334   0.264   7.232  0.4473  0.0846 -0.1841
  131OSM    H7G14137   1.215   0.400   7.206  0.0961  0.7731 -0.6884
  131OSM    C8F14138   1.363   0.426   7.369 -0.2804 -0.5036  0.1886
  131OSM    H8F14139   1.376   0.536   7.364 -0.8524 -0.4115  0.5017
  131OSM    H8G14140   1.466   0.396   7.398  1.5682  3.2440 -1.7504
  131OSM    C9F14141   1.255   0.415   7.477  0.8769  0.5650 -0.4746
  131OSM    H9F14142   1.167   0.478   7.456  1.0925  1.1504  0.3103
  131OSM   C10F14143   1.243   0.337   7.590 -0.4861 -0.2269 -0.7611
  131OSM   H10F14144   1.158   0.340   7.660 -1.6671 -1.1927 -2.1221
  131OSM   C11F14145   1.349   0.237   7.635  0.0003  0.9257  0.1846
  131OSM   H11F14146   1.449   0.259   7.591 -1.0296  2.4671 -1.4671
  131OSM   H11G14147   1.328   0.128   7.621  3.7197 -0.2240  2.1540
  131OSM   C12F14148   1.383   0.271   7.779  0.4385 -0.2483 -0.5422
  131OSM   H12F14149   1.416   0.376   7.786 -1.6338  0.4125  0.2921
  131OSM   H12G14150   1.467   0.206   7.811 -0.2571 -1.1363 -0.4711
  131OSM   C13F14151   1.269   0.252   7.883 -0.8295 -0.6131 -0.2656
  131OSM   H13F14152   1.220   0.156   7.856  1.8962 -2.0504 -0.5270
  131OSM   H13G14153   1.197   0.335   7.866 -0.2121 -0.0347 -0.0966
  131OSM   C14F14154   1.323   0.256   8.031  0.4522 -0.2122  0.4514
  131OSM   H14F14155   1.339   0.362   8.060  2.0435  0.7391 -3.2902
  131OSM   H14G14156   1.426   0.215   8.027  0.3479 -0.5021  0.6972
  131OSM   C15F14157   1.227   0.188   8.138  0.2838 -0.4992  0.8124
  131OSM   H15F14158   1.202   0.087   8.098 -1.5657 -0.2311  1.2105
  131OSM   H15G14159   1.135   0.250   8.143  1.0588  0.5685  2.8500
  131OSM   C16F14160   1.286   0.169   8.279 -0.2929  0.6495 -0.3339
  131OSM   H16F14161   1.296   0.267   8.330 -0.9875  0.1940  0.7231
  131OSM   H16G14162   1.382   0.113   8.277 -0.2204  0.7866 -0.6786
  131OSM   C17F14163   1.180   0.098   8.370 -0.4760 -0.1744  0.1708
  131OSM   H17F14164   1.141   0.011   8.313  0.5327 -1.0723  0.8241
  131OSM   H17G14165   1.097   0.172   8.381 -0.5965  0.5429 -3.9415
  131OSM   C18F14166   1.239   0.031   8.496  0.2113 -0.0548  0.2308
  131OSM   H18F14167   1.279   0.106   8.567  1.8769 -0.0901 -0.6083
  131OSM   H18G14168   1.322  -0.041   8.475  2.0488  2.6181 -2.5826
  131OSM   H18H14169   1.163  -0.018   8.561  1.0658 -2.2451 -0.3252
  132OSM      N14170   3.025   3.391   6.130 -0.2516  0.2111  0.1056
  132OSM    C1514171   3.018   3.303   6.010  0.2847 -0.4437 -0.9978
  132OSM   H15A14172   3.113   3.291   5.959  0.0936 -2.7375 -0.9120
  132OSM   H15B14173   2.946   3.339   5.937 -1.2939 -0.0002  0.7103
  132OSM   H15C14174   2.991   3.201   6.031  1.1122 -0.2988  0.9773
  132OSM    C1414175   3.148   3.357   6.214 -0.7958  0.2092 -0.3332
  132OSM   H14A14176   3.155   3.426   6.297  0.4149  0.5642 -0.7115
  132OSM   H14B14177   3.240   3.354   6.158  0.0023 -2.5711  0.9753
  132OSM   H14C14178   3.135   3.256   6.250 -1.4634  0.7515  1.0363
  132OSM    C1314179   3.031   3.534   6.068 -0.1270  0.5150  0.2014
  132OSM   H13A14180   3.046   3.609   6.144  2.2924 -0.9755  1.3036
  132OSM   H13B14181   2.942   3.547   6.008  0.6385 -0.5746 -1.2553
  132OSM   H13C14182   3.116   3.544   6.003  1.1887  0.8605  1.9168
  132OSM    C1214183   2.900   3.380   6.213  0.1415 -0.1583 -0.1143
  132OSM   H12A14184   2.815   3.425   6.164 -0.2590 -1.8482 -1.0621
  132OSM   H12B14185   2.919   3.432   6.305 -4.4218 -1.1126  1.6626
  132OSM    C1114186   2.857   3.243   6.265  0.5840  0.7566  0.3142
  132OSM   H11A14187   2.792   3.253   6.354  1.7953 -0.8622  1.4198
  132OSM   H11B14188   2.937   3.185   6.314 -0.9922 -2.1620 -0.3158
  132OSM      P14189   2.655   3.168   6.125  0.2260 -0.1749  0.1108
  132OSM    O1314190   2.627   3.303   6.071  0.2884 -0.5222 -0.1009
  132OSM    O1414191   2.625   3.051   6.036 -0.0688 -0.5631 -0.0255
  132OSM    O1114192   2.591   3.147   6.267 -0.0685  0.3367 -0.3234
  132OSM    O1214193   2.802   3.159   6.163  0.1470 -0.2652  0.0874
  132OSM    C1S14194   2.606   3.016   6.325  1.2190  0.5802  0.1653
  132OSM    H1S14195   2.709   2.979   6.308  1.0771 -0.2798  1.0717
  132OSM    H1T14196   2.535   2.939   6.290  1.2296  0.6003  0.0998
  132OSM     NF14197   2.624   2.912   6.547  0.3801  0.3215 -0.1221
  132OSM    HNF14198   2.562   2.836   6.567  1.3180 -0.8800 -1.5406
  132OSM    C2S14199   2.570   3.030   6.477 -0.6399  0.6898 -0.2358
  132OSM    H2S14200   2.620   3.122   6.515  1.9527 -0.0437 -1.6530
  132OSM    C3S14201   2.414   3.060   6.492  0.4300  0.0384 -0.1601
  132OSM    H3S14202   2.370   2.970   6.444 -0.0897  1.0131 -1.5720
  132OSM     O314203   2.360   3.173   6.423 -0.0979 -0.2438  0.3573
  132OSM    HO314204   2.435   3.203   6.371  0.0577  1.8953  1.6758
  132OSM    C4S14205   2.372   3.063   6.641 -0.3198 -0.1828 -0.5707
  132OSM    H4S14206   2.338   2.966   6.678  0.8073  0.1008  1.3741
  132OSM    C5S14207   2.373   3.163   6.726  0.5044 -0.3484 -0.1484
  132OSM    H5S14208   2.417   3.260   6.697 -2.8400  1.3539 -0.0038
  132OSM    C6S14209   2.325   3.162   6.869 -0.2927  0.2145  0.0789
  132OSM    H6S14210   2.417   3.143   6.928 -0.5799 -3.4110 -0.4345
  132OSM    H6T14211   2.251   3.082   6.890  1.5312 -1.7600 -0.6359
  132OSM    C7S14212   2.247   3.294   6.904 -0.8123  0.3593 -0.4483
  132OSM    H7S14213   2.177   3.311   6.819 -1.3334  1.5546  0.1870
  132OSM    H7T14214   2.322   3.375   6.913 -0.5796  0.0123  0.8873
  132OSM    C8S14215   2.167   3.284   7.025  0.2022  0.3691 -0.5942
  132OSM    H8S14216   2.142   3.178   7.050  0.4987  0.2412 -0.8357
  132OSM    H8T14217   2.081   3.353   7.021 -0.1768 -0.1380 -1.3660
  132OSM    C9S14218   2.235   3.339   7.144 -0.3850  0.4112  0.1653
  132OSM    H9S14219   2.261   3.446   7.134 -0.1959  0.1704 -2.5099
  132OSM    H9T14220   2.334   3.293   7.165  0.4493  2.5016  1.1436
  132OSM   C10S14221   2.142   3.327   7.269  0.0082 -0.4675  0.1913
  132OSM   H10S14222   2.122   3.220   7.292 -1.3388 -0.4582 -0.8458
  132OSM   H10T14223   2.048   3.376   7.238 -0.2118 -0.9737  0.0484
  132OSM   C11S14224   2.191   3.396   7.394  0.1552  0.2778 -0.2460
  132OSM   H11S14225   2.203   3.506   7.383  0.1283  0.2489 -0.5573
  132OSM   H11T14226   2.288   3.344   7.404 -0.8531 -2.5185 -3.3228
  132OSM   C12S14227   2.106   3.372   7.518 -0.1729  0.2840  0.7924
  132OSM   H12S14228   2.080   3.266   7.539 -2.2897  0.6183  0.0135
  132OSM   H12T14229   2.011   3.420   7.488 -1.5008 -1.3461  2.2298
  132OSM   C13S14230   2.169   3.441   7.643 -0.0535 -0.0064  0.5399
  132OSM   H13S14231   2.175   3.546   7.607 -4.4116 -0.5038 -2.3253
  132OSM   H13T14232   2.272   3.403   7.663 -0.7303 -3.2665 -1.5358
  132OSM   C14S14233   2.074   3.438   7.771 -0.1168 -0.6188  1.1452
  132OSM   H14S14234   2.091   3.346   7.830  0.6630 -1.0939  0.2001
  132OSM   H14T14235   1.969   3.447   7.737  0.2465 -0.1787  0.0782
  132OSM   C15S14236   2.098   3.554   7.871 -0.2297 -0.6989  0.7997
  132OSM   H15S14237   2.208   3.552   7.890  0.3544 -0.7462 -2.1611
  132OSM   H15T14238   2.052   3.536   7.970  0.6678 -0.5518  1.2567
  132OSM   C16S14239   2.043   3.695   7.836  0.2602 -0.6936  0.2954
  132OSM   H16S14240   1.933   3.696   7.818  0.1841 -0.3977  0.7668
  132OSM   H16T14241   2.091   3.737   7.745 -0.7775 -2.3097 -1.0576
  132OSM   C17S14242   2.079   3.801   7.949 -0.0053  0.8778  0.6308
  132OSM   H17S14243   2.085   3.898   7.897 -0.2921 -0.3270 -1.8014
  132OSM   H17T14244   2.172   3.772   8.002 -0.2440 -1.8515 -0.2850
  132OSM   C18S14245   1.964   3.804   8.043  0.0635  0.2055 -0.9242
  132OSM   H18S14246   1.938   3.709   8.094 -0.3584  0.7316 -0.1476
  132OSM   H18T14247   1.867   3.815   7.989 -1.0883  0.5160  1.1093
  132OSM   H18U14248   1.972   3.878   8.125  0.3692 -0.7967 -0.0317
  132OSM    C1F14249   2.753   2.899   6.573  0.2134  0.4830 -0.2674
  132OSM     OF14250   2.835   2.972   6.527 -0.1433 -0.5691 -0.3554
  132OSM    C2F14251   2.780   2.780   6.665 -0.3050  1.1214 -0.2683
  132OSM    H2F14252   2.889   2.783   6.689 -0.7325  1.1048  1.8621
  132OSM    H2G14253   2.745   2.690   6.610  0.5281  0.5449  0.1193
  132OSM    C3F14254   2.722   2.791   6.808  0.2241  0.4684  0.0040
  132OSM    H3F14255   2.762   2.698   6.855  0.4937 -0.7449 -2.4575
  132OSM    H3G14256   2.612   2.775   6.796  0.7827 -2.1585 -2.8583
  132OSM    C4F14257   2.772   2.919   6.878  0.6159  0.4736  0.2921
  132OSM    H4F14258   2.703   3.000   6.846 -1.1394 -0.7505  0.8785
  132OSM    H4G14259   2.880   2.933   6.852  0.7369 -0.5028  0.2342
  132OSM    C5F14260   2.774   2.914   7.028 -0.0591 -0.1042  0.0676
  132OSM    H5F14261   2.805   3.009   7.076  0.2462 -0.2485  0.1542
  132OSM    H5G14262   2.840   2.833   7.064  1.4028  0.6065 -0.9391
  132OSM    C6F14263   2.631   2.876   7.090 -0.9625 -0.0262 -1.2788
  132OSM    H6F14264   2.597   2.783   7.040  1.9212 -2.1635  0.4530
  132OSM    H6G14265   2.560   2.959   7.071 -0.6544  0.3436 -0.8430
  132OSM    C7F14266   2.643   2.863   7.241  0.0301  0.0336 -0.1819
  132OSM    H7F14267   2.708   2.945   7.280 -2.0075  1.0071  1.3365
  132OSM    H7G14268   2.695   2.766   7.257 -1.3367 -0.8524 -0.9623
  132OSM    C8F14269   2.510   2.871   7.311  0.1388 -0.9134  0.1148
  132OSM    H8F14270   2.547   2.845   7.412 -1.4331 -2.0953  0.4294
  132OSM    H8G14271   2.440   2.788   7.289 -1.3144  0.2346  0.1987
  132OSM    C9F14272   2.459   3.012   7.318  0.1435 -0.3855  0.1533
  132OSM    H9F14273   2.422   3.063   7.228 -0.8807 -0.9248  0.2481
  132OSM   C10F14274   2.437   3.078   7.433  0.6020  0.4982  0.1404
  132OSM   H10F14275   2.406   3.183   7.419 -0.5600  0.2249  0.5324
  132OSM   C11F14276   2.452   3.033   7.574 -0.6441 -0.7348 -0.4236
  132OSM   H11F14277   2.562   3.026   7.593 -0.4913  0.6416 -0.6793
  132OSM   H11G14278   2.414   2.929   7.586 -0.2262 -0.8225  0.2189
  132OSM   C12F14279   2.381   3.101   7.687 -0.0212  0.3316  0.3681
  132OSM   H12F14280   2.283   3.146   7.658 -1.5338 -1.9202  1.7557
  132OSM   H12G14281   2.435   3.194   7.716  0.6397  0.4166 -1.0206
  132OSM   C13F14282   2.360   3.011   7.810 -0.6269 -0.2756  0.4308
  132OSM   H13F14283   2.313   2.911   7.799  0.8938 -1.3767  2.9859
  132OSM   H13G14284   2.282   3.060   7.873 -0.5315 -0.4087  0.6519
  132OSM   C14F14285   2.483   2.988   7.900  0.2843 -0.8806  0.2888
  132OSM   H14F14286   2.539   3.084   7.902  1.2046 -1.3010 -1.9229
  132OSM   H14G14287   2.550   2.915   7.848  1.1929 -0.0741  0.3070
  132OSM   C15F14288   2.450   2.931   8.035 -0.1759 -0.0941 -0.6241
  132OSM   H15F14289   2.368   2.857   8.027 -0.9904  0.5717  1.0222
  132OSM   H15G14290   2.417   3.006   8.111 -2.6666  0.6883 -2.3632
  132OSM   C16F14291   2.577   2.874   8.103  0.2359 -0.4409 -0.2541
  132OSM   H16F14292   2.647   2.957   8.130  1.6210 -1.5938 -0.1682
  132OSM   H16G14293   2.626   2.797   8.039 -0.9810 -1.6295  0.2060
  132OSM   C17F14294   2.547   2.800   8.230  0.9991  0.1044  0.1674
  132OSM   H17F14295   2.453   2.743   8.240 -0.2504  2.2538  1.6144
  132OSM   H17G14296   2.539   2.877   8.310  0.9617  0.4245 -0.1422
  132OSM   C18F14297   2.662   2.700   8.271  0.1455 -0.1271 -0.1405
  132OSM   H18F14298   2.657   2.658   8.374 -2.6612  1.9186  0.6845
  132OSM   H18G14299   2.764   2.746   8.269  0.6347 -1.1381  0.4849
  132OSM   H18H14300   2.668   2.612   8.204 -2.0214 -0.3831 -0.0409
  133SAPE     N14301   5.605   0.832  10.482 -0.4590  0.2119  0.2440
  133SAPE   HN114302   5.654   0.796  10.566  2.1257  0.2939 -1.1196
  133SAPE   HN214303   5.664   0.912  10.449  1.4015 -0.3360  2.0168
  133SAPE   HN314304   5.520   0.877  10.523 -0.4528 -0.0744  0.5691
  133SAPE   C1214305   5.594   0.712  10.388 -0.0495 -0.0622  0.0541
  133SAPE  H12A14306   5.598   0.737  10.280 -0.1195 -0.1964  0.0204
  133SAPE  H12B14307   5.497   0.663  10.410  0.9358 -1.8897  0.6182
  133SAPE   C1114308   5.703   0.611  10.432 -0.0878 -0.1969  0.8781
  133SAPE  H11A14309   5.793   0.671  10.408  2.2174 -3.5179  0.4671
  133SAPE  H11B14310   5.705   0.520  10.369  1.7033  1.0864 -1.0193
  133SAPE     P14311   5.586   0.483  10.636  0.1182  0.1706  0.4307
  133SAPE   O1314312   5.615   0.345  10.588  0.0426  0.4421  0.7176
  133SAPE   O1414313   5.582   0.504  10.785  0.2626 -0.2873  0.4087
  133SAPE   O1214314   5.697   0.578  10.573  0.1031  0.0847  0.0154
  133SAPE   O1114315   5.446   0.527  10.576  0.4413  0.2190 -0.3660
  133SAPE    C114316   5.340   0.436  10.544 -0.2153 -0.3876  0.6778
  133SAPE    HA14317   5.371   0.329  10.535 -2.2490 -0.9772  0.1295
  133SAPE    HB14318   5.265   0.436  10.626 -0.0166 -2.9472  0.9414
  133SAPE    C214319   5.260   0.471  10.420  0.0107 -0.6360  0.5671
  133SAPE    HS14320   5.180   0.396  10.403  0.1471 -0.1279 -2.9914
  133SAPE   O2114321   5.343   0.471  10.303  1.0434  0.2942 -0.0968
  133SAPE   C2114322   5.366   0.347  10.258 -0.5271  0.0676 -0.2149
  133SAPE   O2214323   5.323   0.246  10.313 -0.4890  0.4207  0.5194
  133SAPE   C2214324   5.453   0.348  10.125  0.6357 -0.2739  0.5924
  133SAPE   H2R14325   5.403   0.412  10.050 -0.2923 -0.8038  0.7477
  133SAPE   H2S14326   5.553   0.384  10.158  1.9943 -2.8065 -0.4839
  133SAPE    C314327   5.191   0.608  10.432  0.6306  0.0414  0.1451
  133SAPE    HX14328   5.256   0.687  10.475 -1.7924  2.1407  0.1754
  133SAPE    HY14329   5.120   0.592  10.516  1.3799  0.7627  0.9335
  133SAPE   O3114330   5.124   0.646  10.309 -0.0743 -0.4454 -0.5601
  133SAPE   C3114331   5.197   0.701  10.216 -0.4134 -0.4691 -0.1343
  133SAPE   O3214332   5.304   0.761  10.229  0.1984 -0.0233  0.6410
  133SAPE   C3214333   5.120   0.702  10.080  0.3578  0.3103 -0.1259
  133SAPE   H2X14334   5.077   0.804  10.067  0.1283  0.5212  1.9345
  133SAPE   H2Y14335   5.031   0.637  10.090  0.2509  0.3526 -0.7350
  133SAPE   C2314336   5.485   0.204  10.069 -0.5162 -0.2036 -0.3206
  133SAPE   H3R14337   5.384   0.161  10.051 -1.0208  1.4545 -1.7578
  133SAPE   H3S14338   5.545   0.140  10.136 -0.0120 -1.4132 -1.8573
  133SAPE   C2414339   5.576   0.213   9.944 -0.0143 -0.1151 -0.0942
  133SAPE   H4R14340   5.641   0.124   9.950  1.2716  0.7887 -0.1892
  133SAPE   H4S14341   5.647   0.298   9.941 -0.0037 -0.0780 -4.0882
  133SAPE   C2514342   5.501   0.195   9.817 -0.0923 -0.0788 -0.4575
  133SAPE   H5R14343   5.467   0.091   9.804  1.1815 -0.9908  2.6380
  133SAPE   C2614344   5.489   0.291   9.720 -0.3093 -0.2414  0.1346
  133SAPE   H6R14345   5.435   0.280   9.625 -2.2870 -2.1885  1.3674
  133SAPE   C2714346   5.547   0.433   9.714 -0.9560  0.2355  0.5565
  133SAPE   H7R14347   5.596   0.454   9.812  1.1698 -2.1198  0.1084
  133SAPE   H7S14348   5.462   0.503   9.708 -0.4394  0.7228 -2.3484
  133SAPE   C2814349   5.658   0.449   9.609  0.2136  0.0183  0.3303
  133SAPE   H8R14350   5.763   0.439   9.638  0.9310  1.4040 -1.5646
  133SAPE   C2914351   5.632   0.477   9.480  0.4635 -0.9550  0.5667
  133SAPE   H9R14352   5.715   0.487   9.409  1.6366 -0.5318  1.9539
  133SAPE  C21014353   5.501   0.504   9.413 -0.3100 -0.1165 -0.0126
  133SAPE  H10R14354   5.499   0.603   9.362  2.0352 -1.1299 -2.2762
  133SAPE  H10S14355   5.419   0.508   9.489  0.6682  2.9193  1.0488
  133SAPE  C21114356   5.477   0.395   9.318  0.0509  0.3889 -0.1977
  133SAPE  H11R14357   5.498   0.296   9.362  0.4661 -0.1611 -1.5578
  133SAPE  C21214358   5.436   0.401   9.193 -0.3991  0.4850 -0.0664
  133SAPE  H12R14359   5.436   0.311   9.129 -4.3800 -0.5420  1.0714
  133SAPE  C21314360   5.395   0.530   9.117  0.2990  0.9453 -0.1499
  133SAPE  H13R14361   5.347   0.606   9.182  1.4787  1.8888 -0.3472
  133SAPE  H13S14362   5.310   0.512   9.047  0.3052  2.4094 -0.5773
  133SAPE  C21414363   5.501   0.622   9.062  0.0501 -0.5006  0.0403
  133SAPE  H14R14364   5.592   0.614   9.123 -0.3846  0.9221  0.9193
  133SAPE  C21514365   5.489   0.709   8.959 -0.5016 -1.2234 -0.0045
  133SAPE  H15R14366   5.575   0.771   8.931 -2.5578  1.1843 -1.4608
  133SAPE  C21614367   5.370   0.738   8.873 -0.5117 -0.0426 -0.5192
  133SAPE  H16R14368   5.342   0.846   8.873  1.6774  0.5966  1.1080
  133SAPE  H16S14369   5.285   0.676   8.909  0.7914  0.3254  3.6718
  133SAPE  C21714370   5.403   0.729   8.723  0.1391  0.1954  1.0580
  133SAPE  H17R14371   5.453   0.633   8.696 -0.1882  0.5262 -0.8197
  133SAPE  H17S14372   5.470   0.811   8.692 -1.2482  0.9258 -0.1290
  133SAPE  C21814373   5.274   0.750   8.638  0.5093  0.1561 -0.2620
  133SAPE  H18R14374   5.252   0.858   8.627  1.8515  0.3550 -1.3171
  133SAPE  H18S14375   5.187   0.701   8.686  0.2539  0.4177 -0.4521
  133SAPE  C21914376   5.301   0.690   8.497  0.6830 -0.5724  0.2010
  133SAPE  H19R14377   5.311   0.579   8.499  1.7928 -0.5172 -1.0821
  133SAPE  H19S14378   5.399   0.737   8.471 -0.1788  1.1784 -0.0445
  133SAPE  C22014379   5.196   0.743   8.397 -0.2079  0.0049 -0.4283
  133SAPE  H20R14380   5.100   0.691   8.418 -0.8203  2.2727  3.4410
  133SAPE  H20S14381   5.221   0.711   8.294 -1.0891  0.2811 -0.7375
  133SAPE  H20T14382   5.181   0.852   8.401 -1.7429 -0.1692 -0.8156
  133SAPE   C3314383   5.199   0.656   9.953  0.8677 -0.2065 -0.3372
  133SAPE   H3X14384   5.232   0.554   9.982 -0.7829 -0.3787  1.0942
  133SAPE   H3Y14385   5.283   0.729   9.946  0.1082  0.5939 -1.4582
  133SAPE   C3414386   5.113   0.646   9.821 -0.0673  0.1024  0.0850
  133SAPE   H4X14387   5.083   0.749   9.791 -1.6512 -0.2172  0.4938
  133SAPE   H4Y14388   5.033   0.576   9.851  1.5180 -1.3302  1.1462
  133SAPE   C3514389   5.197   0.568   9.719 -0.2492 -0.0403  0.2180
  133SAPE   H5X14390   5.203   0.472   9.775 -0.1321  1.8837  3.7989
  133SAPE   H5Y14391   5.299   0.612   9.704 -0.1335  0.1466  1.4372
  133SAPE   C3614392   5.131   0.544   9.582  0.2105  1.0855  0.8682
  133SAPE   H6X14393   5.051   0.468   9.588  2.8571 -1.9208  0.7188
  133SAPE   H6Y14394   5.206   0.486   9.524 -0.3667  1.5568 -0.3796
  133SAPE   C3714395   5.094   0.671   9.496 -0.0695 -0.1933  0.2816
  133SAPE   H7X14396   5.166   0.753   9.520  0.6692 -1.0815  1.2577
  133SAPE   H7Y14397   4.989   0.698   9.520 -1.2677 -2.3522 -2.0230
  133SAPE   C3814398   5.098   0.631   9.347 -0.7864 -0.0561 -0.4156
  133SAPE   H8X14399   5.037   0.539   9.334  0.6287 -0.7759 -2.5947
  133SAPE   H8Y14400   5.204   0.609   9.322 -0.9089  0.1945 -1.1652
  133SAPE   C3914401   5.025   0.733   9.257 -0.1085  0.4486 -0.1162
  133SAPE   H9X14402   5.062   0.833   9.288 -1.4989  0.7988  0.5003
  133SAPE   H9Y14403   4.917   0.717   9.278 -0.3863  0.3225 -1.5701
  133SAPE  C31014404   5.047   0.708   9.114 -0.4067 -0.0911  0.3969
  133SAPE  H10X14405   5.153   0.685   9.090  0.8410  2.8211  2.5523
  133SAPE  H10Y14406   5.011   0.786   9.044 -2.5012  0.9763  2.5432
  133SAPE  C31114407   4.970   0.582   9.076 -0.2515  0.5822 -0.1467
  133SAPE  H11X14408   4.872   0.581   9.128  0.6702  1.0861  1.7021
  133SAPE  H11Y14409   5.019   0.494   9.122 -1.6423 -0.5919 -0.8275
  133SAPE  C31214410   4.958   0.581   8.925 -0.2465  0.5889 -0.0665
  133SAPE  H12X14411   5.056   0.552   8.882 -1.5785 -0.4047 -2.6965
  133SAPE  H12Y14412   4.921   0.673   8.876 -1.1452  0.1622 -0.2169
  133SAPE  C31314413   4.879   0.462   8.872 -0.6489  0.3204  0.3009
  133SAPE  H13X14414   4.770   0.476   8.885 -0.3770  1.0683  1.9909
  133SAPE  H13Y14415   4.902   0.367   8.925  1.5428  0.2823 -0.6144
  133SAPE  C31414416   4.922   0.436   8.721  0.1170 -0.5588 -0.2164
  133SAPE  H14X14417   5.031   0.418   8.709  0.0671  0.1147 -1.9775
  133SAPE  H14Y14418   4.897   0.523   8.658 -0.2224 -0.0774  0.5660
  133SAPE  C31514419   4.840   0.319   8.666 -1.1117 -0.2336  0.3184
  133SAPE  H15X14420   4.733   0.341   8.690 -0.8987  0.3688  0.7504
  133SAPE  H15Y14421   4.874   0.227   8.718  0.1189 -0.2318 -0.4705
  133SAPE  C31614422   4.853   0.311   8.506 -0.7350  0.0812  0.4813
  133SAPE  H16X14423   4.961   0.289   8.489  0.1227  1.4707  3.4646
  133SAPE  H16Y14424   4.834   0.410   8.459  1.8229 -0.3732 -1.7824
  133SAPE  C31714425   4.771   0.207   8.434 -0.4514  0.6993  0.2576
  133SAPE  H17X14426   4.669   0.249   8.421 -1.0336 -0.7771 -0.1205
  133SAPE  H17Y14427   4.756   0.113   8.490 -0.1959  0.0305 -0.7619
  133SAPE  C31814428   4.803   0.172   8.285  0.2933 -0.1102 -0.1136
  133SAPE  H18X14429   4.717   0.115   8.245 -0.7273  0.6900  0.8721
  133SAPE  H18Y14430   4.900   0.121   8.269  0.3035  0.1436 -0.9021
  133SAPE  H18Z14431   4.829   0.270   8.240  2.0223 -0.8160 -0.7115
  134SAPE     N14432   2.432   1.174  10.440 -0.2429 -0.1811 -0.1490
  134SAPE   HN114433   2.422   1.266  10.393  2.3595  0.6045  0.6719
  134SAPE   HN214434   2.521   1.179  10.493 -1.1966  0.8915  1.4453
  134SAPE   HN314435   2.444   1.089  10.381  0.5140 -1.1449  1.3217
  134SAPE   C1214436   2.326   1.149  10.543  0.4470 -0.1831  0.3112
  134SAPE  H12A14437   2.363   1.067  10.609  0.1754 -0.1195  0.5430
  134SAPE  H12B14438   2.239   1.111  10.487  1.3887 -1.5538 -0.2987
  134SAPE   C1114439   2.306   1.278  10.625  0.0088 -0.2445 -0.1928
  134SAPE  H11A14440   2.225   1.261  10.699  0.6068 -1.9200  0.1021
  134SAPE  H11B14441   2.271   1.359  10.557 -0.9614  2.2030  2.9431
  134SAPE     P14442   2.470   1.464  10.697  0.0278  0.0981  0.2133
  134SAPE   O1314443   2.377   1.544  10.777  0.1067 -0.2846 -0.1410
  134SAPE   O1414444   2.610   1.468  10.738 -0.2410  0.3287 -0.5113
  134SAPE   O1214445   2.425   1.310  10.691 -0.1791 -0.2277  0.3844
  134SAPE   O1114446   2.466   1.501  10.542 -0.3722  0.5759 -0.3277
  134SAPE    C114447   2.405   1.627  10.509  0.7055  0.2722  1.1096
  134SAPE    HA14448   2.301   1.635  10.547  0.2264  2.2918 -0.4354
  134SAPE    HB14449   2.469   1.710  10.544  2.0389  0.4596 -1.5154
  134SAPE    C214450   2.385   1.632  10.350  0.9375 -0.1021 -0.0809
  134SAPE    HS14451   2.306   1.558  10.324 -0.7700  1.1618  1.2880
  134SAPE   O2114452   2.510   1.603  10.288 -0.3680 -0.2250 -0.3006
  134SAPE   C2114453   2.524   1.470  10.259 -0.3466  0.3962 -0.9654
  134SAPE   O2214454   2.438   1.386  10.271 -0.4096 -0.1590 -0.3360
  134SAPE   C2214455   2.659   1.450  10.188 -0.0860  0.0525  0.6529
  134SAPE   H2R14456   2.689   1.546  10.142  0.6860  0.2972  1.6089
  134SAPE   H2S14457   2.741   1.431  10.261  0.7523  0.0140 -0.2777
  134SAPE    C314458   2.339   1.773  10.302 -0.6111 -0.1996 -0.3730
  134SAPE    HX14459   2.423   1.840  10.327 -0.7868  0.6754 -2.0132
  134SAPE    HY14460   2.244   1.798  10.355 -1.6850 -1.6192 -1.5392
  134SAPE   O3114461   2.331   1.793  10.155 -0.1428  0.2728 -0.0465
  134SAPE   C3114462   2.225   1.746  10.096 -0.4944  0.2491 -0.6012
  134SAPE   O3214463   2.123   1.710  10.143  0.0592  0.8068 -0.1478
  134SAPE   C3214464   2.250   1.745   9.942  1.3745  0.2451  0.3512
  134SAPE   H2X14465   2.360   1.735   9.932  1.3288 -2.3076  1.5804
  134SAPE   H2Y14466   2.211   1.843   9.908 -1.0266  0.1383  2.5273
  134SAPE   C2314467   2.651   1.324  10.099  0.7266 -0.2380  0.1810
  134SAPE   H3R14468   2.593   1.246  10.151 -3.4109  1.3096 -1.6336
  134SAPE   H3S14469   2.756   1.293  10.081  0.6215  0.0182 -0.9804
  134SAPE   C2414470   2.595   1.358   9.963 -0.4605 -0.5772  0.4367
  134SAPE   H4R14471   2.659   1.429   9.906 -0.4958 -1.1005 -0.2610
  134SAPE   H4S14472   2.494   1.405   9.966 -0.6106 -0.6332 -1.8732
  134SAPE   C2514473   2.582   1.232   9.890 -0.2225 -0.4862 -0.2455
  134SAPE   H5R14474   2.530   1.154   9.948  0.8090 -2.3341 -1.6589
  134SAPE   C2614475   2.643   1.206   9.773  0.9136  0.5138 -0.2188
  134SAPE   H6R14476   2.638   1.102   9.737 -0.2721 -0.8663  3.4540
  134SAPE   C2714477   2.736   1.298   9.699 -0.0354  0.4394  0.2548
  134SAPE   H7R14478   2.750   1.398   9.746 -1.1483  0.4664  0.5767
  134SAPE   H7S14479   2.689   1.323   9.602  0.2663  0.1875  0.0426
  134SAPE   C2814480   2.868   1.233   9.658  0.3664 -0.2708  0.0705
  134SAPE   H8R14481   2.907   1.186   9.749  1.4373  0.1761 -0.1412
  134SAPE   C2914482   2.931   1.210   9.538  0.8271 -0.0362  0.3578
  134SAPE   H9R14483   3.023   1.150   9.531  1.4005  1.0099 -2.0704
  134SAPE  C21014484   2.891   1.254   9.397 -0.6442 -0.5045 -0.4093
  134SAPE  H10R14485   2.972   1.321   9.361 -0.3127 -0.3437  0.6015
  134SAPE  H10S14486   2.796   1.312   9.393 -0.1827  0.2244 -2.0081
  134SAPE  C21114487   2.884   1.129   9.319 -0.0178 -0.0348  0.8091
  134SAPE  H11R14488   2.816   1.050   9.355 -0.2425 -0.7595 -1.0777
  134SAPE  C21214489   2.935   1.098   9.195  0.3735 -0.3424 -0.0393
  134SAPE  H12R14490   2.909   1.006   9.140 -1.6852  1.1284 -1.7271
  134SAPE  C21314491   3.012   1.186   9.110  0.1489 -0.6294 -0.0117
  134SAPE  H13R14492   3.075   1.127   9.040  0.6041  1.2111 -1.2238
  134SAPE  H13S14493   3.077   1.247   9.176 -1.0422 -0.4612  1.0392
  134SAPE  C21414494   2.911   1.271   9.030 -0.1683 -0.3966 -0.1220
  134SAPE  H14R14495   2.825   1.318   9.081 -1.3294 -0.4654 -1.9413
  134SAPE  C21514496   2.925   1.291   8.901 -0.0359  0.1587 -0.2137
  134SAPE  H15R14497   2.847   1.354   8.857  0.8097  0.8023 -0.8385
  134SAPE  C21614498   3.027   1.241   8.805  0.4434  0.6368  0.6163
  134SAPE  H16R14499   3.074   1.145   8.833  0.0411  0.2138 -0.1223
  134SAPE  H16S14500   3.108   1.316   8.793 -0.2330  1.2362 -0.3600
  134SAPE  C21714501   2.950   1.213   8.672 -0.0058 -0.5771 -0.5838
  134SAPE  H17R14502   2.901   1.296   8.616 -1.2363 -0.7875  0.1282
  134SAPE  H17S14503   2.867   1.144   8.698 -0.9581  0.0297 -1.8868
  134SAPE  C21814504   3.045   1.166   8.562 -0.4139  0.1655 -0.7951
  134SAPE  H18R14505   2.975   1.153   8.476 -1.6108  0.0725  0.1615
  134SAPE  H18S14506   3.091   1.069   8.588  1.6734  0.9836 -1.2470
  134SAPE  C21914507   3.152   1.268   8.516  0.2431 -0.1745 -0.8901
  134SAPE  H19R14508   3.216   1.299   8.602  0.2484  0.6892 -1.1970
  134SAPE  H19S14509   3.101   1.361   8.484 -1.5061 -1.4561 -2.0218
  134SAPE  C22014510   3.226   1.199   8.400  0.0357  0.1350 -0.1711
  134SAPE  H20R14511   3.251   1.093   8.422 -0.0673  0.1749  0.1478
  134SAPE  H20S14512   3.319   1.249   8.365 -0.9927  1.1580 -1.5582
  134SAPE  H20T14513   3.153   1.183   8.318 -0.0786  0.5984 -0.1630
  134SAPE   C3314514   2.168   1.633   9.864 -0.0288  0.1619  0.5386
  134SAPE   H3X14515   2.062   1.640   9.896  0.5470  1.1205  2.3505
  134SAPE   H3Y14516   2.181   1.530   9.904 -1.6768  0.3810  1.7424
  134SAPE   C3414517   2.176   1.635   9.709 -0.8229  0.6894  0.1538
  134SAPE   H4X14518   2.166   1.740   9.676  0.0218  0.6498 -0.2693
  134SAPE   H4Y14519   2.088   1.576   9.674 -0.3890 -0.1885  0.4909
  134SAPE   C3514520   2.303   1.579   9.651 -0.6068  0.5095 -0.3564
  134SAPE   H5X14521   2.314   1.476   9.692  0.0430  0.6732 -0.1067
  134SAPE   H5Y14522   2.400   1.630   9.669  0.1473 -0.1823 -2.2884
  134SAPE   C3614523   2.295   1.572   9.496 -0.0293  1.0780 -0.2046
  134SAPE   H6X14524   2.275   1.675   9.461 -3.1913  0.7794  0.4164
  134SAPE   H6Y14525   2.211   1.505   9.466  0.7250 -1.4804  2.8233
  134SAPE   C3714526   2.425   1.507   9.440 -0.4632 -0.0076 -0.0257
  134SAPE   H7X14527   2.446   1.408   9.487 -2.0688 -0.4515 -0.1480
  134SAPE   H7Y14528   2.500   1.583   9.470  0.0425  0.4060 -2.1492
  134SAPE   C3814529   2.424   1.505   9.286  0.1452 -0.0901 -0.0368
  134SAPE   H8X14530   2.358   1.589   9.256 -0.5392  0.1781  2.0432
  134SAPE   H8Y14531   2.377   1.408   9.256  0.5718 -0.6477  1.0475
  134SAPE   C3914532   2.552   1.513   9.211  0.2398  0.3937 -0.4529
  134SAPE   H9X14533   2.631   1.458   9.266 -0.7529 -0.5532  0.0706
  134SAPE   H9Y14534   2.586   1.618   9.204  1.9402 -0.1300 -0.6260
  134SAPE  C31014535   2.541   1.450   9.068 -0.1197 -0.1314  0.4081
  134SAPE  H10X14536   2.531   1.340   9.080 -2.2515  0.1140  1.5932
  134SAPE  H10Y14537   2.622   1.486   9.001 -1.5850  1.6998 -0.4882
  134SAPE  C31114538   2.411   1.496   8.993 -1.2069  0.4134  0.4169
  134SAPE  H11X14539   2.414   1.607   9.000 -1.1958  0.5461 -1.3285
  134SAPE  H11Y14540   2.317   1.457   9.039  0.1932 -2.2779  1.2405
  134SAPE  C31214541   2.418   1.434   8.844  1.1769 -0.0323 -0.2037
  134SAPE  H12X14542   2.401   1.325   8.842  0.9511  0.0000  0.0169
  134SAPE  H12Y14543   2.524   1.445   8.810  1.7027  1.6351  1.7373
  134SAPE  C31314544   2.307   1.503   8.760 -0.6016  0.4482 -0.2627
  134SAPE  H13X14545   2.338   1.585   8.692 -0.5931 -0.1762 -1.0226
  134SAPE  H13Y14546   2.221   1.522   8.829  0.7013 -0.9105  1.8550
  134SAPE  C31414547   2.252   1.417   8.643  0.4771  0.0009  0.0368
  134SAPE  H14X14548   2.220   1.320   8.686 -1.6943 -0.5033 -2.4740
  134SAPE  H14Y14549   2.329   1.415   8.563 -0.8171 -1.2711 -1.2333
  134SAPE  C31514550   2.129   1.489   8.571 -0.1285 -0.0573  0.0853
  134SAPE  H15X14551   2.171   1.549   8.487 -0.1915 -0.3486 -0.1544
  134SAPE  H15Y14552   2.079   1.554   8.647 -0.3317 -0.4356  0.2748
  134SAPE  C31614553   2.018   1.388   8.533  0.4498 -0.5049 -0.0530
  134SAPE  H16X14554   1.937   1.452   8.492 -0.1585 -1.1549  0.1161
  134SAPE  H16Y14555   1.963   1.339   8.616 -2.3592  1.4523 -0.6184
  134SAPE  C31714556   2.073   1.282   8.441  0.6693 -0.3037  0.3689
  134SAPE  H17X14557   2.169   1.239   8.477  1.5810  0.1034 -1.4821
  134SAPE  H17Y14558   2.106   1.322   8.343  1.6458  0.6751  1.0801
  134SAPE  C31814559   1.973   1.175   8.414  0.5739 -0.0281  0.4426
  134SAPE  H18X14560   1.926   1.127   8.502 -0.0175 -1.7820 -0.7542
  134SAPE  H18Y14561   2.022   1.094   8.355 -0.7868  0.8649 -2.0555
  134SAPE  H18Z14562   1.890   1.216   8.353  0.3559 -2.3408 -0.9587
  135SAPE     N14563   6.453   1.907  10.371 -0.5575 -0.0261  0.4245
  135SAPE   HN114564   6.547   1.946  10.391 -1.1258  1.4865  0.2561
  135SAPE   HN214565   6.396   1.991  10.347 -0.1303 -0.3299 -1.9595
  135SAPE   HN314566   6.426   1.858  10.459 -0.5556  0.6696  0.8222
  135SAPE   C1214567   6.449   1.814  10.254  0.3063  0.3590  0.5144
  135SAPE  H12A14568   6.357   1.842  10.199  0.9910 -0.8751 -1.3708
  135SAPE  H12B14569   6.426   1.713  10.294 -1.6357  0.1491 -1.0069
  135SAPE   C1114570   6.575   1.798  10.171 -0.1173  0.0305 -0.0204
  135SAPE  H11A14571   6.565   1.875  10.092 -0.1095 -0.2077 -0.2557
  135SAPE  H11B14572   6.574   1.699  10.121  2.6095  0.3726 -0.8888
  135SAPE     P14573   6.766   1.695  10.311 -0.2963  0.1130  0.1602
  135SAPE   O1314574   6.909   1.728  10.344  0.3647  0.2374 -0.2537
  135SAPE   O1414575   6.685   1.650  10.425 -0.3466 -0.1616  0.0556
  135SAPE   O1214576   6.693   1.819  10.248  0.2561  0.0596  0.1169
  135SAPE   O1114577   6.747   1.574  10.205 -0.2043  0.0967  0.5445
  135SAPE    C114578   6.868   1.514  10.161  0.2322  0.5068 -0.5573
  135SAPE    HA14579   6.962   1.540  10.214 -0.8438  1.6540  0.8620
  135SAPE    HB14580   6.853   1.406  10.178 -0.0345  0.3665 -1.5867
  135SAPE    C214581   6.877   1.509  10.007  0.2764  0.2712  0.3196
  135SAPE    HS14582   6.983   1.526   9.977  0.1826  1.8697  0.7996
  135SAPE   O2114583   6.798   1.616   9.950 -0.0461 -0.3181 -0.2142
  135SAPE   C2114584   6.846   1.744   9.951 -0.5643  0.3003 -0.1156
  135SAPE   O2214585   6.947   1.780  10.012  0.0352 -0.6791 -0.0118
  135SAPE   C2214586   6.755   1.837   9.877 -0.1587  0.0828  0.1267
  135SAPE   H2R14587   6.785   1.820   9.771  1.2922 -0.1555  0.5578
  135SAPE   H2S14588   6.650   1.811   9.905  0.4418  0.0439  2.4945
  135SAPE    C314589   6.827   1.369   9.944  0.5403  0.4428 -0.4980
  135SAPE    HX14590   6.722   1.355   9.976  1.3922 -0.7840  1.9721
  135SAPE    HY14591   6.892   1.292   9.991  1.5751  1.6798  0.1581
  135SAPE   O3114592   6.836   1.369   9.805 -0.4585 -0.0921  0.7444
  135SAPE   C3114593   6.887   1.273   9.740 -1.2474  0.6004 -0.3610
  135SAPE   O3214594   6.922   1.164   9.792 -0.0486 -0.8661 -0.2292
  135SAPE   C3214595   6.908   1.305   9.591  0.2061 -0.5241  0.1276
  135SAPE   H2X14596   6.932   1.413   9.581 -1.5130 -0.2526 -1.7549
  135SAPE   H2Y14597   6.810   1.286   9.541  0.9185 -0.9926 -1.1528
  135SAPE   C2314598   6.779   1.988   9.915  0.3816  0.2601  0.7261
  135SAPE   H3R14599   6.877   2.035   9.894 -0.9091  1.5789 -3.1393
  135SAPE   H3S14600   6.761   1.991  10.025  0.7046  1.1577  0.7613
  135SAPE   C2414601   6.674   2.085   9.854 -0.4907 -0.1059  0.0283
  135SAPE   H4R14602   6.715   2.111   9.754  3.1009  0.1099  1.4244
  135SAPE   H4S14603   6.686   2.178   9.915 -1.8321  1.9168 -2.5656
  135SAPE   C2514604   6.524   2.053   9.863 -0.1818  0.3778  0.2664
  135SAPE   H5R14605   6.474   2.066   9.960 -2.5194  2.6209 -1.1325
  135SAPE   C2614606   6.435   2.010   9.767  0.2060  0.7226 -0.2563
  135SAPE   H6R14607   6.333   1.988   9.802  1.4899 -4.7227  0.9166
  135SAPE   C2714608   6.477   1.985   9.625  0.3199  0.4721  0.6841
  135SAPE   H7R14609   6.440   1.887   9.588 -1.3269  2.3483 -3.2366
  135SAPE   H7S14610   6.588   1.985   9.614  0.2458 -2.1806 -1.2506
  135SAPE   C2814611   6.417   2.101   9.547  0.4617  0.3137  0.1249
  135SAPE   H8R14612   6.446   2.203   9.578  1.0612 -0.2692  1.5610
  135SAPE   C2914613   6.332   2.092   9.442  0.0543  0.0248  0.4882
  135SAPE   H9R14614   6.280   2.181   9.405  0.6675 -0.3215 -1.3292
  135SAPE  C21014615   6.268   1.966   9.392  0.6226 -0.9089  0.0979
  135SAPE  H10R14616   6.347   1.894   9.365  2.0785  0.2417  1.1172
  135SAPE  H10S14617   6.220   1.990   9.295 -1.7104 -0.5883  1.2469
  135SAPE  C21114618   6.169   1.913   9.496  0.2890 -0.1037 -0.5155
  135SAPE  H11R14619   6.162   1.977   9.585  0.4510  1.6118 -1.7003
  135SAPE  C21214620   6.099   1.801   9.479 -0.1997  0.1166  0.1762
  135SAPE  H12R14621   6.029   1.774   9.559 -0.4197 -1.1206 -0.4043
  135SAPE  C21314622   6.100   1.727   9.349  0.2151 -0.1821 -0.4509
  135SAPE  H13R14623   6.175   1.645   9.355 -1.5124 -1.7714  0.2118
  135SAPE  H13S14624   6.147   1.786   9.268 -1.0860 -0.2546 -1.2774
  135SAPE  C21414625   5.965   1.670   9.314 -0.0196 -0.7810 -0.2194
  135SAPE  H14R14626   5.879   1.698   9.377  0.8111  0.7192  0.3036
  135SAPE  C21514627   5.941   1.584   9.214  0.3423 -0.8835  0.2956
  135SAPE  H15R14628   5.836   1.560   9.193  0.1384 -1.3955  1.7866
  135SAPE  C21614629   6.044   1.536   9.112  0.1714  0.0178  0.0850
  135SAPE  H16R14630   6.016   1.432   9.085  1.1945  0.2743 -2.2171
  135SAPE  H16S14631   6.148   1.550   9.150 -0.8814  1.0481  2.8255
  135SAPE  C21714632   6.036   1.613   8.979 -0.4381  0.1311 -0.1564
  135SAPE  H17R14633   6.048   1.720   9.005 -1.4392 -0.0014  0.9312
  135SAPE  H17S14634   5.937   1.598   8.930 -0.6885  1.1045  0.0336
  135SAPE  C21814635   6.141   1.579   8.870  0.6988  0.9141 -0.5265
  135SAPE  H18R14636   6.118   1.631   8.775 -2.0020  2.2727  0.7653
  135SAPE  H18S14637   6.132   1.468   8.860 -0.2935  0.7421  1.6435
  135SAPE  C21914638   6.285   1.603   8.925 -0.3520  0.2050 -0.0431
  135SAPE  H19R14639   6.351   1.546   8.855 -0.5396  1.1607 -1.0332
  135SAPE  H19S14640   6.298   1.567   9.029  1.3024 -1.1808 -0.6782
  135SAPE  C22014641   6.341   1.748   8.924  0.4682  0.2991 -0.3217
  135SAPE  H20R14642   6.321   1.826   9.000 -0.4111  0.4493 -0.6987
  135SAPE  H20S14643   6.321   1.790   8.823  2.6557  0.1287 -0.8987
  135SAPE  H20T14644   6.451   1.733   8.939  0.1628 -0.4091  1.4236
  135SAPE   C3314645   7.000   1.208   9.520 -0.4649  0.3551  0.1469
  135SAPE   H3X14646   6.956   1.107   9.517 -2.0930  1.0559 -1.5442
  135SAPE   H3Y14647   7.098   1.204   9.572 -0.2430 -0.9137 -0.3376
  135SAPE   C3414648   7.028   1.243   9.366  0.1102 -0.5866 -0.4581
  135SAPE   H4X14649   7.068   1.346   9.355 -0.8942 -0.2117 -0.7605
  135SAPE   H4Y14650   6.926   1.234   9.322 -0.3649 -1.4810  0.7856
  135SAPE   C3514651   7.122   1.147   9.301 -1.1062 -0.2928  0.3673
  135SAPE   H5X14652   7.108   1.040   9.328  0.5075 -0.7000 -0.2584
  135SAPE   H5Y14653   7.221   1.179   9.338 -0.4393  1.2469 -2.4564
  135SAPE   C3614654   7.122   1.157   9.150  0.1854 -0.2804 -0.3339
  135SAPE   H6X14655   7.015   1.159   9.119 -0.2675 -0.6125  1.1207
  135SAPE   H6Y14656   7.162   1.061   9.111 -0.8203 -1.5925  1.6670
  135SAPE   C3714657   7.193   1.284   9.114 -0.3274 -0.1544  0.3920
  135SAPE   H7X14658   7.282   1.304   9.178  1.7874  3.1272 -3.0939
  135SAPE   H7Y14659   7.111   1.355   9.136  0.1099  0.4493  0.1056
  135SAPE   C3814660   7.226   1.280   8.965  0.3527 -0.7811  0.5673
  135SAPE   H8X14661   7.210   1.383   8.925 -1.7038 -0.3586  2.2534
  135SAPE   H8Y14662   7.172   1.205   8.904 -0.7770  0.1714  0.3488
  135SAPE   C3914663   7.368   1.238   8.936  0.0699  0.3066 -0.2885
  135SAPE   H9X14664   7.390   1.145   8.992  2.5695  0.8253 -0.2669
  135SAPE   H9Y14665   7.443   1.304   8.986  0.1994 -0.4927  0.5946
  135SAPE  C31014666   7.391   1.210   8.789  0.1916  0.4510  0.5807
  135SAPE  H10X14667   7.321   1.133   8.750  0.7280  1.6914 -3.2782
  135SAPE  H10Y14668   7.489   1.159   8.776  0.9929  1.4325  2.3317
  135SAPE  C31114669   7.399   1.330   8.700 -0.7791  0.3900 -0.0815
  135SAPE  H11X14670   7.478   1.402   8.732 -0.2476  0.0846 -0.6712
  135SAPE  H11Y14671   7.309   1.394   8.710 -1.0445 -0.0499  0.3419
  135SAPE  C31214672   7.431   1.277   8.550 -0.1078  0.2243 -0.0695
  135SAPE  H12X14673   7.358   1.200   8.516 -1.8524  1.3875  0.8924
  135SAPE  H12Y14674   7.529   1.226   8.551  0.2006  0.5943 -2.9832
  135SAPE  C31314675   7.425   1.398   8.448  1.0384  0.1863  0.1102
  135SAPE  H13X14676   7.465   1.494   8.488  1.0427  0.7131 -1.1289
  135SAPE  H13Y14677   7.318   1.425   8.435  1.1446  0.4904 -0.1633
  135SAPE  C31414678   7.489   1.378   8.316 -0.3171  0.0158  0.2276
  135SAPE  H14X14679   7.598   1.394   8.332 -0.4334 -0.1016  1.2440
  135SAPE  H14Y14680   7.449   1.451   8.243 -0.2913 -0.5784 -0.3840
  135SAPE  C31514681   7.475   1.234   8.265 -0.4795  0.3558  0.8433
  135SAPE  H15X14682   7.370   1.199   8.272 -0.3706 -0.1773 -0.0645
  135SAPE  H15Y14683   7.545   1.166   8.318 -0.8531 -0.8327 -0.1471
  135SAPE  C31614684   7.509   1.228   8.116 -0.3744  0.2623 -0.4942
  135SAPE  H16X14685   7.609   1.276   8.106 -0.5463  0.9439  0.8836
  135SAPE  H16Y14686   7.429   1.280   8.061 -0.9569  0.6005  0.6473
  135SAPE  C31714687   7.510   1.085   8.062 -0.2108 -0.2232 -0.1617
  135SAPE  H17X14688   7.406   1.049   8.049 -1.1079  1.3512  1.9049
  135SAPE  H17Y14689   7.562   1.015   8.132 -0.2216  0.3314  0.4148
  135SAPE  C31814690   7.594   1.082   7.930 -0.0477 -0.2899  0.0116
  135SAPE  H18X14691   7.558   1.153   7.852  1.4557  2.1290  1.3962
  135SAPE  H18Y14692   7.594   0.982   7.881  0.1890  0.4400 -1.5279
  135SAPE  H18Z14693   7.702   1.093   7.954 -0.1946 -0.9396  1.0594
  136SAPE     N14694   4.678   1.665  11.219 -0.0916  0.3058 -0.1605
  136SAPE   HN114695   4.614   1.739  11.252 -1.7114 -0.7729 -0.7640
  136SAPE   HN214696   4.622   1.580  11.198 -0.4972  0.7700 -0.9865
  136SAPE   HN314697   4.738   1.630  11.297  2.7856  1.4241 -1.7216
  136SAPE   C1214698   4.756   1.705  11.102 -0.0786  0.4382  0.0677
  136SAPE  H12A14699   4.860   1.667  11.111 -0.1978  0.2953  0.9044
  136SAPE  H12B14700   4.749   1.816  11.098  0.5335  0.4503 -3.1089
  136SAPE   C1114701   4.686   1.664  10.971  0.7145  0.6661  0.0726
  136SAPE  H11A14702   4.688   1.554  10.955  0.3082  0.4505  1.3518
  136SAPE  H11B14703   4.736   1.699  10.878 -1.7923 -1.5822 -2.2915
  136SAPE     P14704   4.439   1.636  10.891  0.1941 -0.2957  0.0893
  136SAPE   O1314705   4.455   1.493  10.905  0.3056  0.1314 -0.3934
  136SAPE   O1414706   4.315   1.696  10.939  0.2945  0.6505 -0.4216
  136SAPE   O1214707   4.555   1.710  10.966 -0.1669 -0.2505 -0.0343
  136SAPE   O1114708   4.473   1.686  10.747 -0.0401  0.2299 -0.3733
  136SAPE    C114709   4.560   1.614  10.663 -0.4750 -0.1869  0.0987
  136SAPE    HA14710   4.654   1.671  10.644 -1.1769  0.8003 -0.4638
  136SAPE    HB14711   4.583   1.507  10.682  4.1702  0.2079 -1.7613
  136SAPE    C214712   4.498   1.589  10.521  0.1442  0.0593 -0.1906
  136SAPE    HS14713   4.555   1.506  10.474  1.5032  0.3864  0.8183
  136SAPE   O2114714   4.491   1.712  10.443  0.5714  0.3548  0.5138
  136SAPE   C2114715   4.604   1.736  10.387 -0.3817 -0.7762  1.5221
  136SAPE   O2214716   4.707   1.674  10.398  0.1083  0.1740  0.2472
  136SAPE   C2214717   4.577   1.855  10.297 -0.6233 -0.4776 -0.2336
  136SAPE   H2R14718   4.486   1.836  10.237 -1.9124  0.1219  1.4638
  136SAPE   H2S14719   4.564   1.944  10.361  1.1958  0.7818 -1.4893
  136SAPE    C314720   4.352   1.543  10.541  0.0014 -0.0841 -0.3079
  136SAPE    HX14721   4.299   1.623  10.597 -1.6644 -0.9920 -0.5286
  136SAPE    HY14722   4.355   1.446  10.594 -1.9898 -0.6541 -1.1493
  136SAPE   O3114723   4.283   1.523  10.416  0.0482  0.3669  0.7195
  136SAPE   C3114724   4.180   1.442  10.430  0.3412 -0.7924 -0.3708
  136SAPE   O3214725   4.142   1.394  10.537  0.5824  0.4272  0.0279
  136SAPE   C3214726   4.118   1.404  10.299  0.0791 -0.3524 -0.6556
  136SAPE   H2X14727   4.205   1.368  10.241  1.7845 -0.9433  2.0888
  136SAPE   H2Y14728   4.069   1.481  10.235  0.7853  0.8489  0.2111
  136SAPE   C2314729   4.710   1.891  10.220  0.2122  0.4423 -0.2860
  136SAPE   H3R14730   4.721   1.811  10.144  1.1359 -0.3867  0.6886
  136SAPE   H3S14731   4.798   1.882  10.287  2.1846 -1.4792 -2.9209
  136SAPE   C2414732   4.706   2.040  10.174  0.0792 -0.2904  0.8756
  136SAPE   H4R14733   4.699   2.124  10.247 -0.2591  1.2551 -0.8544
  136SAPE   H4S14734   4.621   2.055  10.105  0.3248 -1.3730  0.3130
  136SAPE   C2514735   4.840   2.034  10.103  0.3873 -0.8843  0.6466
  136SAPE   H5R14736   4.923   2.027  10.176 -0.6197 -0.0817  1.9151
  136SAPE   C2614737   4.865   2.032   9.970  0.9900  0.1515  0.0405
  136SAPE   H6R14738   4.967   2.034   9.930  0.1348 -0.9392 -2.3994
  136SAPE   C2714739   4.765   2.033   9.857  0.4260  0.2483 -0.0336
  136SAPE   H7R14740   4.662   2.027   9.898 -0.1334 -3.0087 -1.6235
  136SAPE   H7S14741   4.775   1.933   9.810  1.5089 -0.1586  0.9888
  136SAPE   C2814742   4.791   2.147   9.761  0.4298  0.1719 -0.0575
  136SAPE   H8R14743   4.836   2.232   9.813  1.8430 -1.0687  0.8352
  136SAPE   C2914744   4.770   2.157   9.628  0.4471  0.0282  0.5376
  136SAPE   H9R14745   4.791   2.250   9.573 -0.4002  0.8103  1.4775
  136SAPE  C21014746   4.713   2.042   9.548 -0.4157  0.4537  0.5544
  136SAPE  H10R14747   4.683   1.960   9.617  1.8111 -1.4318 -0.5443
  136SAPE  H10S14748   4.802   2.001   9.495 -1.3748 -0.2263 -0.5699
  136SAPE  C21114749   4.608   2.074   9.443 -0.7852 -0.2962 -0.3309
  136SAPE  H11R14750   4.637   2.146   9.366 -1.7248 -1.1744 -1.5421
  136SAPE  C21214751   4.477   2.041   9.447  0.0695  1.1894  0.2828
  136SAPE  H12R14752   4.415   2.078   9.364  0.5687  0.1969 -0.5595
  136SAPE  C21314753   4.405   1.936   9.534  0.6161 -0.6242  0.1451
  136SAPE  H13R14754   4.436   1.947   9.640  0.8388  3.2036 -0.1913
  136SAPE  H13S14755   4.438   1.839   9.491 -0.1892 -0.8696  0.0586
  136SAPE  C21414756   4.256   1.927   9.524  0.1852 -0.6489 -0.2760
  136SAPE  H14R14757   4.200   2.021   9.540  0.0216 -0.8728  0.4781
  136SAPE  C21514758   4.188   1.816   9.486  0.2747 -0.7286  0.0544
  136SAPE  H15R14759   4.079   1.816   9.478  0.1583  0.7677  1.1758
  136SAPE  C21614760   4.238   1.681   9.459 -0.2937 -0.7589  0.1190
  136SAPE  H16R14761   4.156   1.607   9.470 -0.3951 -0.5093  1.2135
  136SAPE  H16S14762   4.322   1.650   9.526  0.6034  0.2418 -0.5129
  136SAPE  C21714763   4.279   1.655   9.310  0.3842 -0.3164 -0.2078
  136SAPE  H17R14764   4.342   1.741   9.278 -3.7132  2.0505 -2.8428
  136SAPE  H17S14765   4.193   1.682   9.245  0.9920  4.2767  0.5150
  136SAPE  C21814766   4.339   1.516   9.302  0.5917  1.5015  0.5746
  136SAPE  H18R14767   4.262   1.446   9.342  2.1328 -1.2741 -0.9878
  136SAPE  H18S14768   4.433   1.513   9.361  0.0676  1.7452  1.4481
  136SAPE  C21914769   4.361   1.465   9.160  0.4329 -0.1547  0.1574
  136SAPE  H19R14770   4.421   1.539   9.103 -1.3566  0.1386 -1.4538
  136SAPE  H19S14771   4.268   1.469   9.099  0.0899 -0.1463  0.6712
  136SAPE  C22014772   4.415   1.319   9.153  0.3087 -0.1229  0.1200
  136SAPE  H20R14773   4.499   1.301   9.223  0.2647  0.6972  0.3959
  136SAPE  H20S14774   4.453   1.297   9.051  1.4777  0.9284  0.2966
  136SAPE  H20T14775   4.334   1.248   9.178 -1.0074  2.3811  3.7614
  136SAPE   C3314776   4.015   1.289  10.318 -0.3096 -0.5525 -0.0128
  136SAPE   H3X14777   3.926   1.324  10.374  0.1285  0.7335 -0.0991
  136SAPE   H3Y14778   4.066   1.202  10.365  1.3215  1.3073  1.8802
  136SAPE   C3414779   3.965   1.229  10.186  0.1081 -0.0069  0.8235
  136SAPE   H4X14780   4.039   1.235  10.103  1.3733  1.0550  1.9875
  136SAPE   H4Y14781   3.879   1.295  10.161  1.0327  2.0452  2.7515
  136SAPE   C3514782   3.905   1.086  10.198  0.3023  0.1173 -0.3908
  136SAPE   H5X14783   3.809   1.089  10.254 -0.3272  0.0369 -1.4501
  136SAPE   H5Y14784   3.987   1.029  10.247 -0.1753  0.8648  1.3603
  136SAPE   C3614785   3.881   1.036  10.055 -0.2477 -0.1162  0.6431
  136SAPE   H6X14786   3.960   1.063   9.981  1.4503 -0.5838  2.1856
  136SAPE   H6Y14787   3.787   1.084  10.023 -1.5481 -0.6752  3.2808
  136SAPE   C3714788   3.863   0.881  10.041  0.0045 -0.0453 -0.5290
  136SAPE   H7X14789   3.826   0.849  10.141  1.3702 -3.3919 -0.9471
  136SAPE   H7Y14790   3.967   0.844  10.030  0.3610  1.1555 -1.3399
  136SAPE   C3814791   3.778   0.841   9.918 -0.0084 -0.0952  0.1203
  136SAPE   H8X14792   3.678   0.888   9.924 -0.8330 -1.5519 -1.3834
  136SAPE   H8Y14793   3.767   0.731   9.928  1.1017 -0.1498  0.8829
  136SAPE   C3914794   3.834   0.880   9.784  0.2674 -0.5718 -0.3074
  136SAPE   H9X14795   3.941   0.856   9.773  0.6701  0.4435  1.1087
  136SAPE   H9Y14796   3.829   0.989   9.762  0.1524 -0.9278 -2.3333
  136SAPE  C31014797   3.754   0.824   9.670 -0.3220  0.2178 -0.3629
  136SAPE  H10X14798   3.649   0.858   9.676 -1.0050 -1.7340 -0.3755
  136SAPE  H10Y14799   3.754   0.717   9.702  2.3528  0.6834  1.5203
  136SAPE  C31114800   3.815   0.837   9.531 -0.3496  0.1795 -0.5309
  136SAPE  H11X14801   3.918   0.796   9.521 -0.2691  0.2934 -0.1616
  136SAPE  H11Y14802   3.824   0.947   9.514  2.4663  0.1434  0.2106
  136SAPE  C31214803   3.727   0.774   9.419 -0.0635 -0.0171 -0.2796
  136SAPE  H12X14804   3.622   0.798   9.448  0.5077  0.5048  1.4684
  136SAPE  H12Y14805   3.735   0.665   9.434  1.1232 -0.0540 -1.0486
  136SAPE  C31314806   3.763   0.822   9.280  0.5460 -0.7838 -0.4942
  136SAPE  H13X14807   3.872   0.815   9.257  0.5613 -1.0778 -0.3341
  136SAPE  H13Y14808   3.734   0.929   9.270  0.1208 -0.9564 -1.2130
  136SAPE  C31414809   3.695   0.737   9.168  0.0575 -0.0093  0.4292
  136SAPE  H14X14810   3.585   0.740   9.180  0.0012 -0.2718  0.0154
  136SAPE  H14Y14811   3.737   0.637   9.196  1.1321  0.5841  1.0049
  136SAPE  C31514812   3.760   0.774   9.029 -0.4179  0.0088  0.0815
  136SAPE  H15X14813   3.868   0.749   9.036 -0.3974  0.6010  2.8135
  136SAPE  H15Y14814   3.754   0.884   9.010  1.9655  0.3416  0.8908
  136SAPE  C31614815   3.679   0.707   8.921  0.8797 -0.1772  0.2873
  136SAPE  H16X14816   3.578   0.752   8.927  1.2624  0.6411  0.8604
  136SAPE  H16Y14817   3.682   0.600   8.951  0.9939  0.1961  1.6790
  136SAPE  C31714818   3.728   0.731   8.785 -0.1189 -0.2672 -0.1132
  136SAPE  H17X14819   3.837   0.711   8.788  0.3490  1.9770 -0.4321
  136SAPE  H17Y14820   3.707   0.838   8.764  1.1435 -0.0897 -0.5620
  136SAPE  C31814821   3.649   0.641   8.698 -0.0862  0.2300  0.6118
  136SAPE  H18X14822   3.671   0.661   8.590  0.3626 -0.2977  0.5964
  136SAPE  H18Y14823   3.541   0.636   8.721 -0.3336 -0.2582 -0.5602
  136SAPE  H18Z14824   3.682   0.536   8.712 -1.2452 -0.8976 -3.5054
  137SAPE     N14825   1.825   3.498  10.748 -0.0574 -0.4475  0.9363
  137SAPE   HN114826   1.891   3.481  10.670 -0.3519 -0.8917  0.7741
  137SAPE   HN214827   1.728   3.496  10.708  0.9098 -3.9131 -1.7703
  137SAPE   HN314828   1.842   3.587  10.798 -1.3770  0.3786 -0.0160
  137SAPE   C1214829   1.805   3.361  10.812  0.3604 -1.3138  0.1451
  137SAPE  H12A14830   1.706   3.363  10.861 -0.9533  0.9584 -2.3380
  137SAPE  H12B14831   1.891   3.360  10.882  1.9079 -1.9712 -1.6611
  137SAPE   C1114832   1.828   3.248  10.712  0.7014 -0.3211 -0.5268
  137SAPE  H11A14833   1.743   3.256  10.640  0.1230 -0.3821  0.1351
  137SAPE  H11B14834   1.821   3.155  10.774 -0.9265 -0.4563 -0.8735
  137SAPE     P14835   2.099   3.224  10.734 -0.3493  0.1707  0.0417
  137SAPE   O1314836   2.133   3.320  10.840 -0.2750 -0.1560 -0.3898
  137SAPE   O1414837   2.094   3.087  10.781  0.5985  0.0199 -0.1701
  137SAPE   O1214838   1.957   3.257  10.653 -0.2609 -0.8135  0.0914
  137SAPE   O1114839   2.195   3.223  10.612 -0.1807  0.3242  0.6220
  137SAPE    C114840   2.173   3.129  10.507  0.1741 -0.1035 -0.5758
  137SAPE    HA14841   2.120   3.037  10.541 -0.4736  0.8820  1.2687
  137SAPE    HB14842   2.113   3.176  10.426 -0.3892  1.8294  0.8838
  137SAPE    C214843   2.315   3.100  10.443 -0.0387  0.2171 -0.0401
  137SAPE    HS14844   2.385   3.074  10.525  2.0938  4.4749 -0.2575
  137SAPE   O2114845   2.359   3.225  10.387 -0.0435  0.0331  0.0205
  137SAPE   C2114846   2.493   3.222  10.358 -0.0577 -0.2423  0.9545
  137SAPE   O2214847   2.566   3.134  10.398 -0.1488  0.0553 -0.5371
  137SAPE   C2214848   2.537   3.342  10.277  0.6673  0.1679  0.8126
  137SAPE   H2R14849   2.468   3.426  10.298  0.2448 -0.3167  1.4050
  137SAPE   H2S14850   2.642   3.377  10.293  1.0626  0.0409 -1.2265
  137SAPE    C314851   2.314   2.986  10.343 -0.5150 -0.2572  0.2984
  137SAPE    HX14852   2.258   2.895  10.374 -0.5069 -0.6377 -0.7645
  137SAPE    HY14853   2.418   2.947  10.352 -0.3320  0.4203  1.2617
  137SAPE   O3114854   2.260   3.012  10.211  0.0068 -0.2007 -0.6276
  137SAPE   C3114855   2.128   2.998  10.203 -0.2919 -0.2070  0.4143
  137SAPE   O3214856   2.051   2.961  10.287 -0.4032 -0.5956  0.4442
  137SAPE   C3214857   2.077   3.034  10.064  0.0750 -0.5800  0.1675
  137SAPE   H2X14858   2.023   2.945  10.025  0.5931 -0.2695 -1.3353
  137SAPE   H2Y14859   2.160   3.066   9.997  0.3154 -2.2288 -0.3624
  137SAPE   C2314860   2.526   3.312  10.123  0.2728 -0.1990 -0.3921
  137SAPE   H3R14861   2.418   3.289  10.107 -0.2928  0.5959  1.9011
  137SAPE   H3S14862   2.590   3.229  10.088  1.2812  1.0530 -1.6295
  137SAPE   C2414863   2.546   3.429  10.035 -0.3634  0.6119  0.3052
  137SAPE   H4R14864   2.482   3.509  10.076 -1.7371 -1.0230  1.4880
  137SAPE   H4S14865   2.499   3.392   9.941  1.3899  0.8140 -0.6994
  137SAPE   C2514866   2.687   3.469  10.020 -0.3894  0.9455  0.3557
  137SAPE   H5R14867   2.745   3.466  10.114 -0.2537  1.0188  0.2761
  137SAPE   C2614868   2.751   3.505   9.907  0.0358 -0.2889  0.0852
  137SAPE   H6R14869   2.853   3.543   9.926 -1.0355  2.8949  0.0833
  137SAPE   C2714870   2.693   3.521   9.765  0.1383  0.1630 -0.1289
  137SAPE   H7R14871   2.752   3.581   9.692  2.6737 -2.3285 -0.3224
  137SAPE   H7S14872   2.596   3.574   9.765  0.1101  0.1120 -0.0791
  137SAPE   C2814873   2.658   3.390   9.705 -1.2208 -0.3036  0.1890
  137SAPE   H8R14874   2.628   3.315   9.779 -0.4391  0.2045  1.0532
  137SAPE   C2914875   2.674   3.357   9.574  0.3563 -0.7292  0.0312
  137SAPE   H9R14876   2.622   3.266   9.541 -3.4665  0.4682  2.2074
  137SAPE  C21014877   2.723   3.440   9.460 -0.0594  0.1492 -0.5481
  137SAPE  H10R14878   2.748   3.369   9.378 -1.3756 -0.5402 -0.3927
  137SAPE  H10S14879   2.817   3.489   9.491 -1.2741  1.4488  1.3126
  137SAPE  C21114880   2.625   3.537   9.402 -0.4643 -0.6983  0.3759
  137SAPE  H11R14881   2.569   3.596   9.476  0.8985 -0.2514  1.0839
  137SAPE  C21214882   2.616   3.561   9.269 -0.3455 -0.1861  0.5268
  137SAPE  H12R14883   2.553   3.646   9.240 -0.3663 -0.5888 -0.6993
  137SAPE  C21314884   2.692   3.503   9.146  0.0564 -0.1499 -0.3722
  137SAPE  H13R14885   2.642   3.542   9.055  0.9696  0.3351 -0.6763
  137SAPE  H13S14886   2.693   3.392   9.138  1.3743 -0.0256 -2.7229
  137SAPE  C21414887   2.836   3.554   9.147 -0.7572  0.8197 -0.1022
  137SAPE  H14R14888   2.882   3.593   9.239 -0.7127  2.7062 -0.8848
  137SAPE  C21514889   2.906   3.569   9.026  0.5879  0.5005  0.0199
  137SAPE  H15R14890   3.013   3.594   9.036  0.4610  0.0932  3.6536
  137SAPE  C21614891   2.856   3.543   8.888  0.1356  0.7272  0.6202
  137SAPE  H16R14892   2.809   3.636   8.850  1.9489  1.9992  1.3531
  137SAPE  H16S14893   2.781   3.461   8.889  1.1290 -0.3075 -1.7265
  137SAPE  C21714894   2.967   3.496   8.782 -0.6394  0.2573 -0.8493
  137SAPE  H17R14895   2.982   3.388   8.762  3.9528  0.0056  2.3236
  137SAPE  H17S14896   3.066   3.526   8.824  0.0688 -2.4818 -0.3951
  137SAPE  C21814897   2.937   3.556   8.650 -0.2380 -0.1397 -0.3185
  137SAPE  H18R14898   2.918   3.665   8.660 -1.2948 -0.3411 -0.0123
  137SAPE  H18S14899   2.842   3.507   8.619 -0.1616 -0.4030 -0.1391
  137SAPE  C21914900   3.056   3.544   8.560  0.5136 -0.6857 -0.0855
  137SAPE  H19R14901   3.055   3.437   8.530 -3.6360 -0.4237 -1.5476
  137SAPE  H19S14902   3.146   3.566   8.622 -0.6930  1.2050  1.1041
  137SAPE  C22014903   3.067   3.637   8.442 -0.2236  0.2870  0.5423
  137SAPE  H20R14904   3.158   3.614   8.383  0.1047  0.2892  1.0386
  137SAPE  H20S14905   3.073   3.743   8.472 -2.3800  1.3513 -2.3208
  137SAPE  H20T14906   2.977   3.617   8.379  0.3409 -2.3573  0.4421
  137SAPE   C3314907   1.974   3.147  10.076 -0.9431  0.3969  0.0751
  137SAPE   H3X14908   2.035   3.236  10.105  0.5045 -0.1187 -1.2893
  137SAPE   H3Y14909   1.902   3.110  10.153 -0.0896 -0.6136  0.4127
  137SAPE   C3414910   1.905   3.181   9.943 -0.7017 -0.6546  0.0154
  137SAPE   H4X14911   1.843   3.093   9.912 -0.4924 -1.1906  1.0818
  137SAPE   H4Y14912   1.989   3.202   9.874 -0.7432 -1.0235 -0.1531
  137SAPE   C3514913   1.815   3.306   9.961 -0.3021  0.8578 -0.6726
  137SAPE   H5X14914   1.877   3.398   9.963 -1.8346  1.9170  0.9157
  137SAPE   H5Y14915   1.754   3.298  10.053  0.5805 -2.5831 -0.2713
  137SAPE   C3614916   1.718   3.331   9.840 -0.5199 -0.1676 -0.5432
  137SAPE   H6X14917   1.653   3.418   9.862 -0.2483 -0.2319  0.5727
  137SAPE   H6Y14918   1.656   3.240   9.828  0.9419 -1.3857  0.5917
  137SAPE   C3714919   1.790   3.349   9.702  0.2711 -0.1594 -0.0962
  137SAPE   H7X14920   1.865   3.267   9.696  0.7604  0.3218 -0.8256
  137SAPE   H7Y14921   1.848   3.443   9.712  0.6952 -0.5507  1.3545
  137SAPE   C3814922   1.693   3.348   9.578  0.0933 -0.1284  0.7249
  137SAPE   H8X14923   1.621   3.432   9.592 -1.2142 -0.9179 -0.8743
  137SAPE   H8Y14924   1.627   3.259   9.575 -3.0120  1.9373  1.8982
  137SAPE   C3914925   1.758   3.361   9.443  0.2135  0.7862  0.1877
  137SAPE   H9X14926   1.826   3.275   9.429 -0.3120  0.5509 -1.0636
  137SAPE   H9Y14927   1.821   3.452   9.442 -1.1361  1.7733 -1.4302
  137SAPE  C31014928   1.666   3.373   9.317  0.9249  0.0039  0.1153
  137SAPE  H10X14929   1.598   3.456   9.344 -0.1794 -0.9063  0.2293
  137SAPE  H10Y14930   1.608   3.280   9.301 -3.0940  2.4134 -0.5697
  137SAPE  C31114931   1.733   3.390   9.177 -0.2036  1.2080 -0.2661
  137SAPE  H11X14932   1.659   3.386   9.094  1.1215 -1.8659 -1.4409
  137SAPE  H11Y14933   1.791   3.297   9.162  0.6513  2.1403 -3.2330
  137SAPE  C31214934   1.817   3.512   9.147 -0.1058 -0.8584 -0.4015
  137SAPE  H12X14935   1.889   3.541   9.227 -3.8632  1.5012  2.4753
  137SAPE  H12Y14936   1.750   3.600   9.146 -2.0201 -2.2555 -0.9940
  137SAPE  C31314937   1.901   3.488   9.024  0.0559  1.2930  0.0493
  137SAPE  H13X14938   1.819   3.466   8.953 -0.5755  0.1432  1.0864
  137SAPE  H13Y14939   1.952   3.390   9.036 -1.0898  0.7704  0.8842
  137SAPE  C31414940   1.997   3.604   8.974  0.5521  0.7007 -0.1334
  137SAPE  H14X14941   2.050   3.575   8.881 -1.9972  0.8921 -1.7161
  137SAPE  H14Y14942   2.061   3.613   9.065 -0.3429 -1.8928  0.8520
  137SAPE  C31514943   1.919   3.731   8.953  0.3168 -0.2204 -0.2666
  137SAPE  H15X14944   1.982   3.818   8.984 -0.6895  0.3933  0.1038
  137SAPE  H15Y14945   1.828   3.741   9.015 -0.5797 -3.1089 -0.9899
  137SAPE  C31614946   1.882   3.734   8.802 -0.0366 -1.0306  0.4746
  137SAPE  H16X14947   1.831   3.637   8.784  1.3287 -1.6456 -0.2575
  137SAPE  H16Y14948   1.977   3.722   8.745  1.2490 -1.6566  2.6163
  137SAPE  C31714949   1.808   3.856   8.751  0.2455  1.1372  0.1556
  137SAPE  H17X14950   1.859   3.953   8.771 -2.4758  2.8880 -0.7937
  137SAPE  H17Y14951   1.705   3.864   8.792  0.4056  0.7585  0.6357
  137SAPE  C31814952   1.800   3.850   8.595  0.4578  0.5051 -0.3298
  137SAPE  H18X14953   1.744   3.759   8.569  0.2895 -0.1568  2.0788
  137SAPE  H18Y14954   1.905   3.850   8.560  0.9337 -1.4343  0.9502
  137SAPE  H18Z14955   1.749   3.944   8.566 -0.0073  2.2119  4.9225
  138SAPE     N14956   6.312   4.364  10.664  0.2478 -0.0910 -0.0635
  138SAPE   HN114957   6.332   4.448  10.605  0.7438  0.1336  0.4133
  138SAPE   HN214958   6.228   4.316  10.627  0.2505 -1.1203  1.2300
  138SAPE   HN314959   6.284   4.389  10.761 -3.1126  0.2047 -1.0023
  138SAPE   C1214960   6.430   4.278  10.641  0.4165  0.2205 -0.5909
  138SAPE  H12A14961   6.395   4.172  10.642 -0.1755  0.3505  2.4206
  138SAPE  H12B14962   6.501   4.299  10.723 -2.9009  1.6120  2.2035
  138SAPE   C1114963   6.513   4.315  10.514 -0.4103  0.1777  0.2470
  138SAPE  H11A14964   6.436   4.286  10.439  0.4852  1.2536 -1.1422
  138SAPE  H11B14965   6.604   4.256  10.489  0.2456  1.8951 -1.7685
  138SAPE     P14966   6.675   4.507  10.569 -0.4376 -0.1497  0.0951
  138SAPE   O1314967   6.656   4.651  10.606  0.0035  0.2784  0.5705
  138SAPE   O1414968   6.735   4.420  10.673 -0.1905  0.6365 -0.2852
  138SAPE   O1214969   6.536   4.458  10.513 -0.1574  0.7058 -0.3132
  138SAPE   O1114970   6.763   4.499  10.444  0.3312  0.2937 -0.5604
  138SAPE    C114971   6.711   4.512  10.313  0.0675 -0.7627  0.6178
  138SAPE    HA14972   6.796   4.498  10.244 -1.0280 -0.5984 -0.8080
  138SAPE    HB14973   6.641   4.432  10.281 -0.1955 -0.2149 -0.2192
  138SAPE    C214974   6.643   4.654  10.284 -0.0683 -0.4219  0.1097
  138SAPE    HS14975   6.592   4.690  10.376 -1.2373 -0.2844 -0.5708
  138SAPE   O2114976   6.542   4.625  10.190 -0.0324  0.0314  0.5767
  138SAPE   C2114977   6.440   4.701  10.186  0.3688  0.1412  0.7542
  138SAPE   O2214978   6.402   4.764  10.283  0.4931  0.0525 -0.3224
  138SAPE   C2214979   6.354   4.681  10.059 -0.6108  0.1613  0.3067
  138SAPE   H2R14980   6.265   4.747  10.064 -0.6893  0.2191 -1.3807
  138SAPE   H2S14981   6.418   4.721   9.978 -0.5662  0.8899  0.6975
  138SAPE    C314982   6.744   4.766  10.236  0.5494 -0.5960 -0.3764
  138SAPE    HX14983   6.818   4.768  10.319  0.4680 -2.4377 -0.2068
  138SAPE    HY14984   6.686   4.860  10.238  0.5975 -0.5282 -1.6535
  138SAPE   O3114985   6.816   4.729  10.116 -0.1642 -0.2305 -0.2987
  138SAPE   C3114986   6.757   4.770  10.011 -0.2633 -0.3641  0.0098
  138SAPE   O3214987   6.653   4.836  10.008  0.0194 -0.5580 -0.0029
  138SAPE   C3214988   6.833   4.729   9.890 -0.5373  0.2818 -0.2842
  138SAPE   H2X14989   6.848   4.620   9.898  0.4857  0.4520  0.2456
  138SAPE   H2Y14990   6.935   4.771   9.899 -0.0803 -0.8333 -0.1472
  138SAPE   C2314991   6.317   4.532  10.021  0.1222 -0.7971  0.2445
  138SAPE   H3R14992   6.221   4.498  10.065  1.1591 -2.8329  1.0772
  138SAPE   H3S14993   6.394   4.457  10.049 -0.4755 -1.8503 -0.8163
  138SAPE   C2414994   6.293   4.517   9.867  0.1343 -0.3656 -0.5732
  138SAPE   H4R14995   6.289   4.409   9.841  1.8531  0.1393 -3.2815
  138SAPE   H4S14996   6.381   4.554   9.811  1.6849  1.4114  2.7357
  138SAPE   C2514997   6.161   4.574   9.819 -0.4445  0.3308 -0.2546
  138SAPE   H5R14998   6.077   4.565   9.890 -0.8783  3.6037 -0.1831
  138SAPE   C2614999   6.137   4.629   9.698 -0.2833  0.1999 -0.0686
  138SAPE   H6R15000   6.033   4.659   9.677 -0.2189  0.8182  0.4694
  138SAPE   C2715001   6.240   4.627   9.585 -0.2483 -0.2487 -0.2407
  138SAPE   H7R15002   6.186   4.573   9.505  1.2351 -3.7069  0.8988
  138SAPE   H7S15003   6.328   4.565   9.613 -0.1249  0.8026  1.9480
  138SAPE   C2815004   6.300   4.766   9.554 -0.0672 -0.8708 -0.3878
  138SAPE   H8R15005   6.377   4.804   9.623 -1.2591  0.3774  0.3049
  138SAPE   C2915006   6.290   4.826   9.435  0.2776 -0.4932 -0.7266
  138SAPE   H9R15007   6.348   4.920   9.435 -2.1822  1.1473  1.6680
  138SAPE  C21015008   6.221   4.770   9.309  0.0364 -0.7102 -0.1119
  138SAPE  H10R15009   6.121   4.727   9.335  0.8465 -3.0811 -0.6384
  138SAPE  H10S15010   6.285   4.695   9.258 -1.2301 -1.9852  0.0768
  138SAPE  C21115011   6.211   4.885   9.213  0.1704 -0.1185  0.3371
  138SAPE  H11R15012   6.277   4.972   9.226  0.2400 -0.1728  0.3486
  138SAPE  C21215013   6.113   4.905   9.117 -0.1063 -0.7731 -0.1159
  138SAPE  H12R15014   6.121   4.994   9.053  1.4212  0.8582  2.1929
  138SAPE  C21315015   5.998   4.824   9.074  0.1947  0.0660 -0.3753
  138SAPE  H13R15016   5.913   4.892   9.050 -0.2641 -1.2402 -2.8062
  138SAPE  H13S15017   5.962   4.751   9.150 -0.2641  0.0550 -0.5967
  138SAPE  C21415018   6.024   4.754   8.946  0.2163 -0.6232 -0.3229
  138SAPE  H14R15019   6.129   4.728   8.929  0.6216  0.7564 -0.0193
  138SAPE  C21515020   5.929   4.724   8.857 -0.4561  0.4129  0.4493
  138SAPE  H15R15021   5.959   4.675   8.763  1.1027  1.0098  0.6027
  138SAPE  C21615022   5.786   4.743   8.870 -0.1583 -0.1669 -0.2333
  138SAPE  H16R15023   5.750   4.723   8.973 -0.0222 -1.4880 -0.4264
  138SAPE  H16S15024   5.739   4.662   8.810  0.3905 -0.9610  0.3805
  138SAPE  C21715025   5.727   4.875   8.817 -0.3041  0.4075  0.2148
  138SAPE  H17R15026   5.810   4.946   8.794  1.1347 -1.7979 -1.8921
  138SAPE  H17S15027   5.660   4.916   8.895 -0.4730  0.5515 -0.0061
  138SAPE  C21815028   5.639   4.853   8.693 -0.4832 -0.1272  0.5353
  138SAPE  H18R15029   5.570   4.768   8.709  0.5024 -0.9277  0.6367
  138SAPE  H18S15030   5.704   4.813   8.612 -0.9219  0.2275 -0.0018
  138SAPE  C21915031   5.548   4.969   8.644  0.1155  0.1362 -0.0364
  138SAPE  H19R15032   5.497   4.925   8.555  2.2165  1.4882 -2.0170
  138SAPE  H19S15033   5.608   5.054   8.604  0.0691  0.5528  0.7665
  138SAPE  C22015034   5.433   5.004   8.739  0.2555 -0.2658  0.5167
  138SAPE  H20R15035   5.448   5.080   8.819 -2.1625  2.4575 -1.4208
  138SAPE  H20S15036   5.400   4.903   8.772  1.4830 -0.3365  1.6447
  138SAPE  H20T15037   5.347   5.044   8.681 -0.3732 -2.8358 -0.4712
  138SAPE   C3315038   6.747   4.768   9.766 -0.2580  0.9921 -0.2352
  138SAPE   H3X15039   6.742   4.879   9.771  0.7678  1.3514 -3.9782
  138SAPE   H3Y15040   6.642   4.735   9.775  0.4906 -1.1431  1.8070
  138SAPE   C3415041   6.824   4.740   9.628 -0.0976 -0.2156  0.1972
  138SAPE   H4X15042   6.845   4.631   9.615 -0.9862 -0.1024 -3.2225
  138SAPE   H4Y15043   6.923   4.786   9.610 -0.0894 -0.3561 -0.1282
  138SAPE   C3515044   6.738   4.808   9.515 -0.0638 -0.5555  0.0298
  138SAPE   H5X15045   6.771   4.913   9.496 -0.5838 -0.5876 -1.1156
  138SAPE   H5Y15046   6.628   4.811   9.524 -0.0829 -1.8274  0.4107
  138SAPE   C3615047   6.758   4.727   9.392  0.3064  0.5027 -0.7199
  138SAPE   H6X15048   6.751   4.618   9.416  1.0569  0.4537 -0.7082
  138SAPE   H6Y15049   6.861   4.759   9.366  0.2168  0.8378 -0.6614
  138SAPE   C3715050   6.675   4.757   9.265  0.1559 -0.5560 -0.1000
  138SAPE   H7X15051   6.572   4.723   9.289  0.2880  0.0675  1.4181
  138SAPE   H7Y15052   6.719   4.687   9.190  1.4288 -0.8673  0.9100
  138SAPE   C3815053   6.675   4.898   9.199 -0.3268 -0.1110 -1.2872
  138SAPE   H8X15054   6.782   4.915   9.178  0.3070 -0.1594  1.4698
  138SAPE   H8Y15055   6.646   4.969   9.279  0.8051 -0.5548 -0.4554
  138SAPE   C3915056   6.581   4.912   9.084 -0.6742  0.1654 -0.0985
  138SAPE   H9X15057   6.560   5.019   9.061 -2.2522 -0.1172 -0.0678
  138SAPE   H9Y15058   6.488   4.862   9.119 -0.1384 -0.6802  0.1490
  138SAPE  C31015059   6.634   4.857   8.950 -0.0947  0.9859  1.0226
  138SAPE  H10X15060   6.649   4.747   8.962  4.8833  1.2023 -0.8126
  138SAPE  H10Y15061   6.739   4.892   8.934 -0.0973  0.5152 -0.0943
  138SAPE  C31115062   6.548   4.891   8.830 -0.5676 -0.6872  0.5803
  138SAPE  H11X15063   6.555   5.001   8.818  0.4632 -0.8334 -0.3074
  138SAPE  H11Y15064   6.446   4.858   8.859  0.3789 -3.6529  0.8736
  138SAPE  C31215065   6.601   4.827   8.708  0.5800 -0.0115 -0.2538
  138SAPE  H12X15066   6.702   4.862   8.676  0.4115 -0.4887 -1.3790
  138SAPE  H12Y15067   6.538   4.867   8.626  1.2225  3.8818  0.9515
  138SAPE  C31315068   6.606   4.665   8.701 -0.2539 -0.1102 -0.2027
  138SAPE  H13X15069   6.665   4.631   8.789 -0.6425  1.1220  0.5567
  138SAPE  H13Y15070   6.658   4.631   8.609 -2.0026  0.3940 -1.4366
  138SAPE  C31415071   6.465   4.599   8.703 -0.3943 -0.0731 -0.3796
  138SAPE  H14X15072   6.418   4.627   8.607 -0.3978 -2.1001 -1.0155
  138SAPE  H14Y15073   6.412   4.637   8.793  1.6215  2.8598 -0.2758
  138SAPE  C31515074   6.464   4.444   8.707  0.0610 -0.3229  0.5616
  138SAPE  H15X15075   6.518   4.407   8.797  0.0990 -0.8578  0.3194
  138SAPE  H15Y15076   6.512   4.399   8.618 -1.0783  0.1570 -0.3138
  138SAPE  C31615077   6.317   4.402   8.689 -0.7327  0.0420  0.2811
  138SAPE  H16X15078   6.274   4.435   8.592 -3.9723  0.0645  1.5952
  138SAPE  H16Y15079   6.254   4.446   8.769 -0.6700  0.4561  0.1030
  138SAPE  C31715080   6.296   4.249   8.693 -0.6750  0.2042  0.0842
  138SAPE  H17X15081   6.338   4.204   8.786  0.1403  1.5731  0.4147
  138SAPE  H17Y15082   6.357   4.209   8.608 -2.5908  1.5997 -2.0410
  138SAPE  C31815083   6.153   4.209   8.690 -0.7224 -0.5068 -0.3315
  138SAPE  H18X15084   6.102   4.249   8.780 -0.9326  1.4333 -1.2636
  138SAPE  H18Y15085   6.138   4.099   8.678 -0.4768 -0.6062  0.2330
  138SAPE  H18Z15086   6.109   4.251   8.597  0.0860 -1.4633 -1.1857
  139SAPE     N15087   6.656   2.586  10.514  0.0442 -0.0309  0.0525
  139SAPE   HN115088   6.619   2.504  10.463 -1.4183  0.7321 -0.1573
  139SAPE   HN215089   6.617   2.671  10.467 -0.4203  1.2875  2.6551
  139SAPE   HN315090   6.758   2.593  10.493  0.2336  0.3667  1.0314
  139SAPE   C1215091   6.621   2.572  10.658  0.8280  0.1993 -0.6008
  139SAPE  H12A15092   6.638   2.668  10.710  0.8351 -0.2401  0.2189
  139SAPE  H12B15093   6.696   2.501  10.697 -0.5551  0.6029  3.1476
  139SAPE   C1115094   6.482   2.514  10.695 -0.3141  0.1355 -0.0332
  139SAPE  H11A15095   6.493   2.468  10.796 -1.1507  0.3978  0.1788
  139SAPE  H11B15096   6.449   2.431  10.629 -1.3598 -1.4301  2.3237
  139SAPE     P15097   6.245   2.597  10.622 -0.2875  0.1792 -0.0797
  139SAPE   O1315098   6.188   2.470  10.667 -0.5693 -0.5534 -0.0632
  139SAPE   O1415099   6.173   2.721  10.656  0.2885 -0.0922 -0.0966
  139SAPE   O1215100   6.383   2.617  10.694  0.0068 -0.0203 -0.5776
  139SAPE   O1115101   6.279   2.579  10.464 -0.0783  0.3238 -0.2977
  139SAPE    C115102   6.216   2.650  10.358  0.0944  0.4417 -0.3569
  139SAPE    HA15103   6.181   2.749  10.395  0.6127 -0.1851  2.0013
  139SAPE    HB15104   6.288   2.680  10.279 -0.1201 -0.1389 -0.7755
  139SAPE    C215105   6.102   2.568  10.295  1.2279  0.3526  0.5948
  139SAPE    HS15106   6.023   2.545  10.371  1.2054  1.1114  0.8023
  139SAPE   O2115107   6.166   2.448  10.246 -0.3940  0.1325 -0.0482
  139SAPE   C2115108   6.078   2.354  10.201 -0.1624 -0.1380 -0.5943
  139SAPE   O2215109   5.961   2.356  10.217  0.0817 -0.0089  0.5413
  139SAPE   C2215110   6.165   2.241  10.142 -0.2347 -0.0186 -0.4758
  139SAPE   H2R15111   6.265   2.280  10.112 -0.5473  0.9219 -0.3404
  139SAPE   H2S15112   6.180   2.170  10.226 -1.6991  2.1026  1.6990
  139SAPE    C315113   6.035   2.646  10.181  0.3952 -0.3581  0.5070
  139SAPE    HX15114   6.008   2.750  10.208 -2.0533 -0.3272 -1.6373
  139SAPE    HY15115   5.938   2.596  10.158 -0.1280  1.0515 -0.5202
  139SAPE   O3115116   6.124   2.647  10.064  0.8186 -0.2667 -0.5615
  139SAPE   C3115117   6.099   2.742   9.976 -0.9037 -0.0482  0.6054
  139SAPE   O3215118   6.011   2.822   9.983  0.4162 -0.0147 -0.2550
  139SAPE   C3215119   6.181   2.716   9.843  0.7221  0.3801 -0.2136
  139SAPE   H2X15120   6.223   2.613   9.836 -0.9434 -0.3143 -0.5137
  139SAPE   H2Y15121   6.269   2.784   9.850  0.5424  0.5418  0.5663
  139SAPE   C2315122   6.102   2.151  10.034  0.4300 -0.3919  0.0187
  139SAPE   H3R15123   5.992   2.146  10.048  0.0392  0.0848 -2.3391
  139SAPE   H3S15124   6.145   2.049  10.040  0.1193 -0.5283 -0.0402
  139SAPE   C2415125   6.112   2.206   9.892 -0.2246  0.0455  0.4725
  139SAPE   H4R15126   6.065   2.139   9.816 -1.8438  0.0258  1.4378
  139SAPE   H4S15127   6.220   2.204   9.867  0.2764  0.6414  2.4073
  139SAPE   C2515128   6.068   2.344   9.862  0.1678 -0.0878 -0.1659
  139SAPE   H5R15129   6.138   2.427   9.880 -2.9409  3.1096 -1.7599
  139SAPE   C2615130   5.939   2.386   9.827  0.3411 -0.2757 -0.3579
  139SAPE   H6R15131   5.912   2.492   9.813 -4.3856 -0.6193  3.4229
  139SAPE   C2715132   5.821   2.300   9.803 -0.6241  0.0821  0.6288
  139SAPE   H7R15133   5.779   2.277   9.903 -2.5509  1.3857  0.1581
  139SAPE   H7S15134   5.853   2.199   9.769  1.2319  1.2279 -1.2590
  139SAPE   C2815135   5.708   2.345   9.714  0.0827 -0.5237  0.4796
  139SAPE   H8R15136   5.614   2.347   9.771  0.8075  1.5979  1.7312
  139SAPE   C2915137   5.711   2.366   9.582 -0.2664  0.5880  0.3299
  139SAPE   H9R15138   5.620   2.392   9.527  0.1844  1.0797 -0.1986
  139SAPE  C21015139   5.833   2.338   9.503 -0.0201  0.0864 -0.0232
  139SAPE  H10R15140   5.843   2.228   9.492 -0.5472 -0.1540  1.5402
  139SAPE  H10S15141   5.914   2.373   9.571 -1.1185  0.8381  0.9666
  139SAPE  C21115142   5.853   2.397   9.369 -0.4359  0.1010 -0.0687
  139SAPE  H11R15143   5.791   2.487   9.351 -0.4310  0.1965  0.3968
  139SAPE  C21215144   5.933   2.350   9.268 -0.0677  0.4922  0.2738
  139SAPE  H12R15145   5.922   2.410   9.177  3.7381  3.1186  1.3331
  139SAPE  C21315146   6.022   2.227   9.261  0.6262  0.4966 -0.0356
  139SAPE  H13R15147   6.069   2.209   9.360 -1.2833  1.6841  1.1454
  139SAPE  H13S15148   6.113   2.237   9.198  0.9657  0.4795  0.4425
  139SAPE  C21415149   5.953   2.105   9.219 -0.0756  0.8750 -0.5949
  139SAPE  H14R15150   5.907   2.045   9.299 -0.7160  0.5223 -1.2183
  139SAPE  C21515151   5.947   2.052   9.091 -0.1075  0.1663 -0.3116
  139SAPE  H15R15152   5.892   1.958   9.083  0.2067 -0.7065  4.6569
  139SAPE  C21615153   6.015   2.104   8.972 -0.1204 -0.8100  0.1649
  139SAPE  H16R15154   6.097   2.173   9.000  0.2537 -1.1261 -0.1285
  139SAPE  H16S15155   5.947   2.165   8.909 -0.8843 -0.4966  1.2701
  139SAPE  C21715156   6.084   1.992   8.902 -0.1926  0.5857 -0.1292
  139SAPE  H17R15157   6.012   1.911   8.880 -0.4620  0.7622  0.1072
  139SAPE  H17S15158   6.180   1.961   8.948  0.6802  1.0850 -1.5173
  139SAPE  C21815159   6.122   2.036   8.762  0.5147  0.0389 -0.3731
  139SAPE  H18R15160   6.180   1.951   8.722 -1.1103 -0.9449 -0.7284
  139SAPE  H18S15161   6.200   2.115   8.764 -0.5286  1.1105  1.5651
  139SAPE  C21915162   6.014   2.091   8.663  0.7720 -0.2778  0.2994
  139SAPE  H19R15163   5.992   2.191   8.704  1.0812  0.7406 -1.8811
  139SAPE  H19S15164   5.931   2.017   8.654  0.0521  0.5882 -0.2593
  139SAPE  C22015165   6.070   2.116   8.521 -0.2921  0.7669  0.1677
  139SAPE  H20R15166   6.024   2.204   8.472 -0.0007 -0.1135 -1.7941
  139SAPE  H20S15167   6.043   2.031   8.455 -1.4162 -0.0830  1.6452
  139SAPE  H20T15168   6.178   2.137   8.534 -0.3870  0.3838  1.9288
  139SAPE   C3315169   6.102   2.734   9.713 -0.2973 -0.0586 -0.1827
  139SAPE   H3X15170   6.108   2.842   9.685 -2.3696  0.2273  0.3040
  139SAPE   H3Y15171   5.996   2.702   9.720 -0.2544  0.1398  2.0833
  139SAPE   C3415172   6.177   2.656   9.603 -0.7320 -0.4422 -0.6680
  139SAPE   H4X15173   6.178   2.550   9.636  2.0515 -0.5639 -0.9426
  139SAPE   H4Y15174   6.278   2.699   9.618 -1.3921  0.6576  0.8806
  139SAPE   C3515175   6.130   2.680   9.458  0.1587 -0.1693  0.1598
  139SAPE   H5X15176   6.127   2.788   9.431 -1.7399 -0.2359  0.0060
  139SAPE   H5Y15177   6.038   2.620   9.443  0.6980 -1.0528  0.3200
  139SAPE   C3615178   6.226   2.596   9.365  0.0248 -0.5856 -0.0849
  139SAPE   H6X15179   6.210   2.493   9.402 -0.5297 -0.4834 -0.0166
  139SAPE   H6Y15180   6.329   2.631   9.385 -0.1685  1.1664 -1.7401
  139SAPE   C3715181   6.204   2.590   9.209 -0.0602 -0.2317 -0.4749
  139SAPE   H7X15182   6.210   2.692   9.166 -1.6771 -0.2263 -0.7613
  139SAPE   H7Y15183   6.097   2.564   9.194 -0.3767 -0.5502  1.9336
  139SAPE   C3815184   6.301   2.497   9.134 -0.0446 -0.0918  0.1803
  139SAPE   H8X15185   6.283   2.391   9.162  0.9611 -0.2502  0.2609
  139SAPE   H8Y15186   6.402   2.519   9.174  0.0314 -0.2591  0.0789
  139SAPE   C3915187   6.305   2.511   8.983 -0.0325  0.0827  0.5583
  139SAPE   H9X15188   6.387   2.447   8.943 -0.6790 -0.1430 -0.4286
  139SAPE   H9Y15189   6.333   2.618   8.968  2.1347 -0.2456  1.8425
  139SAPE  C31015190   6.168   2.487   8.919 -0.2754  0.6003 -0.1519
  139SAPE  H10X15191   6.090   2.555   8.961 -0.8804 -0.2802  0.1777
  139SAPE  H10Y15192   6.143   2.381   8.942  3.2012 -0.7402 -1.8793
  139SAPE  C31115193   6.168   2.505   8.771 -0.5543 -0.2353  0.2890
  139SAPE  H11X15194   6.232   2.429   8.722  0.0980  0.6678 -0.2827
  139SAPE  H11Y15195   6.221   2.601   8.755  0.5316 -0.5751  1.6650
  139SAPE  C31215196   6.022   2.510   8.699 -0.2139  0.8943 -0.1661
  139SAPE  H12X15197   5.961   2.598   8.730  0.9301  1.3598  0.8167
  139SAPE  H12Y15198   5.977   2.412   8.726 -0.1587  0.3471 -1.9152
  139SAPE  C31315199   6.044   2.532   8.550  0.4105  0.6005 -0.0119
  139SAPE  H13X15200   5.953   2.499   8.496  0.9299 -0.6934 -0.1354
  139SAPE  H13Y15201   6.126   2.465   8.517 -0.8480 -1.6330  1.1678
  139SAPE  C31415202   6.064   2.673   8.508 -0.1460 -0.7922 -0.1870
  139SAPE  H14X15203   6.116   2.725   8.592 -1.1718  1.1991 -0.7245
  139SAPE  H14Y15204   5.969   2.728   8.490 -0.1528 -1.3134 -1.9710
  139SAPE  C31515205   6.164   2.683   8.386  0.3708  0.7106  0.3285
  139SAPE  H15X15206   6.115   2.631   8.301  0.0529 -1.2526  1.6408
  139SAPE  H15Y15207   6.259   2.629   8.407  0.6721  0.6656 -1.0980
  139SAPE  C31615208   6.194   2.832   8.362  0.2706 -0.2571 -0.3734
  139SAPE  H16X15209   6.209   2.877   8.462  0.4317 -0.6798 -0.2068
  139SAPE  H16Y15210   6.279   2.825   8.291  0.1993  1.4874 -0.6780
  139SAPE  C31715211   6.083   2.927   8.303 -0.3833  0.3963 -0.0611
  139SAPE  H17X15212   6.004   2.929   8.381  1.3916  0.6261  1.7985
  139SAPE  H17Y15213   6.043   2.891   8.205 -0.2051  1.5014 -0.5569
  139SAPE  C31815214   6.128   3.064   8.273  0.9957 -0.2897  0.6287
  139SAPE  H18X15215   6.048   3.130   8.234  1.9114  0.6798  0.3376
  139SAPE  H18Y15216   6.215   3.065   8.203  1.2942 -1.0246  0.9813
  139SAPE  H18Z15217   6.161   3.111   8.368  2.3889 -0.0645  0.0704
  140SAPE     N15218   0.855   6.744  10.775  0.9901 -0.7288  0.6139
  140SAPE   HN115219   0.773   6.748  10.711  0.5198  1.6607  1.2465
  140SAPE   HN215220   0.913   6.827  10.749  0.0945 -0.6051 -1.0604
  140SAPE   HN315221   0.901   6.653  10.756  0.8844 -0.7087  0.2640
  140SAPE   C1215222   0.811   6.764  10.917  0.0971  0.1313  0.1609
  140SAPE  H12A15223   0.766   6.668  10.951  0.8639 -0.1022  0.5531
  140SAPE  H12B15224   0.743   6.852  10.918  0.0168  0.1280 -1.8686
  140SAPE   C1115225   0.936   6.773  11.001 -0.7519  0.4932  0.5679
  140SAPE  H11A15226   0.912   6.788  11.108  0.1224 -1.3445  1.0718
  140SAPE  H11B15227   1.001   6.850  10.954 -0.3917 -1.2706 -2.1064
  140SAPE     P15228   1.166   6.651  11.007  0.0431  0.3315 -0.0837
  140SAPE   O1315229   1.217   6.783  11.055  0.7110  0.0838  0.0405
  140SAPE   O1415230   1.208   6.535  11.084 -0.1546 -0.4520  0.6488
  140SAPE   O1215231   1.000   6.643  11.004  0.0190 -0.0119  0.4958
  140SAPE   O1115232   1.209   6.627  10.852 -0.5544  0.1806  0.1748
  140SAPE    C115233   1.338   6.575  10.827  0.3012 -0.2870  0.6982
  140SAPE    HA15234   1.395   6.559  10.921  0.0112  0.7866  1.0735
  140SAPE    HB15235   1.330   6.475  10.779  1.2250 -0.9059  1.7652
  140SAPE    C215236   1.411   6.672  10.727 -0.7919  0.1964 -0.3752
  140SAPE    HS15237   1.413   6.775  10.768 -2.6968  0.9028 -1.9363
  140SAPE   O2115238   1.343   6.664  10.599  0.2320 -0.0152  0.2708
  140SAPE   C2115239   1.377   6.762  10.511 -0.2833  0.4669  0.1794
  140SAPE   O2215240   1.447   6.854  10.539 -0.1167 -0.4501  0.2791
  140SAPE   C2215241   1.294   6.744  10.381 -0.3135 -0.4431  0.7802
  140SAPE   H2R15242   1.327   6.644  10.347 -1.2851  0.1219 -2.0999
  140SAPE   H2S15243   1.189   6.743  10.417 -0.2806 -1.7600  0.8804
  140SAPE    C315244   1.559   6.632  10.707  0.8745 -0.1401 -0.0725
  140SAPE    HX15245   1.609   6.613  10.805  0.1086  0.7532  0.4989
  140SAPE    HY15246   1.604   6.718  10.654 -2.1773  2.0020  0.6202
  140SAPE   O3115247   1.563   6.508  10.639  0.3160 -0.5259 -0.4992
  140SAPE   C3115248   1.595   6.499  10.511  0.1640  0.4278  0.2407
  140SAPE   O3215249   1.607   6.597  10.441 -0.2234  0.4073  0.4274
  140SAPE   C3215250   1.614   6.362  10.459 -0.7437  0.0048  0.1691
  140SAPE   H2X15251   1.514   6.316  10.469 -0.9318  0.6164  1.3642
  140SAPE   H2Y15252   1.680   6.307  10.531 -1.2176 -1.1537 -0.2590
  140SAPE   C2315253   1.322   6.853  10.285 -0.2776 -0.4999  0.4827
  140SAPE   H3R15254   1.319   6.952  10.334  1.8635 -1.0801  1.9353
  140SAPE   H3S15255   1.247   6.847  10.202 -1.5393  1.6616  1.3972
  140SAPE   C2415256   1.459   6.851  10.215 -0.6934  0.1770  0.8280
  140SAPE   H4R15257   1.521   6.884  10.300 -1.2795 -1.5208  1.9586
  140SAPE   H4S15258   1.459   6.935  10.142  2.4953 -0.2958  0.1444
  140SAPE   C2515259   1.517   6.719  10.150  0.0940 -0.3930 -0.3887
  140SAPE   H5R15260   1.542   6.637  10.219 -2.7195 -0.0442  1.2002
  140SAPE   C2615261   1.534   6.696  10.020  0.4105  0.5578  0.0249
  140SAPE   H6R15262   1.581   6.601   9.992 -0.8318  0.6349 -2.6514
  140SAPE   C2715263   1.514   6.789   9.901  0.2671 -0.1189 -0.1665
  140SAPE   H7R15264   1.447   6.870   9.936 -0.5614 -1.7575  2.3005
  140SAPE   H7S15265   1.463   6.728   9.824  0.6111 -1.6385  0.7644
  140SAPE   C2815266   1.656   6.831   9.852 -0.8835 -0.1925 -0.7019
  140SAPE   H8R15267   1.709   6.902   9.917  2.7753 -1.5396 -1.9691
  140SAPE   C2915268   1.702   6.791   9.727 -0.3774 -0.3581  0.4403
  140SAPE   H9R15269   1.802   6.823   9.693 -1.3258  1.3166 -0.9552
  140SAPE  C21015270   1.644   6.691   9.629  0.2217  0.2876  0.0200
  140SAPE  H10R15271   1.563   6.629   9.673  0.5049  0.2308  0.4611
  140SAPE  H10S15272   1.718   6.617   9.592  0.0292  1.0540 -2.0713
  140SAPE  C21115273   1.574   6.753   9.508  0.0239  0.0323  0.5103
  140SAPE  H11R15274   1.466   6.767   9.520  0.3042  1.6748  1.3606
  140SAPE  C21215275   1.633   6.781   9.384 -0.1578  0.0400  0.3747
  140SAPE  H12R15276   1.578   6.809   9.293 -1.9769 -2.0445  0.7523
  140SAPE  C21315277   1.784   6.767   9.344  0.0545 -0.5007 -0.2583
  140SAPE  H13R15278   1.798   6.689   9.267  1.0045 -1.6424  1.0356
  140SAPE  H13S15279   1.854   6.733   9.423  0.2431 -1.4949 -0.8474
  140SAPE  C21415280   1.828   6.902   9.289 -0.2913  0.4529 -0.0607
  140SAPE  H14R15281   1.823   6.979   9.367  0.7597 -0.0720  0.5392
  140SAPE  C21515282   1.859   6.947   9.164  0.1858 -0.6091  1.3220
  140SAPE  H15R15283   1.881   7.052   9.142 -0.4196 -0.3628  1.8500
  140SAPE  C21615284   1.864   6.859   9.043  0.0988 -0.8961 -0.1523
  140SAPE  H16R15285   1.834   6.753   9.058  0.3415 -1.2298 -1.8246
  140SAPE  H16S15286   1.972   6.856   9.018  0.1813 -1.6331  0.2781
  140SAPE  C21715287   1.783   6.911   8.926 -0.4751 -0.1111  0.8276
  140SAPE  H17R15288   1.796   6.844   8.837  0.3887  1.0894  0.0220
  140SAPE  H17S15289   1.827   7.007   8.893  0.6396  0.4968  3.8118
  140SAPE  C21815290   1.640   6.924   8.959 -0.3764  0.4318  0.0712
  140SAPE  H18R15291   1.619   7.025   8.999 -0.5246 -0.7153  3.2169
  140SAPE  H18S15292   1.611   6.855   9.042 -1.0290 -0.9901 -1.2706
  140SAPE  C21915293   1.550   6.909   8.837  0.7521 -0.5972 -0.1958
  140SAPE  H19R15294   1.556   6.803   8.805  1.5028 -0.3662 -0.8798
  140SAPE  H19S15295   1.581   6.969   8.749  0.2224  1.2865  0.8517
  140SAPE  C22015296   1.407   6.947   8.855  0.9490 -0.3216  0.3677
  140SAPE  H20R15297   1.397   7.057   8.841  1.1026 -0.1512  1.5052
  140SAPE  H20S15298   1.371   6.921   8.957  1.4767  1.7990  1.1577
  140SAPE  H20T15299   1.347   6.882   8.788  1.9403 -2.7411  1.7171
  140SAPE   C3315300   1.648   6.340  10.310 -0.3151  0.4299  0.6662
  140SAPE   H3X15301   1.567   6.372  10.241  0.3680 -0.3987 -0.5752
  140SAPE   H3Y15302   1.650   6.229  10.299 -2.9402  0.3977 -0.0999
  140SAPE   C3415303   1.773   6.396  10.249  0.4161  0.3189  0.4358
  140SAPE   H4X15304   1.858   6.369  10.315 -0.2471 -2.4231  0.3248
  140SAPE   H4Y15305   1.752   6.504  10.238  0.3094  0.0555 -3.6591
  140SAPE   C3515306   1.819   6.340  10.107 -0.3653  0.1076 -0.1714
  140SAPE   H5X15307   1.729   6.328  10.044 -1.2665  0.5051  0.9871
  140SAPE   H5Y15308   1.877   6.246  10.121 -2.2659 -0.9805  0.8087
  140SAPE   C3615309   1.916   6.438  10.041 -0.0110  0.0776 -0.1027
  140SAPE   H6X15310   1.995   6.443  10.119  0.0750 -0.2071 -0.1690
  140SAPE   H6Y15311   1.865   6.535  10.025 -0.6923 -0.3548 -0.5980
  140SAPE   C3715312   1.971   6.384   9.912  0.2675  0.2220  0.5727
  140SAPE   H7X15313   1.987   6.275   9.922 -1.0406  0.0277  0.7155
  140SAPE   H7Y15314   2.075   6.420   9.898  0.7573 -0.4361  2.3117
  140SAPE   C3815315   1.881   6.398   9.788  0.4226  0.0280 -0.1268
  140SAPE   H8X15316   1.869   6.507   9.768 -0.7886 -0.2155 -0.8182
  140SAPE   H8Y15317   1.787   6.345   9.809  1.6609 -1.8091  1.0380
  140SAPE   C3915318   1.946   6.342   9.661 -0.4382 -0.4089 -0.4713
  140SAPE   H9X15319   1.942   6.231   9.660 -1.2092 -0.4359  1.6300
  140SAPE   H9Y15320   2.055   6.362   9.664 -0.6173  0.5168  1.8561
  140SAPE  C31015321   1.897   6.403   9.532  0.2431 -0.3670 -0.4913
  140SAPE  H10X15322   1.913   6.511   9.513 -0.5123 -0.0346  0.6379
  140SAPE  H10Y15323   1.792   6.366   9.528  0.9632 -2.6377  0.0475
  140SAPE  C31115324   1.972   6.338   9.418  0.3089  0.6754  0.2601
  140SAPE  H11X15325   1.985   6.228   9.414  0.3858  0.7025 -0.3944
  140SAPE  H11Y15326   2.076   6.378   9.414  0.4134  0.3492 -0.7084
  140SAPE  C31215327   1.908   6.382   9.280 -0.1519 -0.1391 -0.2609
  140SAPE  H12X15328   1.911   6.493   9.284 -0.5249 -0.1576  1.3786
  140SAPE  H12Y15329   1.805   6.341   9.274 -0.2404  0.1560 -0.7974
  140SAPE  C31315330   1.992   6.336   9.171 -1.0996  0.3080  0.8100
  140SAPE  H13X15331   2.034   6.235   9.190 -0.1633  0.8998  2.0438
  140SAPE  H13Y15332   2.082   6.399   9.154 -0.5232 -0.2885  1.5541
  140SAPE  C31415333   1.917   6.314   9.041 -0.0621  0.5152 -0.3135
  140SAPE  H14X15334   1.840   6.392   9.024 -1.3245 -0.6486 -0.1475
  140SAPE  H14Y15335   1.850   6.229   9.067  1.4511 -1.0291 -1.1904
  140SAPE  C31515336   2.004   6.283   8.923  0.0297 -0.0165 -0.3414
  140SAPE  H15X15337   2.072   6.213   8.977 -0.3253  0.3663  0.6261
  140SAPE  H15Y15338   2.056   6.373   8.884  0.9263  0.1947  1.2684
  140SAPE  C31615339   1.926   6.219   8.806  0.0054 -0.3167 -0.8456
  140SAPE  H16X15340   1.895   6.119   8.844  2.9865 -0.9799  0.1193
  140SAPE  H16Y15341   1.992   6.182   8.725  0.4910 -1.7234  0.1598
  140SAPE  C31715342   1.810   6.308   8.763 -0.1604 -0.1644 -0.1065
  140SAPE  H17X15343   1.754   6.341   8.853 -0.8936  2.3404 -1.3654
  140SAPE  H17Y15344   1.768   6.254   8.676  3.4358 -0.0510 -2.1105
  140SAPE  C31815345   1.844   6.456   8.718 -0.5017  0.2504 -0.3309
  140SAPE  H18X15346   1.871   6.516   8.807  4.9402  0.8368 -1.9798
  140SAPE  H18Y15347   1.761   6.504   8.662  0.6699  1.6879 -0.8964
  140SAPE  H18Z15348   1.934   6.459   8.652 -1.1778 -0.6185 -1.3220
  141SAPE     N15349   3.351   5.478  10.904 -0.4376 -0.5579 -0.0301
  141SAPE   HN115350   3.449   5.466  10.935 -0.1048 -0.8149 -1.1216
  141SAPE   HN215351   3.307   5.546  10.969 -0.9115 -0.1724 -0.7421
  141SAPE   HN315352   3.295   5.391  10.908 -0.0700 -0.8196 -0.4213
  141SAPE   C1215353   3.342   5.517  10.763  0.2268 -0.5168 -0.4882
  141SAPE  H12A15354   3.233   5.521  10.741 -0.2903 -2.4115  1.4421
  141SAPE  H12B15355   3.399   5.437  10.711  2.5715  1.4289 -1.1479
  141SAPE   C1115356   3.419   5.648  10.733  0.3073  0.3019  0.3303
  141SAPE  H11A15357   3.395   5.684  10.630 -0.1210 -0.0033  0.3190
  141SAPE  H11B15358   3.525   5.614  10.734  0.9066  2.0556 -0.2500
  141SAPE     P15359   3.268   5.858  10.822 -0.2843  0.4875  0.0869
  141SAPE   O1315360   3.154   5.785  10.760 -0.4323 -0.6014  0.4377
  141SAPE   O1415361   3.249   5.904  10.958  0.2034 -0.7763 -0.5137
  141SAPE   O1215362   3.392   5.755  10.829 -0.0015  0.1068  0.1420
  141SAPE   O1115363   3.320   5.986  10.743 -0.5277  0.0865  0.3217
  141SAPE    C115364   3.285   5.983  10.600  0.5210  0.1140 -0.0179
  141SAPE    HA15365   3.351   5.913  10.545  1.1753  0.2571  0.5775
  141SAPE    HB15366   3.178   5.958  10.580  0.2349 -0.9299  2.5118
  141SAPE    C215367   3.317   6.127  10.547  0.3379  0.4068 -0.7173
  141SAPE    HS15368   3.299   6.210  10.618 -0.3117  0.1733 -0.6012
  141SAPE   O2115369   3.243   6.148  10.427  0.2930 -0.1880  0.1035
  141SAPE   C2115370   3.115   6.168  10.451  0.5087 -0.0860 -0.7458
  141SAPE   O2215371   3.059   6.195  10.556  0.3919 -0.7028  0.2365
  141SAPE   C2215372   3.049   6.172  10.312  0.4301 -0.3820  0.3466
  141SAPE   H2R15373   2.938   6.164  10.325  0.1859 -0.4127 -1.5267
  141SAPE   H2S15374   3.074   6.271  10.270  1.3311 -0.1756  1.3219
  141SAPE    C315375   3.470   6.133  10.515 -0.0949  0.1207 -0.1653
  141SAPE    HX15376   3.514   6.126  10.617 -1.5567  1.9255  0.6586
  141SAPE    HY15377   3.494   6.233  10.471  0.8310 -0.6017 -1.3704
  141SAPE   O3115378   3.510   6.020  10.437  0.0964 -0.3732  0.2180
  141SAPE   C3115379   3.517   6.026  10.299 -0.2370 -0.2323 -0.6923
  141SAPE   O3215380   3.520   6.125  10.229 -0.2323  0.3755 -0.3058
  141SAPE   C3215381   3.515   5.884  10.244 -0.0889  0.2853 -0.1615
  141SAPE   H2X15382   3.411   5.849  10.258  0.1617  0.1463  1.5180
  141SAPE   H2Y15383   3.592   5.829  10.302 -1.9459 -0.5083  1.6743
  141SAPE   C2315384   3.091   6.062  10.204  0.0388 -0.2999 -0.8068
  141SAPE   H3R15385   3.202   6.059  10.198  0.0493 -2.7158 -0.4617
  141SAPE   H3S15386   3.056   6.089  10.103  2.8984  0.3998 -1.6934
  141SAPE   C2415387   3.060   5.912  10.246 -0.3743 -0.4052  0.2167
  141SAPE   H4R15388   3.093   5.886  10.349 -0.4434 -3.2040 -0.3770
  141SAPE   H4S15389   3.108   5.836  10.181  1.3000  0.3173  0.5630
  141SAPE   C2515390   2.911   5.915  10.240  0.0890  0.0259 -0.3881
  141SAPE   H5R15391   2.868   5.983  10.314  2.0220  1.8273 -0.8116
  141SAPE   C2615392   2.833   5.866  10.143 -0.1155 -0.3897 -0.1566
  141SAPE   H6R15393   2.726   5.881  10.161  0.0286  1.5882 -0.7641
  141SAPE   C2715394   2.874   5.780  10.027 -0.0678 -0.4755  0.3729
  141SAPE   H7R15395   2.824   5.681  10.035  0.6045 -1.0192 -1.6788
  141SAPE   H7S15396   2.982   5.757  10.038  0.1377  0.0633 -0.4177
  141SAPE   C2815397   2.842   5.842   9.885 -0.0872 -0.6523  0.2140
  141SAPE   H8R15398   2.750   5.901   9.875 -0.4869 -1.3450 -0.2307
  141SAPE   C2915399   2.919   5.828   9.778 -0.3553  0.0990  1.1158
  141SAPE   H9R15400   2.887   5.866   9.680 -0.2342  1.6673  1.6509
  141SAPE  C21015401   3.050   5.750   9.781 -0.3389  0.0519  0.1619
  141SAPE  H10R15402   3.077   5.716   9.678 -1.1980 -2.9728  0.8153
  141SAPE  H10S15403   3.043   5.647   9.824  2.6588 -0.8155 -1.1965
  141SAPE  C21115404   3.170   5.823   9.838  0.3839 -0.5319 -0.1183
  141SAPE  H11R15405   3.164   5.883   9.930 -1.5002  1.7638 -1.6223
  141SAPE  C21215406   3.293   5.820   9.774  0.4162  0.0264 -0.0211
  141SAPE  H12R15407   3.374   5.888   9.805 -1.9093  3.3367 -0.6146
  141SAPE  C21315408   3.322   5.737   9.648  0.2214 -0.0971 -0.0295
  141SAPE  H13R15409   3.256   5.770   9.565 -1.0686 -0.1324  0.9595
  141SAPE  H13S15410   3.296   5.629   9.659 -0.2835  0.0357  0.0986
  141SAPE  C21415411   3.457   5.745   9.586  0.2840 -0.2006 -0.5212
  141SAPE  H14R15412   3.529   5.795   9.652 -2.3543  1.4431  1.3452
  141SAPE  C21515413   3.502   5.683   9.478 -0.2463 -0.4435 -0.4457
  141SAPE  H15R15414   3.603   5.695   9.435 -0.7183 -1.9528 -2.1181
  141SAPE  C21615415   3.420   5.595   9.390  0.3922  0.4307  0.0304
  141SAPE  H16R15416   3.408   5.656   9.298  0.3926  1.0863  0.4577
  141SAPE  H16S15417   3.317   5.582   9.431  0.3680  0.6440  0.0342
  141SAPE  C21715418   3.490   5.453   9.367 -0.1581 -0.0152 -0.0136
  141SAPE  H17R15419   3.432   5.389   9.298 -0.4384  0.2302 -0.0071
  141SAPE  H17S15420   3.499   5.409   9.469 -0.4029  1.1370  0.5258
  141SAPE  C21815421   3.620   5.469   9.291  0.0551 -0.0318 -0.1019
  141SAPE  H18R15422   3.672   5.371   9.276 -1.5445 -0.8043 -0.8180
  141SAPE  H18S15423   3.701   5.530   9.337  0.6202 -0.8467  0.0158
  141SAPE  C21915424   3.600   5.525   9.153  1.0402 -0.3021  0.7263
  141SAPE  H19R15425   3.553   5.626   9.150  0.1595 -0.7237 -0.6832
  141SAPE  H19S15426   3.529   5.456   9.102  0.1821  0.8857  0.2600
  141SAPE  C22015427   3.726   5.529   9.072 -0.2190 -0.3990  0.4931
  141SAPE  H20R15428   3.764   5.429   9.042 -1.2178 -0.2013 -1.6147
  141SAPE  H20S15429   3.807   5.579   9.129  0.2863 -0.2872 -0.3120
  141SAPE  H20T15430   3.712   5.582   8.975  1.0687 -3.1825 -1.3398
  141SAPE   C3315431   3.539   5.881  10.095  0.1124  0.5046  0.1768
  141SAPE   H3X15432   3.511   5.971  10.037  0.5436  0.8890  0.5505
  141SAPE   H3Y15433   3.478   5.796  10.059  3.2426 -1.3579 -1.2048
  141SAPE   C3415434   3.685   5.845  10.073 -0.0719  0.1670  0.7123
  141SAPE   H4X15435   3.718   5.761  10.138  0.6969 -1.6446 -1.8301
  141SAPE   H4Y15436   3.752   5.933  10.085 -0.3360  0.1609  2.4407
  141SAPE   C3515437   3.693   5.786   9.931  1.0121 -0.5767 -0.5761
  141SAPE   H5X15438   3.657   5.860   9.856 -1.0968 -0.8825  0.0642
  141SAPE   H5Y15439   3.625   5.698   9.924  0.1158  0.0754 -0.3610
  141SAPE   C3615440   3.828   5.746   9.873 -0.2892  0.3265 -0.1293
  141SAPE   H6X15441   3.888   5.686   9.945 -2.1181 -2.4695 -0.7606
  141SAPE   H6Y15442   3.891   5.831   9.838 -0.8315  0.7509 -0.0891
  141SAPE   C3715443   3.809   5.663   9.743  0.8938 -0.1704  0.5792
  141SAPE   H7X15444   3.747   5.726   9.676  2.1538 -1.2194 -1.6992
  141SAPE   H7Y15445   3.756   5.571   9.778  1.4271 -0.5013  0.5290
  141SAPE   C3815446   3.944   5.617   9.679 -0.0384 -0.3734 -0.5117
  141SAPE   H8X15447   3.996   5.541   9.742  1.8252  0.4640 -0.9874
  141SAPE   H8Y15448   4.014   5.703   9.671 -0.0582 -0.2275  0.6418
  141SAPE   C3915449   3.936   5.568   9.533  0.4667 -0.5257  0.2682
  141SAPE   H9X15450   3.895   5.654   9.476  2.6199  0.0212 -0.5579
  141SAPE   H9Y15451   3.860   5.487   9.518 -0.4503  0.6858 -2.1824
  141SAPE  C31015452   4.067   5.521   9.484  0.4013  0.7414 -0.2327
  141SAPE  H10X15453   4.096   5.427   9.535 -0.5388  0.4337 -0.2487
  141SAPE  H10Y15454   4.154   5.589   9.498  1.8845 -0.7941 -1.5348
  141SAPE  C31115455   4.066   5.499   9.329 -0.9312 -0.1614 -0.0411
  141SAPE  H11X15456   4.047   5.593   9.272  2.4188 -0.8560 -2.6100
  141SAPE  H11Y15457   3.985   5.432   9.295  0.2545 -0.3297 -2.7281
  141SAPE  C31215458   4.201   5.449   9.273  0.1085 -0.1293 -0.7536
  141SAPE  H12X15459   4.216   5.340   9.287 -0.2770 -0.2396 -1.2044
  141SAPE  H12Y15460   4.283   5.492   9.334 -1.4504 -0.3193  1.6072
  141SAPE  C31315461   4.231   5.472   9.127  0.2308 -0.1769  0.1701
  141SAPE  H13X15462   4.226   5.581   9.108  0.4082  0.0688  1.4339
  141SAPE  H13Y15463   4.165   5.404   9.069  0.7070 -0.1559 -0.4140
  141SAPE  C31415464   4.381   5.445   9.096 -0.9493 -0.0787  0.9495
  141SAPE  H14X15465   4.397   5.335   9.105  2.4326  0.1819 -0.5877
  141SAPE  H14Y15466   4.456   5.495   9.161  1.2607 -1.8304 -0.1063
  141SAPE  C31515467   4.416   5.475   8.949 -0.1239 -0.1233 -0.3240
  141SAPE  H15X15468   4.414   5.585   8.935 -0.7113 -0.1441 -0.4249
  141SAPE  H15Y15469   4.336   5.428   8.887 -0.3091 -1.6743  1.0231
  141SAPE  C31615470   4.553   5.413   8.916  0.2458  0.1906  0.0843
  141SAPE  H16X15471   4.554   5.302   8.928  1.7276  0.2687  1.0482
  141SAPE  H16Y15472   4.624   5.467   8.983  1.1920  0.7768 -1.3318
  141SAPE  C31715473   4.582   5.442   8.770  0.2801  0.1951 -0.1600
  141SAPE  H17X15474   4.512   5.388   8.703  1.3841  0.0319 -1.2266
  141SAPE  H17Y15475   4.685   5.403   8.752  0.8153  1.0930  0.8276
  141SAPE  C31815476   4.585   5.590   8.725  0.0271 -0.4610 -0.5364
  141SAPE  H18X15477   4.622   5.601   8.621 -0.5096 -0.7502 -0.7615
  141SAPE  H18Y15478   4.655   5.653   8.784  0.5442 -1.7632  0.2840
  141SAPE  H18Z15479   4.486   5.640   8.729  0.2679 -0.0678  1.5597
  142SAPE     N15480   2.318   4.557  10.918 -0.1809  0.5361  0.2583
  142SAPE   HN115481   2.379   4.474  10.905 -1.3465 -0.3800  0.4827
  142SAPE   HN215482   2.383   4.638  10.924 -0.2886  0.5067  2.3968
  142SAPE   HN315483   2.278   4.540  11.012  3.3496 -2.9736  1.4168
  142SAPE   C1215484   2.218   4.568  10.810 -0.1998 -0.2863  0.2715
  142SAPE  H12A15485   2.147   4.483  10.815 -0.7269  0.1443  0.1385
  142SAPE  H12B15486   2.255   4.572  10.705 -0.7990 -1.5126 -0.0036
  142SAPE   C1115487   2.134   4.692  10.832  0.4243 -0.0634  0.0426
  142SAPE  H11A15488   2.075   4.675  10.925 -0.3848  1.8962 -0.0576
  142SAPE  H11B15489   2.057   4.714  10.754  0.4085  6.4112  1.2928
  142SAPE     P15490   2.136   4.944  10.864  0.3314 -0.0283  0.1092
  142SAPE   O1315491   1.996   4.932  10.911 -0.1531 -0.5828 -0.5649
  142SAPE   O1415492   2.229   5.032  10.938  0.1938 -0.2708  0.3053
  142SAPE   O1215493   2.208   4.810  10.836  0.1754  0.6697  0.0501
  142SAPE   O1115494   2.124   4.986  10.711 -0.0187  0.1248  0.1082
  142SAPE    C115495   2.241   5.021  10.635 -0.1815  0.3622 -0.9855
  142SAPE    HA15496   2.245   5.132  10.626  0.7503  0.2558 -2.2119
  142SAPE    HB15497   2.341   5.002  10.681 -1.1621 -2.2167  0.2521
  142SAPE    C215498   2.238   4.958  10.498 -0.0222  0.6880  0.4511
  142SAPE    HS15499   2.310   4.874  10.506  0.6410  1.2403  0.4160
  142SAPE   O2115500   2.287   5.056  10.400 -0.4423  0.1118 -0.0803
  142SAPE   C2115501   2.369   5.012  10.309  0.7994 -0.5033  0.2408
  142SAPE   O2215502   2.405   4.897  10.294 -0.0467 -0.2515  0.2672
  142SAPE   C2215503   2.405   5.139  10.230 -0.4109 -0.1872 -0.4036
  142SAPE   H2R15504   2.310   5.194  10.213  0.4955  0.8281 -2.5086
  142SAPE   H2S15505   2.464   5.201  10.301 -1.6351 -0.2396  0.7000
  142SAPE    C315506   2.101   4.905  10.449  0.3766  0.3444 -0.1442
  142SAPE    HX15507   2.026   4.987  10.460 -0.0658  0.3539 -2.6238
  142SAPE    HY15508   2.070   4.828  10.523  0.8616  0.5458  0.2704
  142SAPE   O3115509   2.091   4.865  10.309 -0.5133 -0.1100  0.1928
  142SAPE   C3115510   2.137   4.733  10.285 -0.4988 -0.7253  0.2175
  142SAPE   O3215511   2.188   4.665  10.370 -0.1678 -0.1945  0.1654
  142SAPE   C3215512   2.138   4.721  10.136 -0.4705  0.4164  0.0308
  142SAPE   H2X15513   2.176   4.811  10.083  2.5628 -0.1962  0.9556
  142SAPE   H2Y15514   2.033   4.713  10.100 -1.3526  3.5024  1.5692
  142SAPE   C2315515   2.483   5.110  10.101 -0.2761 -0.5482 -0.0107
  142SAPE   H3R15516   2.580   5.067  10.132 -0.3100  0.6320  1.9175
  142SAPE   H3S15517   2.511   5.213  10.068  2.3705 -1.1896  0.0320
  142SAPE   C2415518   2.413   5.025  10.005 -0.3215 -1.1115  0.2938
  142SAPE   H4R15519   2.391   4.924  10.045  0.4942 -2.0792 -1.5537
  142SAPE   H4S15520   2.477   4.998   9.918  0.5000  1.3582  0.0531
  142SAPE   C2515521   2.281   5.085   9.960 -0.6236  0.4963 -0.0145
  142SAPE   H5R15522   2.216   5.128  10.038  1.2875  2.5975  0.5249
  142SAPE   C2615523   2.253   5.105   9.829 -0.6389 -0.4204 -0.4042
  142SAPE   H6R15524   2.161   5.158   9.801 -0.1501  0.6503 -0.0299
  142SAPE   C2715525   2.337   5.060   9.708 -0.1950  0.3839 -0.7319
  142SAPE   H7R15526   2.273   5.033   9.622 -0.0372 -0.8853 -0.4658
  142SAPE   H7S15527   2.389   4.966   9.736  1.6192  0.8619 -2.2309
  142SAPE   C2815528   2.453   5.154   9.669 -0.2564  0.8297 -0.4621
  142SAPE   H8R15529   2.461   5.252   9.720 -0.2618 -0.0129  1.2329
  142SAPE   C2915530   2.555   5.129   9.589  0.0742  0.4299  0.2205
  142SAPE   H9R15531   2.632   5.206   9.572  1.0488 -0.8625 -1.6408
  142SAPE  C21015532   2.584   5.000   9.512  0.2618  0.3788  0.2308
  142SAPE  H10R15533   2.626   5.027   9.413 -1.4516 -0.0379 -0.6349
  142SAPE  H10S15534   2.489   4.948   9.490 -0.4255  0.9108  1.7583
  142SAPE  C21115535   2.661   4.906   9.610  0.3651  0.1715  0.2599
  142SAPE  H11R15536   2.641   4.909   9.718 -2.5953  0.5522 -0.2373
  142SAPE  C21215537   2.742   4.805   9.569 -0.4603 -0.0009  0.3631
  142SAPE  H12R15538   2.785   4.736   9.642  0.4426  1.4331  1.2301
  142SAPE  C21315539   2.782   4.764   9.426  0.8375 -0.1034 -0.3455
  142SAPE  H13R15540   2.693   4.784   9.362  1.4708 -2.0278 -1.9326
  142SAPE  H13S15541   2.798   4.654   9.422  1.3828 -0.0674  0.6874
  142SAPE  C21415542   2.910   4.832   9.380  0.0739 -0.0215  0.6278
  142SAPE  H14R15543   2.966   4.897   9.449  4.5029  0.1712 -2.6918
  142SAPE  C21515544   2.948   4.823   9.255  0.5454 -0.5743  0.4048
  142SAPE  H15R15545   3.041   4.869   9.219  0.5989  0.4119  1.7307
  142SAPE  C21615546   2.879   4.742   9.141  0.0448  0.3043 -0.0058
  142SAPE  H16R15547   2.809   4.663   9.176  2.4596 -2.5492 -1.2460
  142SAPE  H16S15548   2.955   4.696   9.074 -0.2311  0.1163 -0.1941
  142SAPE  C21715549   2.794   4.841   9.061 -0.4502  0.0855 -0.4492
  142SAPE  H17R15550   2.866   4.911   9.014  0.0346  0.5228  0.8966
  142SAPE  H17S15551   2.736   4.895   9.138 -0.0354  0.0620 -0.1128
  142SAPE  C21815552   2.718   4.768   8.943  0.2854  0.0263 -0.0902
  142SAPE  H18R15553   2.637   4.704   8.984  1.8988 -2.0075  0.0661
  142SAPE  H18S15554   2.783   4.690   8.899 -0.3623 -0.3271 -0.4261
  142SAPE  C21915555   2.655   4.853   8.834 -0.0665  0.2249  0.4578
  142SAPE  H19R15556   2.549   4.876   8.859 -0.1405  0.1370  0.2187
  142SAPE  H19S15557   2.661   4.798   8.738 -0.7622 -0.2361  0.6691
  142SAPE  C22015558   2.712   4.998   8.812 -1.1224  0.5081 -0.0338
  142SAPE  H20R15559   2.816   4.996   8.774 -1.1846 -0.3054 -0.1663
  142SAPE  H20S15560   2.707   5.059   8.905  0.4457  2.6544 -1.2656
  142SAPE  H20T15561   2.648   5.063   8.749  0.8502  0.2497 -2.4585
  142SAPE   C3315562   2.223   4.598  10.100 -0.0287  0.1029  0.3797
  142SAPE   H3X15563   2.169   4.516  10.153  1.8689 -0.2986  1.7988
  142SAPE   H3Y15564   2.329   4.610  10.131  0.5452  1.7852 -1.9899
  142SAPE   C3415565   2.226   4.561   9.947  0.4056  0.1865 -0.3642
  142SAPE   H4X15566   2.122   4.555   9.908  0.6716 -1.1957 -0.9060
  142SAPE   H4Y15567   2.278   4.464   9.931 -0.1621 -0.2018  0.0942
  142SAPE   C3515568   2.293   4.667   9.863  0.4357 -0.5591 -0.4341
  142SAPE   H5X15569   2.393   4.683   9.909  1.0120 -0.0331 -1.8269
  142SAPE   H5Y15570   2.243   4.767   9.861 -0.5530 -1.0267 -0.0527
  142SAPE   C3615571   2.301   4.612   9.720 -0.3800 -0.4938  0.2958
  142SAPE   H6X15572   2.210   4.551   9.699  0.7243 -1.4716 -2.1298
  142SAPE   H6Y15573   2.388   4.543   9.719 -0.8815 -1.2456  2.4574
  142SAPE   C3715574   2.324   4.712   9.598  0.2974 -0.1034  0.0896
  142SAPE   H7X15575   2.420   4.765   9.612  0.3001 -0.6311  2.5991
  142SAPE   H7Y15576   2.241   4.786   9.589  1.1544  0.9126  0.3890
  142SAPE   C3815577   2.315   4.629   9.471 -0.9481  0.1703  0.6262
  142SAPE   H8X15578   2.214   4.584   9.478 -1.4688  1.0962 -0.6780
  142SAPE   H8Y15579   2.390   4.546   9.468 -0.6825  0.4199  0.3095
  142SAPE   C3915580   2.313   4.710   9.338  0.5913  0.2759  0.0504
  142SAPE   H9X15581   2.418   4.742   9.323  1.0914 -1.1144  0.4037
  142SAPE   H9Y15582   2.253   4.803   9.346 -0.3863 -0.1021 -2.2047
  142SAPE  C31015583   2.266   4.625   9.221 -0.6597  0.0048 -0.2354
  142SAPE  H10X15584   2.157   4.603   9.223 -0.8386  0.7907 -0.7463
  142SAPE  H10Y15585   2.328   4.533   9.226  1.2656  1.2831  0.3317
  142SAPE  C31115586   2.301   4.675   9.081 -0.1411 -0.3921 -0.2923
  142SAPE  H11X15587   2.412   4.665   9.087 -0.3414 -2.5885  0.8966
  142SAPE  H11Y15588   2.275   4.781   9.060 -0.4472 -0.1070  1.4119
  142SAPE  C31215589   2.248   4.598   8.958  0.1034  0.4228  0.2090
  142SAPE  H12X15590   2.139   4.582   8.948  0.0068  1.8813 -1.5157
  142SAPE  H12Y15591   2.300   4.500   8.957  1.9380  1.3344 -1.5189
  142SAPE  C31315592   2.300   4.659   8.827 -0.2062 -0.7938  0.9121
  142SAPE  H13X15593   2.395   4.703   8.864 -0.9421  1.5005  0.2340
  142SAPE  H13Y15594   2.222   4.735   8.802  0.6551 -0.5129 -1.1738
  142SAPE  C31415595   2.318   4.569   8.710  0.1188  0.0249  0.8499
  142SAPE  H14X15596   2.248   4.484   8.722 -0.7348  0.5589 -0.1488
  142SAPE  H14Y15597   2.423   4.533   8.711  1.3079  3.1465  3.3027
  142SAPE  C31515598   2.285   4.623   8.570  0.1965 -0.4474 -0.2393
  142SAPE  H15X15599   2.191   4.683   8.576  0.2907 -0.2886 -0.3442
  142SAPE  H15Y15600   2.272   4.544   8.493 -0.8655 -0.3092 -0.2134
  142SAPE  C31615601   2.398   4.713   8.517 -0.1868  0.5693 -0.4763
  142SAPE  H16X15602   2.489   4.649   8.507 -1.0737 -0.7443 -0.3737
  142SAPE  H16Y15603   2.411   4.792   8.594 -1.3876  0.4102 -0.0949
  142SAPE  C31715604   2.367   4.778   8.392  0.0013  0.3987 -0.3870
  142SAPE  H17X15605   2.277   4.843   8.399 -0.0314  0.1516  2.1461
  142SAPE  H17Y15606   2.347   4.706   8.309  1.0404 -0.1502 -0.1759
  142SAPE  C31815607   2.478   4.873   8.346 -0.9998 -0.8683 -0.0254
  142SAPE  H18X15608   2.509   4.942   8.427 -1.3960 -0.1357 -0.4858
  142SAPE  H18Y15609   2.452   4.937   8.259 -1.3392  1.5955  1.8000
  142SAPE  H18Z15610   2.564   4.812   8.310  0.5032  1.3197 -0.3315
  143SAPE     N15611   4.250   6.024  10.923  0.1004 -0.2967 -1.2287
  143SAPE   HN115612   4.239   6.106  10.986  2.7976 -0.6527 -0.1324
  143SAPE   HN215613   4.184   5.951  10.957  1.1546 -0.1894  1.3240
  143SAPE   HN315614   4.337   5.980  10.959  0.4085 -0.3635 -2.0424
  143SAPE   C1215615   4.257   6.055  10.776  0.2575  0.2479 -0.3937
  143SAPE  H12A15616   4.247   5.958  10.722 -0.9633 -1.4771  2.6182
  143SAPE  H12B15617   4.352   6.106  10.750  0.7615 -0.4461  0.0496
  143SAPE   C1115618   4.140   6.149  10.733 -0.3179 -0.2117  0.7423
  143SAPE  H11A15619   4.144   6.155  10.622 -0.3050  1.5140  0.8013
  143SAPE  H11B15620   4.156   6.252  10.771 -2.7273  0.7300 -0.5716
  143SAPE     P15621   3.910   6.176  10.846 -0.1964  0.0807  0.0586
  143SAPE   O1315622   3.836   6.094  10.939 -0.4754 -0.0743  0.2111
  143SAPE   O1415623   3.978   6.294  10.908 -0.1695 -0.4186 -0.6336
  143SAPE   O1215624   4.012   6.095  10.772  0.4074  0.0988 -0.3560
  143SAPE   O1115625   3.803   6.239  10.739  0.3745 -0.9749 -0.1147
  143SAPE    C115626   3.856   6.306  10.625  0.9833  0.4004 -0.6017
  143SAPE    HA15627   3.803   6.403  10.617  1.5713  0.8277  0.4480
  143SAPE    HB15628   3.966   6.323  10.628  1.1777 -0.8476 -0.3188
  143SAPE    C215629   3.830   6.215  10.501  0.2558  0.7360 -0.3634
  143SAPE    HS15630   3.738   6.153  10.511  0.4904  0.0579 -1.9889
  143SAPE   O2115631   3.949   6.133  10.479  0.6746  0.3958  0.5247
  143SAPE   C2115632   3.933   6.032  10.399  0.3937  0.1891  0.4293
  143SAPE   O2215633   3.827   5.978  10.369 -0.3401 -0.6661  0.3452
  143SAPE   C2215634   4.066   5.974  10.360 -0.7723 -0.0977 -0.2457
  143SAPE   H2R15635   4.141   6.048  10.326  0.0096 -0.4140  0.7365
  143SAPE   H2S15636   4.118   5.928  10.447 -1.8844  0.8152  0.9295
  143SAPE    C315637   3.813   6.301  10.374 -0.9425  0.3758 -1.1040
  143SAPE    HX15638   3.717   6.353  10.394 -0.4340  0.6663  0.8617
  143SAPE    HY15639   3.803   6.248  10.278  1.2510 -0.0329 -1.1754
  143SAPE   O3115640   3.911   6.403  10.360 -0.6972  0.2308  0.1160
  143SAPE   C3115641   4.020   6.368  10.286 -0.4230 -1.3397 -0.4027
  143SAPE   O3215642   4.031   6.274  10.213  0.0674  0.4743 -0.1593
  143SAPE   C3215643   4.116   6.489  10.285  0.5469  0.1325  0.7133
  143SAPE   H2X15644   4.216   6.443  10.297 -0.4864 -2.2033  1.1092
  143SAPE   H2Y15645   4.098   6.538  10.383 -2.2326 -0.7063  0.7116
  143SAPE   C2315646   4.059   5.879  10.238 -0.0599  0.6151  0.3519
  143SAPE   H3R15647   4.158   5.856  10.193 -1.3462 -3.5857 -0.8253
  143SAPE   H3S15648   3.987   5.930  10.171  1.0892  0.9341 -0.6771
  143SAPE   C2415649   4.010   5.737  10.279 -1.0075 -0.3698  0.1996
  143SAPE   H4R15650   3.971   5.707  10.179  0.2901  1.5461 -0.9367
  143SAPE   H4S15651   3.925   5.742  10.350 -1.2286  1.2120 -0.1413
  143SAPE   C2515652   4.120   5.639  10.319  0.2432  0.2168  0.0181
  143SAPE   H5R15653   4.178   5.664  10.409  0.1326 -0.5433  0.3080
  143SAPE   C2615654   4.138   5.516  10.266  0.2461 -0.3705  0.3086
  143SAPE   H6R15655   4.227   5.459  10.296  1.0104  0.6852  0.1049
  143SAPE   C2715656   4.061   5.441  10.157  0.4385 -0.5864  0.2992
  143SAPE   H7R15657   4.120   5.444  10.063 -1.3430  2.5458 -0.8782
  143SAPE   H7S15658   3.967   5.496  10.133  0.6332 -1.0732 -1.8032
  143SAPE   C2815659   4.029   5.303  10.201  0.3223  0.5925  0.0762
  143SAPE   H8R15660   4.046   5.286  10.309  0.2079  3.1728  0.5675
  143SAPE   C2915661   3.980   5.204  10.118 -0.1930 -0.3632  0.4628
  143SAPE   H9R15662   3.954   5.106  10.159 -0.4665 -0.8342 -0.7818
  143SAPE  C21015663   3.955   5.233   9.974 -0.9260  0.6181  0.1703
  143SAPE  H10R15664   4.030   5.296   9.923 -2.7824  0.4455 -3.0536
  143SAPE  H10S15665   3.867   5.300   9.964 -2.2555 -1.2458 -1.3759
  143SAPE  C21115666   3.918   5.118   9.888  0.4391  0.0890 -0.3073
  143SAPE  H11R15667   3.932   5.017   9.930 -0.1910  0.0355 -0.2251
  143SAPE  C21215668   3.861   5.111   9.769  0.2770 -0.6577  0.1558
  143SAPE  H12R15669   3.874   5.013   9.721  1.5407 -1.2280  1.5943
  143SAPE  C21315670   3.816   5.231   9.687  0.3395 -0.2439  0.1520
  143SAPE  H13R15671   3.892   5.312   9.689 -0.6845  0.7076  1.3142
  143SAPE  H13S15672   3.754   5.287   9.759  1.0826 -0.0155  0.6293
  143SAPE  C21415673   3.757   5.209   9.549 -0.4845 -0.5702 -0.0058
  143SAPE  H14R15674   3.656   5.252   9.544  0.2811  1.4384  0.6858
  143SAPE  C21515675   3.820   5.159   9.440 -0.9509  0.2048 -0.0236
  143SAPE  H15R15676   3.767   5.176   9.345 -1.5158 -1.1446  0.0292
  143SAPE  C21615677   3.969   5.117   9.435  0.0681  0.8576 -0.4811
  143SAPE  H16R15678   4.017   5.131   9.534 -2.9174 -0.9960  1.4051
  143SAPE  H16S15679   4.023   5.172   9.356 -2.8671 -0.0844 -3.3741
  143SAPE  C21715680   3.976   4.975   9.379 -0.3997 -0.3432  0.5457
  143SAPE  H17R15681   3.921   4.917   9.457 -0.4977 -0.6094  0.2781
  143SAPE  H17S15682   4.085   4.954   9.380 -0.3663 -0.2149 -0.0556
  143SAPE  C21815683   3.920   4.953   9.240 -0.1526 -0.6541 -0.0845
  143SAPE  H18R15684   3.818   4.994   9.226 -0.8124 -2.2680 -0.1877
  143SAPE  H18S15685   3.918   4.842   9.231  2.6388 -0.5986 -4.2655
  143SAPE  C21915686   4.005   4.991   9.113  0.1956 -0.0678 -1.0344
  143SAPE  H19R15687   3.935   4.964   9.031 -1.6745  1.1897  0.0735
  143SAPE  H19S15688   4.095   4.926   9.112  0.1466 -0.2524  1.1993
  143SAPE  C22015689   4.037   5.142   9.088  0.3067 -0.6673  0.2055
  143SAPE  H20R15690   4.092   5.151   8.992 -0.9853  1.8263 -0.3938
  143SAPE  H20S15691   4.103   5.185   9.166  1.2518  0.8467 -1.3575
  143SAPE  H20T15692   3.940   5.196   9.083 -1.1319 -3.0543  0.6168
  143SAPE   C3315693   4.101   6.589  10.171 -0.0340  0.2625  0.0862
  143SAPE   H3X15694   4.000   6.637  10.172  0.6431  1.8461 -1.4947
  143SAPE   H3Y15695   4.102   6.530  10.077 -0.4950 -0.1276  0.3253
  143SAPE   C3415696   4.203   6.696  10.161 -0.6955 -0.5073 -0.1976
  143SAPE   H4X15697   4.301   6.643  10.162 -0.1067  0.4983 -1.5171
  143SAPE   H4Y15698   4.202   6.757  10.254 -0.9472 -0.9946  0.1184
  143SAPE   C3515699   4.182   6.791  10.042 -0.6463  0.0652 -0.4356
  143SAPE   H5X15700   4.254   6.876  10.039 -0.0542 -0.3914  0.3617
  143SAPE   H5Y15701   4.081   6.836  10.052 -1.1731 -1.0203 -0.6771
  143SAPE   C3615702   4.197   6.720   9.900  0.1774 -0.8523  0.6950
  143SAPE   H6X15703   4.105   6.664   9.871 -1.4095  2.1846 -0.6056
  143SAPE   H6Y15704   4.279   6.647   9.916  0.3420 -1.0258 -0.8394
  143SAPE   C3715705   4.248   6.818   9.792 -0.6551  0.0840  0.8819
  143SAPE   H7X15706   4.344   6.868   9.819  0.5099 -0.2307 -2.2569
  143SAPE   H7Y15707   4.176   6.902   9.783 -0.6989 -0.1288 -1.1957
  143SAPE   C3815708   4.257   6.754   9.651 -0.4089  0.7920 -0.2750
  143SAPE   H8X15709   4.162   6.700   9.635 -0.1617  0.6403 -1.3707
  143SAPE   H8Y15710   4.344   6.685   9.654  0.1225  1.3965 -1.0351
  143SAPE   C3915711   4.275   6.857   9.540 -1.1153  0.9354  0.2780
  143SAPE   H9X15712   4.351   6.933   9.568 -0.6762 -0.2508  2.6008
  143SAPE   H9Y15713   4.182   6.917   9.529 -0.6040  1.8690  0.9322
  143SAPE  C31015714   4.309   6.791   9.408  0.1142  0.1263 -1.0717
  143SAPE  H10X15715   4.231   6.718   9.376 -0.9804  1.0218 -0.5079
  143SAPE  H10Y15716   4.411   6.746   9.408  0.1368  0.1282  0.3229
  143SAPE  C31115717   4.322   6.906   9.304 -0.2680 -0.4099  1.1523
  143SAPE  H11X15718   4.418   6.955   9.327 -0.4219  1.4064 -1.6334
  143SAPE  H11Y15719   4.242   6.983   9.309  0.6545  0.8245 -1.5166
  143SAPE  C31215720   4.332   6.850   9.165 -0.7322  0.3906 -0.3382
  143SAPE  H12X15721   4.245   6.793   9.128  0.2637 -0.7944 -0.9178
  143SAPE  H12Y15722   4.417   6.779   9.166 -0.0279  1.2117  0.5075
  143SAPE  C31315723   4.358   6.959   9.062  0.0827  0.2435 -0.1951
  143SAPE  H13X15724   4.453   7.006   9.096  0.5351 -1.2233  0.6575
  143SAPE  H13Y15725   4.278   7.033   9.042 -0.7359 -0.4744  0.3419
  143SAPE  C31415726   4.373   6.905   8.916  0.4567  0.0190 -0.5204
  143SAPE  H14X15727   4.277   6.859   8.885  0.4197 -1.3227  1.4405
  143SAPE  H14Y15728   4.448   6.823   8.914  0.5760  0.1096 -3.3390
  143SAPE  C31515729   4.417   7.020   8.813 -0.1195  0.7470 -0.2888
  143SAPE  H15X15730   4.519   7.048   8.845 -0.9263  4.2212 -0.3784
  143SAPE  H15Y15731   4.357   7.113   8.814 -0.2403  0.6815 -0.9398
  143SAPE  C31615732   4.432   6.970   8.670 -0.2319 -0.0982  0.1617
  143SAPE  H16X15733   4.500   6.884   8.653 -0.1932 -0.4152  1.7471
  143SAPE  H16Y15734   4.472   7.061   8.621 -0.2527 -0.4308 -0.4794
  143SAPE  C31715735   4.298   6.957   8.595 -0.2331  0.0269  0.1140
  143SAPE  H17X15736   4.264   7.061   8.574  0.2181  0.1283 -0.1138
  143SAPE  H17Y15737   4.229   6.894   8.656  0.9219  0.2419  1.6977
  143SAPE  C31815738   4.313   6.893   8.453 -0.4086  0.2040  0.4615
  143SAPE  H18X15739   4.342   6.786   8.460  0.2136  0.3870  0.7272
  143SAPE  H18Y15740   4.396   6.943   8.399 -1.6481  0.8616 -0.9090
  143SAPE  H18Z15741   4.225   6.919   8.390  1.5991  3.3894 -1.2505
  144SAPE     N15742   1.392   3.969  10.766 -1.2491  0.2080  0.0548
  144SAPE   HN115743   1.352   4.053  10.812 -3.4915 -0.9058  0.2595
  144SAPE   HN215744   1.474   3.943  10.826 -2.6366  1.6488  2.7683
  144SAPE   HN315745   1.431   3.993  10.673  2.6435  0.0365  1.4325
  144SAPE   C1215746   1.286   3.868  10.735 -0.4426 -0.3788 -0.2033
  144SAPE  H12A15747   1.197   3.933  10.721  0.1189  0.7129  1.0766
  144SAPE  H12B15748   1.262   3.803  10.822  0.6970  0.6890  0.9430
  144SAPE   C1115749   1.335   3.788  10.610 -0.0188 -0.4084 -0.1482
  144SAPE  H11A15750   1.352   3.855  10.523  1.9110 -2.3724 -1.3775
  144SAPE  H11B15751   1.243   3.731  10.588 -1.1475  0.9636  0.8045
  144SAPE     P15752   1.453   3.561  10.668  0.1679  0.0043  0.0154
  144SAPE   O1315753   1.593   3.523  10.637 -0.8356  0.1066 -0.2865
  144SAPE   O1415754   1.396   3.525  10.799  0.0817  0.4336  0.6051
  144SAPE   O1215755   1.447   3.713  10.647  0.4030 -0.5062 -0.6715
  144SAPE   O1115756   1.360   3.487  10.560 -0.0241  0.0758  0.2837
  144SAPE    C115757   1.407   3.408  10.459  0.1834  0.6806 -0.2973
  144SAPE    HA15758   1.497   3.349  10.486 -0.9567 -1.2349 -0.5497
  144SAPE    HB15759   1.329   3.332  10.441  0.9940 -0.7516  1.9267
  144SAPE    C215760   1.429   3.479  10.320  0.0472  0.0139  0.1152
  144SAPE    HS15761   1.421   3.396  10.247  1.0383 -2.0906  2.2375
  144SAPE   O2115762   1.556   3.552  10.314 -0.0084 -0.1977 -0.0667
  144SAPE   C2115763   1.663   3.480  10.308  0.4156 -0.1516  0.2071
  144SAPE   O2215764   1.664   3.357  10.293 -0.2079 -0.0474 -0.0943
  144SAPE   C2215765   1.784   3.576  10.311  0.0017 -0.4947  0.4038
  144SAPE   H2R15766   1.751   3.656  10.241 -0.0101  0.5104  1.5351
  144SAPE   H2S15767   1.786   3.610  10.416 -0.7009 -1.0370  0.6051
  144SAPE    C315768   1.308   3.566  10.308 -0.3990  1.0426  0.4053
  144SAPE    HX15769   1.330   3.648  10.380  1.1267  0.1413  1.0324
  144SAPE    HY15770   1.218   3.518  10.351 -0.7660  2.2159  1.0200
  144SAPE   O3115771   1.287   3.616  10.172 -0.1035 -0.2414  0.0966
  144SAPE   C3115772   1.236   3.529  10.092  0.6359 -0.7321 -1.0151
  144SAPE   O3215773   1.210   3.415  10.125  0.1246 -0.2912  0.3377
  144SAPE   C3215774   1.216   3.602   9.957  0.0125  0.3282  0.3547
  144SAPE   H2X15775   1.318   3.626   9.922 -0.4463 -1.5620 -2.6114
  144SAPE   H2Y15776   1.167   3.701   9.970 -2.0524 -0.4360 -1.1133
  144SAPE   C2315777   1.913   3.507  10.268 -0.4178  0.0246  0.7178
  144SAPE   H3R15778   1.893   3.422  10.199  0.8831  0.3973 -0.1485
  144SAPE   H3S15779   1.961   3.471  10.361 -0.0772 -0.1406  0.4835
  144SAPE   C2415780   1.996   3.601  10.174  0.4739  0.8416 -0.3979
  144SAPE   H4R15781   1.993   3.705  10.214 -1.6690  1.7328 -2.5998
  144SAPE   H4S15782   1.940   3.611  10.079 -1.2422  0.0613  0.4900
  144SAPE   C2515783   2.126   3.530  10.142  0.3669  0.6106 -0.0502
  144SAPE   H5R15784   2.179   3.507  10.235  2.9667  0.1867 -1.5308
  144SAPE   C2615785   2.187   3.518  10.025  0.1495  0.4310 -0.2075
  144SAPE   H6R15786   2.279   3.459  10.012 -0.1903  0.1991 -1.7302
  144SAPE   C2715787   2.123   3.561   9.894 -0.2320 -0.2574 -0.1250
  144SAPE   H7R15788   2.045   3.639   9.902  0.0614  0.1287 -0.9097
  144SAPE   H7S15789   2.069   3.480   9.841  0.6705 -1.0471  0.1228
  144SAPE   C2815790   2.219   3.627   9.799  0.7833  0.4301 -0.0521
  144SAPE   H8R15791   2.244   3.733   9.814  1.4681  0.2474  0.1682
  144SAPE   C2915792   2.286   3.568   9.697  0.3229 -0.8756  0.0137
  144SAPE   H9R15793   2.353   3.622   9.628 -0.3890 -0.8793 -0.7069
  144SAPE  C21015794   2.274   3.422   9.664 -1.0933  0.4723 -0.1793
  144SAPE  H10R15795   2.234   3.356   9.744 -2.5301  1.5959  0.0736
  144SAPE  H10S15796   2.370   3.372   9.640 -2.0689 -1.0414 -1.1533
  144SAPE  C21115797   2.183   3.408   9.544  0.0102 -0.2053  0.0105
  144SAPE  H11R15798   2.077   3.432   9.560 -0.0383 -1.5988  2.3476
  144SAPE  C21215799   2.215   3.367   9.416 -0.0537 -0.3763 -0.3996
  144SAPE  H12R15800   2.132   3.379   9.344 -3.2467  0.1647  3.0334
  144SAPE  C21315801   2.347   3.331   9.346 -0.5453 -0.1202 -0.0856
  144SAPE  H13R15802   2.422   3.407   9.380  0.5427 -0.4392 -1.6585
  144SAPE  H13S15803   2.349   3.365   9.240 -0.1463 -2.0254 -0.7163
  144SAPE  C21415804   2.393   3.185   9.358  0.7816  0.0075  0.1472
  144SAPE  H14R15805   2.368   3.133   9.451 -0.6612 -1.2412 -0.8675
  144SAPE  C21515806   2.460   3.116   9.266 -0.2144 -0.2699 -0.7082
  144SAPE  H15R15807   2.502   3.019   9.296 -3.0049 -1.5838 -0.7257
  144SAPE  C21615808   2.510   3.168   9.134 -0.6859 -0.0967 -0.2821
  144SAPE  H16R15809   2.620   3.186   9.141  0.2061 -4.2864 -1.1287
  144SAPE  H16S15810   2.463   3.261   9.096  0.0784  1.2858  1.9208
  144SAPE  C21715811   2.497   3.062   9.029  0.4751 -0.1643 -0.0224
  144SAPE  H17R15812   2.394   3.027   9.011  0.5725 -1.1961  1.3278
  144SAPE  H17S15813   2.553   2.971   9.058 -0.2075 -0.2889  0.9359
  144SAPE  C21815814   2.536   3.118   8.891 -0.0094  0.0700 -0.3516
  144SAPE  H18R15815   2.639   3.154   8.907  0.0914 -0.4082  0.1117
  144SAPE  H18S15816   2.465   3.203   8.887  1.4300  1.3919  1.0734
  144SAPE  C21915817   2.507   3.020   8.778 -0.3660 -0.0312  0.3871
  144SAPE  H19R15818   2.397   3.020   8.767 -0.5867 -1.5289  2.1542
  144SAPE  H19S15819   2.544   2.918   8.801  1.2218  0.0371 -1.5218
  144SAPE  C22015820   2.575   3.073   8.646 -0.3856 -0.1412 -0.7495
  144SAPE  H20R15821   2.549   3.177   8.617  0.6237 -0.2341 -2.0977
  144SAPE  H20S15822   2.543   2.996   8.572 -1.0533 -1.3558  0.7546
  144SAPE  H20T15823   2.685   3.073   8.664 -0.6066 -0.5379  0.7224
  144SAPE   C3315824   1.142   3.517   9.855 -0.1403 -0.0389 -0.5782
  144SAPE   H3X15825   1.167   3.412   9.882  1.6072 -0.2122 -2.6457
  144SAPE   H3Y15826   1.199   3.533   9.761  0.5358 -1.7733 -0.4927
  144SAPE   C3415827   0.992   3.555   9.846  0.2688 -0.2195  0.0717
  144SAPE   H4X15828   0.993   3.639   9.773  0.2602  2.1809  2.6397
  144SAPE   H4Y15829   0.957   3.598   9.943 -1.1075 -1.1219  0.0068
  144SAPE   C3515830   0.909   3.430   9.811  0.3984  0.1878 -0.6517
  144SAPE   H5X15831   0.802   3.458   9.820  1.4007  4.0385  1.2230
  144SAPE   H5Y15832   0.925   3.346   9.883  1.8010  0.4893 -0.5932
  144SAPE   C3615833   0.938   3.382   9.666  0.4138 -0.5901  0.2489
  144SAPE   H6X15834   0.869   3.296   9.653 -2.5155  1.3808  1.7162
  144SAPE   H6Y15835   1.043   3.345   9.659  0.4158 -0.8385  1.3867
  144SAPE   C3715836   0.917   3.486   9.558 -0.3981  0.5951 -0.3892
  144SAPE   H7X15837   0.979   3.576   9.579  0.7195 -0.2572  0.0396
  144SAPE   H7Y15838   0.811   3.518   9.565 -0.7264  0.9068 -4.4252
  144SAPE   C3815839   0.943   3.435   9.413 -0.2953 -0.7523 -0.2509
  144SAPE   H8X15840   0.873   3.351   9.392  0.0634 -0.8143 -1.2560
  144SAPE   H8Y15841   1.048   3.400   9.408  0.4262  0.6197  3.0103
  144SAPE   C3915842   0.925   3.551   9.310  0.2727  0.0807 -0.3014
  144SAPE   H9X15843   0.984   3.640   9.342  0.4431  0.5290 -1.8021
  144SAPE   H9Y15844   0.817   3.575   9.308  0.5806  2.0683  2.0710
  144SAPE  C31015845   0.977   3.515   9.166  0.3306 -0.3013  0.1886
  144SAPE  H10X15846   0.949   3.410   9.141 -1.2184  0.3804 -1.0954
  144SAPE  H10Y15847   1.088   3.523   9.161  0.2549  0.1625 -3.0932
  144SAPE  C31115848   0.907   3.598   9.058 -0.1742  0.0436 -0.3306
  144SAPE  H11X15849   0.932   3.704   9.079  0.8403 -0.0834 -0.8300
  144SAPE  H11Y15850   0.798   3.581   9.076 -0.0739 -1.4010 -0.9068
  144SAPE  C31215851   0.953   3.561   8.911  0.2420  0.8184 -0.4982
  144SAPE  H12X15852   0.944   3.453   8.883  5.4239 -0.1118  0.4144
  144SAPE  H12Y15853   1.058   3.594   8.901  0.5353  0.6746  1.6565
  144SAPE  C31315854   0.861   3.643   8.813  0.0440 -0.3515  0.1141
  144SAPE  H13X15855   0.876   3.750   8.836 -1.0257  0.3489 -2.1299
  144SAPE  H13Y15856   0.755   3.614   8.828 -0.1651  0.5191  0.3539
  144SAPE  C31415857   0.905   3.624   8.669 -0.3787  0.3359 -0.2458
  144SAPE  H14X15858   0.889   3.518   8.640 -0.4042  0.2403  0.1095
  144SAPE  H14Y15859   1.015   3.644   8.663 -0.5785  2.1151  1.1635
  144SAPE  C31515860   0.843   3.721   8.568  0.3398  0.8988  0.2985
  144SAPE  H15X15861   0.733   3.724   8.581  0.4614  0.9921  1.4598
  144SAPE  H15Y15862   0.862   3.687   8.464  0.1426  1.6814  0.0027
  144SAPE  C31615863   0.883   3.861   8.578  0.6262 -0.4279 -0.1028
  144SAPE  H16X15864   0.992   3.878   8.563 -0.0890  1.7213 -4.9908
  144SAPE  H16Y15865   0.844   3.908   8.670 -1.0687 -0.1968 -0.8973
  144SAPE  C31715866   0.815   3.951   8.478  0.2177  0.0940  0.1882
  144SAPE  H17X15867   0.843   3.914   8.377 -1.5595  0.5492 -0.5246
  144SAPE  H17Y15868   0.857   4.054   8.482 -1.2333  0.7777 -1.0409
  144SAPE  C31815869   0.667   3.975   8.494  0.0697 -0.0383  0.3846
  144SAPE  H18X15870   0.616   3.881   8.524  0.5700 -0.6508 -0.6396
  144SAPE  H18Y15871   0.630   4.013   8.397  0.5799 -1.1830 -0.2766
  144SAPE  H18Z15872   0.659   4.057   8.569 -1.2715  1.6965 -1.5490
  145SAPE     N15873   4.611   4.535  11.532 -0.1628  0.5715 -0.0503
  145SAPE   HN115874   4.508   4.535  11.527 -0.1887 -0.1640  0.4261
  145SAPE   HN215875   4.630   4.527  11.634  0.2688  1.4032 -0.0559
  145SAPE   HN315876   4.640   4.629  11.498 -0.4794  1.2969  1.5788
  145SAPE   C1215877   4.667   4.406  11.468 -0.1013 -0.5279 -0.3023
  145SAPE  H12A15878   4.657   4.324  11.542 -1.3965 -1.5340 -1.5335
  145SAPE  H12B15879   4.775   4.431  11.467  0.4013 -2.2080  2.1562
  145SAPE   C1115880   4.615   4.372  11.332  0.2563  0.1684 -0.1662
  145SAPE  H11A15881   4.587   4.467  11.281 -1.2567  0.5650  1.3186
  145SAPE  H11B15882   4.527   4.307  11.354 -0.0306  1.5720  3.5628
  145SAPE     P15883   4.798   4.368  11.139  0.2148  0.0307  0.2474
  145SAPE   O1315884   4.890   4.471  11.193 -0.5091  0.9547 -0.1639
  145SAPE   O1415885   4.862   4.260  11.066 -0.7447  0.6885 -0.1909
  145SAPE   O1215886   4.717   4.305  11.253  0.5038  1.2273  0.0631
  145SAPE   O1115887   4.702   4.441  11.051  0.4310 -0.6432  0.1434
  145SAPE    C115888   4.571   4.412  11.001  0.2772  0.2760 -0.2871
  145SAPE    HA15889   4.546   4.306  11.024 -2.2784  0.1282 -3.0460
  145SAPE    HB15890   4.494   4.479  11.044 -0.2590  0.4647 -1.4980
  145SAPE    C215891   4.575   4.442  10.848 -0.1179  0.3482  0.3136
  145SAPE    HS15892   4.638   4.532  10.829 -1.3504  1.1749  0.0469
  145SAPE   O2115893   4.439   4.463  10.794 -0.3991 -0.2748 -0.4891
  145SAPE   C2115894   4.389   4.580  10.830  0.3486  0.3649  0.7859
  145SAPE   O2215895   4.452   4.670  10.887  0.1271  0.5235  0.6137
  145SAPE   C2215896   4.246   4.599  10.771  0.7064  0.1298 -0.9659
  145SAPE   H2R15897   4.164   4.551  10.829  0.4665  1.7585  0.1127
  145SAPE   H2S15898   4.222   4.707  10.783 -0.1478  0.0906 -2.1513
  145SAPE    C315899   4.650   4.328  10.770  0.5213  0.1965  0.2047
  145SAPE    HX15900   4.616   4.231  10.814  0.2108  0.4909  0.6206
  145SAPE    HY15901   4.757   4.327  10.801  0.4523  0.3527  0.4519
  145SAPE   O3115902   4.633   4.317  10.625  0.2066  0.6557 -0.7554
  145SAPE   C3115903   4.701   4.395  10.548 -0.5914 -0.8641 -0.0527
  145SAPE   O3215904   4.780   4.480  10.587 -0.3055 -0.1725  0.0413
  145SAPE   C3215905   4.645   4.379  10.403  0.0661  0.3327 -0.2822
  145SAPE   H2X15906   4.535   4.393  10.411 -0.0000  0.0862 -0.7449
  145SAPE   H2Y15907   4.651   4.274  10.368 -1.8258  0.8375 -2.3446
  145SAPE   C2315908   4.231   4.564  10.621  0.2773 -0.1012  0.3452
  145SAPE   H3R15909   4.128   4.580  10.582  0.2133 -0.7985  0.2036
  145SAPE   H3S15910   4.249   4.454  10.623 -0.2651 -0.2056 -0.1508
  145SAPE   C2415911   4.340   4.618  10.527 -0.0829 -0.7406  0.0712
  145SAPE   H4R15912   4.344   4.555  10.436 -0.5401  0.1425 -0.5751
  145SAPE   H4S15913   4.441   4.599  10.569  0.2851  0.3127 -0.3019
  145SAPE   C2515914   4.336   4.763  10.485 -0.3313  0.2411  0.2648
  145SAPE   H5R15915   4.350   4.836  10.567  1.0798  0.0284  0.2394
  145SAPE   C2615916   4.314   4.825  10.365  0.0863  0.5200 -0.0287
  145SAPE   H6R15917   4.285   4.930  10.355  0.4511  0.6100 -0.1636
  145SAPE   C2715918   4.309   4.747  10.239 -0.0982  0.1477  0.3384
  145SAPE   H7R15919   4.275   4.641  10.245  1.3785 -0.3563  0.1960
  145SAPE   H7S15920   4.410   4.734  10.195  0.7288  1.3542  1.7894
  145SAPE   C2815921   4.220   4.822  10.141 -0.2951  0.0196 -0.2034
  145SAPE   H8R15922   4.127   4.862  10.183 -0.5065 -0.0323 -0.6218
  145SAPE   C2915923   4.246   4.852  10.009 -0.0430  0.2711 -0.7268
  145SAPE   H9R15924   4.183   4.918   9.948 -1.4938 -0.9808 -0.6362
  145SAPE  C21015925   4.363   4.799   9.930 -0.6204  0.1261  0.3168
  145SAPE  H10R15926   4.462   4.803   9.980  0.1331 -0.7828 -1.0514
  145SAPE  H10S15927   4.370   4.862   9.838 -1.8428  0.7465  0.6172
  145SAPE  C21115928   4.340   4.653   9.891  0.1134 -0.2298 -0.1676
  145SAPE  H11R15929   4.323   4.584   9.975  0.6550  1.0244  0.9952
  145SAPE  C21215930   4.342   4.595   9.774 -0.5719 -0.9880 -0.5026
  145SAPE  H12R15931   4.316   4.489   9.763  0.2140 -1.1451 -0.9141
  145SAPE  C21315932   4.359   4.659   9.641 -0.3163  0.3951  0.0665
  145SAPE  H13R15933   4.285   4.742   9.638  1.2321  1.7916 -0.6955
  145SAPE  H13S15934   4.316   4.585   9.571  0.7030  0.5412 -0.7436
  145SAPE  C21415935   4.500   4.690   9.603 -0.0304 -0.0836  0.0902
  145SAPE  H14R15936   4.583   4.638   9.652  3.1938  3.1448 -1.4981
  145SAPE  C21515937   4.525   4.779   9.500 -0.0831 -0.1684  0.6979
  145SAPE  H15R15938   4.629   4.808   9.481 -0.8575  2.2967 -0.0583
  145SAPE  C21615939   4.429   4.854   9.413 -0.3954 -0.5710 -0.2731
  145SAPE  H16R15940   4.439   4.962   9.436  0.7351 -0.3243 -1.7924
  145SAPE  H16S15941   4.325   4.817   9.429 -0.5096 -2.0306 -3.5018
  145SAPE  C21715942   4.451   4.838   9.260 -0.1100 -0.2672  0.2398
  145SAPE  H17R15943   4.363   4.883   9.210 -1.9616 -2.9504  0.8539
  145SAPE  H17S15944   4.458   4.729   9.240  0.7799 -0.4925  1.6046
  145SAPE  C21815945   4.581   4.908   9.206  0.6574 -0.6618 -0.2584
  145SAPE  H18R15946   4.591   4.881   9.099 -0.5517 -0.7112 -0.3755
  145SAPE  H18S15947   4.673   4.867   9.252  0.5693 -0.9819 -0.3645
  145SAPE  C21915948   4.569   5.063   9.220 -0.2010  0.2788 -0.5708
  145SAPE  H19R15949   4.573   5.100   9.325 -0.9529  0.7424 -0.6984
  145SAPE  H19S15950   4.470   5.093   9.178  0.0848  2.8479  0.4028
  145SAPE  C22015951   4.680   5.125   9.138  0.6495  0.4996  0.1543
  145SAPE  H20R15952   4.664   5.233   9.118  0.2818  0.5664  0.7793
  145SAPE  H20S15953   4.683   5.075   9.039  0.2307 -0.4210  0.5998
  145SAPE  H20T15954   4.777   5.111   9.190  0.3603  0.6606  0.7402
  145SAPE   C3315955   4.704   4.481  10.309 -0.0665  0.7241  0.3260
  145SAPE   H3X15956   4.814   4.471  10.317 -0.1101 -0.6602 -0.4882
  145SAPE   H3Y15957   4.687   4.588  10.336  0.3275  1.1687 -1.1025
  145SAPE   C3415958   4.669   4.468  10.161  0.5465  0.0189  0.9681
  145SAPE   H4X15959   4.676   4.566  10.110 -2.5095 -0.4674 -0.6420
  145SAPE   H4Y15960   4.563   4.443  10.136  1.0786  0.7079 -2.5234
  145SAPE   C3515961   4.750   4.380  10.070 -0.6096  0.4209 -0.2707
  145SAPE   H5X15962   4.736   4.272  10.091 -1.6564  0.4963 -0.5299
  145SAPE   H5Y15963   4.855   4.408  10.092 -0.6434 -0.1934  0.7110
  145SAPE   C3615964   4.729   4.400   9.917  0.2859 -0.2298 -1.0614
  145SAPE   H6X15965   4.725   4.509   9.899 -1.9870  0.0022  0.4191
  145SAPE   H6Y15966   4.641   4.353   9.868 -0.0015 -2.6020  1.4284
  145SAPE   C3715967   4.851   4.345   9.828  0.0733  0.1370 -0.6006
  145SAPE   H7X15968   4.855   4.234   9.837  1.4341  0.2341  0.3476
  145SAPE   H7Y15969   4.942   4.396   9.867 -1.2610  2.9935 -1.0131
  145SAPE   C3815970   4.839   4.364   9.681  0.5517 -0.8882  0.0174
  145SAPE   H8X15971   4.733   4.343   9.652  0.5634 -1.8371  0.6218
  145SAPE   H8Y15972   4.906   4.291   9.630  3.3781  0.4621  1.6201
  145SAPE   C3915973   4.858   4.510   9.645 -0.2739  0.4209  1.0017
  145SAPE   H9X15974   4.963   4.530   9.677 -0.1662  0.3201  0.7056
  145SAPE   H9Y15975   4.782   4.579   9.688 -2.4516 -0.1096 -1.6845
  145SAPE  C31015976   4.860   4.535   9.498  0.2978 -0.7549  0.6986
  145SAPE  H10X15977   4.757   4.534   9.457  1.3548 -0.0270 -2.1992
  145SAPE  H10Y15978   4.912   4.455   9.441  2.8936  0.5644  1.0609
  145SAPE  C31115979   4.943   4.667   9.462  0.3742  0.6239 -0.6542
  145SAPE  H11X15980   5.044   4.639   9.500 -0.8286 -4.6630 -0.5894
  145SAPE  H11Y15981   4.893   4.746   9.521 -0.8632 -0.4717 -0.1803
  145SAPE  C31215982   4.960   4.695   9.313 -0.4435  0.4691  0.0786
  145SAPE  H12X15983   4.997   4.799   9.319  0.8871  0.0351 -0.1100
  145SAPE  H12Y15984   4.861   4.694   9.263 -1.3233 -0.4826  1.7533
  145SAPE  C31315985   5.068   4.617   9.238 -0.1568  0.1122 -0.0516
  145SAPE  H13X15986   5.036   4.512   9.219  0.6202  0.1699 -1.9513
  145SAPE  H13Y15987   5.152   4.601   9.309  0.4110  2.2102 -0.1859
  145SAPE  C31415988   5.135   4.685   9.115  0.4696  0.4310 -1.0197
  145SAPE  H14X15989   5.234   4.637   9.100  0.1126  0.0769 -2.4172
  145SAPE  H14Y15990   5.157   4.789   9.147 -0.2322 -0.0553  1.2559
  145SAPE  C31515991   5.045   4.677   8.996  0.4787  0.1723 -0.1629
  145SAPE  H15X15992   4.949   4.728   9.021 -0.2332 -0.7492 -0.9366
  145SAPE  H15Y15993   5.017   4.575   8.963 -2.1721  0.9897 -0.6455
  145SAPE  C31615994   5.098   4.745   8.869 -0.0314 -0.1644  0.3072
  145SAPE  H16X15995   5.193   4.701   8.833  0.7425  2.5385 -1.2499
  145SAPE  H16Y15996   5.126   4.850   8.895  0.8847 -0.9003  2.4925
  145SAPE  C31715997   4.997   4.748   8.750 -0.3849 -0.0603 -0.3203
  145SAPE  H17X15998   4.899   4.781   8.791 -1.7824  0.0448 -3.4194
  145SAPE  H17Y15999   4.982   4.643   8.717  0.5509 -1.2026  2.6337
  145SAPE  C31816000   5.048   4.843   8.637  1.1796  0.7772 -0.3733
  145SAPE  H18X16001   5.043   4.949   8.669  0.8247  0.4933  0.5337
  145SAPE  H18Y16002   4.980   4.827   8.550  0.3949 -0.5842  0.4577
  145SAPE  H18Z16003   5.152   4.813   8.612  0.6128 -0.0472 -1.8976
  146SAPE     N16004   2.369   5.740  10.775 -0.3204  0.0539 -0.0560
  146SAPE   HN116005   2.400   5.773  10.682 -0.9828  0.1256 -0.2599
  146SAPE   HN216006   2.440   5.767  10.846 -0.4948  0.5886 -0.0842
  146SAPE   HN316007   2.363   5.636  10.771 -0.4002  0.0146  0.8548
  146SAPE   C1216008   2.242   5.806  10.823 -0.9672  0.6939  0.4015
  146SAPE  H12A16009   2.258   5.914  10.802 -1.3756  0.7685  0.4656
  146SAPE  H12B16010   2.238   5.783  10.932  1.5952  0.2206  0.4584
  146SAPE   C1116011   2.126   5.753  10.733  0.4623 -0.3824 -0.0502
  146SAPE  H11A16012   2.137   5.790  10.629 -0.9449 -0.1947 -0.1488
  146SAPE  H11B16013   2.035   5.804  10.773  0.3796 -0.0406 -0.6575
  146SAPE     P16014   1.999   5.529  10.797  0.2201  0.1645 -0.3972
  146SAPE   O1316015   2.070   5.448  10.896 -0.5184  0.0115  0.1818
  146SAPE   O1416016   1.890   5.621  10.837  0.0787  0.0108  0.2005
  146SAPE   O1216017   2.107   5.611  10.732 -0.2614 -0.0385  0.5923
  146SAPE   O1116018   1.941   5.424  10.700  0.4855 -0.1628 -0.3793
  146SAPE    C116019   2.023   5.329  10.636 -0.0498 -0.4558  0.0190
  146SAPE    HA16020   2.126   5.332  10.677  0.5294  3.3293 -1.2763
  146SAPE    HB16021   1.979   5.228  10.648 -0.9470 -0.0704  0.0374
  146SAPE    C216022   2.032   5.345  10.483 -0.7781 -0.7760  0.0326
  146SAPE    HS16023   2.102   5.262  10.460 -0.6820 -1.4086  2.3608
  146SAPE   O2116024   2.074   5.480  10.438  0.0440 -0.9272 -0.0699
  146SAPE   C2116025   2.200   5.497  10.428 -0.8960  0.0150  0.0803
  146SAPE   O2216026   2.286   5.411  10.455 -0.2979  0.2359 -0.2403
  146SAPE   C2216027   2.242   5.636  10.381 -0.3825  0.5742  0.5172
  146SAPE   H2R16028   2.192   5.714  10.443 -1.5494  0.0072  0.3108
  146SAPE   H2S16029   2.353   5.641  10.388 -0.2383  2.0767 -1.7766
  146SAPE    C316030   1.893   5.300  10.419  0.0891 -0.4400  0.2243
  146SAPE    HX16031   1.806   5.355  10.460 -0.7459 -2.3334  1.0910
  146SAPE    HY16032   1.877   5.195  10.450 -1.7907 -0.3060 -0.1798
  146SAPE   O3116033   1.900   5.303  10.271  0.0650  0.0442 -0.1362
  146SAPE   C3116034   1.866   5.418  10.219 -0.3503  0.2009  0.0631
  146SAPE   O3216035   1.855   5.525  10.278  0.1392  0.1606 -0.1225
  146SAPE   C3216036   1.842   5.394  10.076 -0.8742  0.1908 -0.1146
  146SAPE   H2X16037   1.761   5.462  10.042 -0.1026  1.2570  0.1027
  146SAPE   H2Y16038   1.800   5.293  10.057 -1.8443  0.7603 -1.1454
  146SAPE   C2316039   2.191   5.655  10.232 -0.6879 -0.2454 -0.4669
  146SAPE   H3R16040   2.223   5.758  10.207  0.6799 -0.2934  0.9477
  146SAPE   H3S16041   2.080   5.664  10.227 -0.8639 -1.9786 -0.1528
  146SAPE   C2416042   2.238   5.552  10.131 -0.1788 -0.5520 -0.0010
  146SAPE   H4R16043   2.204   5.576  10.028  2.5482 -0.0939 -0.8988
  146SAPE   H4S16044   2.189   5.458  10.163  0.8828 -1.1427 -0.0488
  146SAPE   C2516045   2.381   5.515  10.129 -0.4835  0.5995  0.1154
  146SAPE   H5R16046   2.401   5.471  10.228 -1.5209 -1.7164 -0.6358
  146SAPE   C2616047   2.469   5.533  10.024 -0.1071 -0.8341 -0.3312
  146SAPE   H6R16048   2.571   5.509  10.056  0.6883  1.4463 -0.9636
  146SAPE   C2716049   2.433   5.590   9.889 -0.1596 -0.2326 -0.1916
  146SAPE   H7R16050   2.390   5.691   9.904  0.8972  0.2653 -0.3840
  146SAPE   H7S16051   2.363   5.516   9.844 -0.6721 -0.1076  0.3979
  146SAPE   C2816052   2.556   5.608   9.795  0.1291 -0.2075 -0.0817
  146SAPE   H8R16053   2.637   5.659   9.850  1.2178 -1.0465 -0.8600
  146SAPE   C2916054   2.564   5.580   9.663 -0.7914 -0.0962 -0.4035
  146SAPE   H9R16055   2.661   5.588   9.612 -0.8831  1.4299 -0.3878
  146SAPE  C21016056   2.463   5.528   9.569  0.1207  0.1522 -0.4423
  146SAPE  H10R16057   2.371   5.504   9.626  0.4578 -1.2297 -0.4247
  146SAPE  H10S16058   2.511   5.434   9.532 -1.7651 -0.4969 -1.3234
  146SAPE  C21116059   2.415   5.628   9.466  0.4819  0.2163  0.6479
  146SAPE  H11R16060   2.327   5.685   9.499 -0.0258  1.1721 -2.1015
  146SAPE  C21216061   2.470   5.655   9.349  0.0213 -0.1601  0.3651
  146SAPE  H12R16062   2.420   5.718   9.274  0.2789  0.3198  0.5980
  146SAPE  C21316063   2.591   5.591   9.290  0.5202  0.3546 -0.0467
  146SAPE  H13R16064   2.590   5.489   9.332 -0.0864  0.1934 -0.4366
  146SAPE  H13S16065   2.680   5.648   9.324  0.3412 -0.7258  2.4596
  146SAPE  C21416066   2.582   5.590   9.138  0.4973  0.1085 -0.5305
  146SAPE  H14R16067   2.551   5.687   9.097 -0.0784  0.2689  0.2469
  146SAPE  C21516068   2.620   5.495   9.054  0.2118  0.5076  0.2364
  146SAPE  H15R16069   2.617   5.521   8.947  0.0818 -1.1514 -0.1903
  146SAPE  C21616070   2.678   5.361   9.093 -0.7206 -0.0020 -0.3258
  146SAPE  H16R16071   2.718   5.365   9.196  2.8275  2.4731 -1.6064
  146SAPE  H16S16072   2.769   5.347   9.031  0.2054  1.0079  0.7676
  146SAPE  C21716073   2.590   5.236   9.075  0.5616  1.2989  0.2160
  146SAPE  H17R16074   2.658   5.149   9.065 -0.5432  0.6133 -2.1385
  146SAPE  H17S16075   2.531   5.243   8.981 -1.0765 -0.8809  1.0134
  146SAPE  C21816076   2.491   5.219   9.184 -0.2656 -0.3026 -0.0901
  146SAPE  H18R16077   2.417   5.301   9.176  1.4235  1.2301 -0.7036
  146SAPE  H18S16078   2.534   5.229   9.286  0.4438  2.2187 -0.5692
  146SAPE  C21916079   2.421   5.086   9.167  0.2817  0.7278 -0.2612
  146SAPE  H19R16080   2.351   5.072   9.252  1.3915  0.5284  0.6487
  146SAPE  H19S16081   2.492   5.001   9.162  0.6057  0.7940  2.2036
  146SAPE  C22016082   2.329   5.074   9.045  0.0984 -0.2175  0.1032
  146SAPE  H20R16083   2.271   4.980   9.036 -1.1896  0.4992  0.6587
  146SAPE  H20S16084   2.385   5.099   8.952 -0.4424 -0.4838 -0.2974
  146SAPE  H20T16085   2.243   5.143   9.059 -1.4907 -1.5379 -2.4691
  146SAPE   C3316086   1.956   5.421   9.976  0.1213  0.6571 -0.7157
  146SAPE   H3X16087   2.037   5.353  10.009 -0.7976 -0.3884 -0.5438
  146SAPE   H3Y16088   1.994   5.525   9.989 -0.4328  0.7899 -0.1008
  146SAPE   C3416089   1.913   5.399   9.828 -0.3227  0.0650  0.2252
  146SAPE   H4X16090   1.816   5.452   9.816 -0.6144 -0.0866  1.7145
  146SAPE   H4Y16091   1.879   5.294   9.812  1.6467 -0.5317 -0.3145
  146SAPE   C3516092   2.016   5.435   9.726  0.1494  0.1601 -0.1047
  146SAPE   H5X16093   2.111   5.378   9.734 -0.2363 -0.7367 -1.4832
  146SAPE   H5Y16094   2.049   5.541   9.731  0.5101  0.0108  3.1524
  146SAPE   C3616095   1.964   5.411   9.587  0.7089  0.0537  0.7992
  146SAPE   H6X16096   1.881   5.485   9.587  2.6972  2.4089 -0.4422
  146SAPE   H6Y16097   1.916   5.312   9.569  2.9431 -0.6505 -2.1624
  146SAPE   C3716098   2.054   5.421   9.471  0.4994 -0.1808 -0.3916
  146SAPE   H7X16099   2.140   5.353   9.489  1.3876  0.5949 -1.5623
  146SAPE   H7Y16100   2.097   5.523   9.474  0.7361 -0.1988 -2.3478
  146SAPE   C3816101   2.001   5.393   9.326  0.1211 -0.6753  0.2433
  146SAPE   H8X16102   1.900   5.438   9.326 -0.2381 -1.4126 -1.1940
  146SAPE   H8Y16103   1.991   5.284   9.305  0.3203 -1.1023  2.1940
  146SAPE   C3916104   2.091   5.452   9.221 -1.0075 -0.1363 -0.9664
  146SAPE   H9X16105   2.188   5.405   9.249 -0.7471  1.4472  0.9774
  146SAPE   H9Y16106   2.117   5.558   9.243  1.1798 -0.9786  0.9830
  146SAPE  C31016107   2.049   5.419   9.077  0.6439  0.0814 -0.6237
  146SAPE  H10X16108   1.950   5.463   9.055  0.7642  1.6472  1.6202
  146SAPE  H10Y16109   2.040   5.309   9.070  2.6308 -0.0452 -2.1695
  146SAPE  C31116110   2.146   5.454   8.958 -0.2292  0.1648  0.2738
  146SAPE  H11X16111   2.254   5.433   8.975 -0.4589 -1.2253  0.1286
  146SAPE  H11Y16112   2.151   5.565   8.958  3.6353  0.1384  0.2639
  146SAPE  C31216113   2.101   5.410   8.820 -0.7786 -0.9671  0.0926
  146SAPE  H12X16114   1.991   5.411   8.835 -0.4415 -0.2290  3.0633
  146SAPE  H12Y16115   2.142   5.312   8.786  2.0589  0.3267 -0.5016
  146SAPE  C31316116   2.146   5.508   8.713  0.5535  0.3916  0.2157
  146SAPE  H13X16117   2.119   5.611   8.743  2.7631  0.1222  3.8232
  146SAPE  H13Y16118   2.100   5.480   8.616 -0.2591 -0.3600  0.7956
  146SAPE  C31416119   2.299   5.518   8.695 -0.4568  0.2428 -0.0851
  146SAPE  H14X16120   2.336   5.547   8.796 -0.9206 -1.3864  0.5811
  146SAPE  H14Y16121   2.336   5.586   8.616 -0.2425  0.9168  0.5842
  146SAPE  C31516122   2.371   5.384   8.674 -0.2662  0.5366  0.0527
  146SAPE  H15X16123   2.332   5.325   8.588  1.4006 -0.6043  0.0202
  146SAPE  H15Y16124   2.349   5.330   8.768 -2.8153 -1.1784 -1.3815
  146SAPE  C31616125   2.528   5.388   8.657  0.4821 -0.0935 -0.6157
  146SAPE  H16X16126   2.574   5.300   8.707  1.0469  0.1811 -0.6419
  146SAPE  H16Y16127   2.557   5.473   8.722  0.9293  0.6139 -1.7077
  146SAPE  C31716128   2.565   5.403   8.506 -0.0861 -0.0348  0.0520
  146SAPE  H17X16129   2.529   5.497   8.460  0.8225  0.8123  1.0266
  146SAPE  H17Y16130   2.517   5.321   8.448  0.6759  1.0048 -2.1413
  146SAPE  C31816131   2.720   5.406   8.478 -0.9807  0.6198  0.0333
  146SAPE  H18X16132   2.770   5.501   8.507 -1.6268  0.6911  0.9689
  146SAPE  H18Y16133   2.742   5.379   8.373 -0.7670  0.0850  0.2134
  146SAPE  H18Z16134   2.762   5.314   8.524  0.1740 -0.1905 -2.4910
  147SAPE     N16135   6.110   4.294   6.095  0.4393  0.3804 -0.0538
  147SAPE   HN116136   6.166   4.232   6.157  1.5624  0.5408 -0.8755
  147SAPE   HN216137   6.180   4.349   6.042  0.0884  2.4675  1.5043
  147SAPE   HN316138   6.073   4.367   6.160  0.4423 -0.6103  1.1034
  147SAPE   C1216139   6.007   4.234   6.006 -0.4372  0.1211 -0.2897
  147SAPE  H12A16140   6.045   4.184   5.914 -1.5834 -0.2385 -0.5867
  147SAPE  H12B16141   5.942   4.312   5.961 -1.6541 -1.8566 -2.1683
  147SAPE   C1116142   5.904   4.140   6.079 -0.3090 -0.1857 -0.4391
  147SAPE  H11A16143   5.823   4.115   6.008  0.5281  1.3050 -1.9729
  147SAPE  H11B16144   5.855   4.195   6.163  0.7360  1.1502 -0.6799
  147SAPE     P16145   5.883   3.945   6.240 -0.0392  0.1649 -0.0074
  147SAPE   O1316146   5.750   3.907   6.184 -0.3271 -0.6767 -0.3287
  147SAPE   O1416147   5.969   3.828   6.287  0.2566 -0.0495 -0.2505
  147SAPE   O1216148   5.961   4.021   6.123  0.1279  0.1798  0.3072
  147SAPE   O1116149   5.869   4.049   6.363 -0.5861 -0.1734 -0.2216
  147SAPE    C116150   5.975   4.084   6.452 -0.0483 -0.6941 -0.2180
  147SAPE    HA16151   6.073   4.035   6.437  0.9104  1.0171  0.2134
  147SAPE    HB16152   5.999   4.192   6.446  0.5510 -0.9068 -2.0522
  147SAPE    C216153   5.935   4.061   6.605  0.3659  0.1612 -0.2933
  147SAPE    HS16154   6.015   4.103   6.670  1.5091 -0.6326 -1.1437
  147SAPE   O2116155   5.911   3.918   6.630  0.1319  0.2089  0.4971
  147SAPE   C2116156   6.022   3.849   6.640 -0.7092 -0.0258 -0.3775
  147SAPE   O2216157   6.135   3.891   6.622 -0.7197 -0.7660 -0.0842
  147SAPE   C2216158   5.987   3.700   6.649  0.5743 -0.6041 -0.7244
  147SAPE   H2R16159   5.931   3.665   6.560  1.0361 -0.3425 -1.1216
  147SAPE   H2S16160   6.088   3.655   6.644  0.9994 -0.2722  2.6353
  147SAPE    C316161   5.809   4.151   6.642  0.0049 -0.0261  0.0252
  147SAPE    HX16162   5.719   4.111   6.591  1.0205 -2.2631 -0.1429
  147SAPE    HY16163   5.822   4.253   6.602  1.3241  1.2129  3.2597
  147SAPE   O3116164   5.801   4.168   6.788  0.3095  0.2767  0.0666
  147SAPE   C3116165   5.702   4.098   6.839  0.7831 -0.1536  0.0464
  147SAPE   O3216166   5.617   4.027   6.780  0.3363 -0.2610 -0.0614
  147SAPE   C3216167   5.696   4.133   6.988  0.0719  0.3776  0.2178
  147SAPE   H2X16168   5.593   4.159   7.019  0.2397  1.5053 -0.1187
  147SAPE   H2Y16169   5.757   4.225   7.001 -0.3129  0.8087 -0.8809
  147SAPE   C2316170   5.922   3.663   6.779 -0.2509 -0.6594  0.1808
  147SAPE   H3R16171   5.895   3.555   6.773  1.2475 -1.0431 -0.1651
  147SAPE   H3S16172   5.827   3.720   6.793  0.4831  0.8050 -0.5598
  147SAPE   C2416173   6.009   3.687   6.906  0.1613  0.3324 -0.1916
  147SAPE   H4R16174   6.041   3.793   6.908  0.2407  0.3368 -1.2561
  147SAPE   H4S16175   6.101   3.624   6.900 -1.1575 -1.7634  0.5709
  147SAPE   C2516176   5.933   3.646   7.029 -0.5139  0.5188 -0.4266
  147SAPE   H5R16177   5.831   3.686   7.036 -0.7313  0.2212 -1.5916
  147SAPE   C2616178   5.979   3.577   7.134 -0.2248  0.3565  0.0371
  147SAPE   H6R16179   5.913   3.552   7.218  1.5857 -1.1035  1.0980
  147SAPE   C2716180   6.119   3.532   7.168 -0.6273 -0.1214  0.6587
  147SAPE   H7R16181   6.166   3.515   7.069  1.0298  1.4472  1.1174
  147SAPE   H7S16182   6.118   3.432   7.216  1.3314  0.5064  2.1468
  147SAPE   C2816183   6.208   3.629   7.240 -0.1525  0.3736 -0.6756
  147SAPE   H8R16184   6.248   3.709   7.176  3.7456  0.3574  1.4096
  147SAPE   C2916185   6.232   3.638   7.367 -0.7088 -0.1889 -0.5994
  147SAPE   H9R16186   6.295   3.723   7.399  0.2650 -0.7988 -0.8688
  147SAPE  C21016187   6.187   3.556   7.482 -0.9615  0.0430  0.0024
  147SAPE  H10R16188   6.273   3.547   7.552 -0.9210  0.7346  0.0459
  147SAPE  H10S16189   6.168   3.447   7.469  0.3828 -0.3700  1.2743
  147SAPE  C21116190   6.076   3.627   7.551  0.1674  0.5286  0.3284
  147SAPE  H11R16191   5.995   3.640   7.478 -0.2825  2.5610  1.1023
  147SAPE  C21216192   6.054   3.667   7.683  0.3560 -0.5491  0.4716
  147SAPE  H12R16193   5.968   3.731   7.708  0.2088 -1.1225  1.5093
  147SAPE  C21316194   6.143   3.646   7.803  0.0351 -0.6259  0.3066
  147SAPE  H13R16195   6.177   3.540   7.805  0.9432 -0.3354  1.6561
  147SAPE  H13S16196   6.076   3.657   7.891  0.2073  0.2957  0.3343
  147SAPE  C21416197   6.267   3.735   7.810 -0.2337  0.1356  0.2966
  147SAPE  H14R16198   6.318   3.723   7.714 -0.5751  0.0849  0.1180
  147SAPE  C21516199   6.293   3.836   7.888  0.0941 -0.6231  0.6421
  147SAPE  H15R16200   6.391   3.885   7.881 -1.2475  2.2102  0.1145
  147SAPE  C21616201   6.202   3.868   8.002  0.5560 -0.0026  0.1964
  147SAPE  H16R16202   6.128   3.791   8.034  2.1660 -3.2495 -3.1380
  147SAPE  H16S16203   6.150   3.963   7.980 -0.9481 -1.0743 -1.1188
  147SAPE  C21716204   6.286   3.902   8.129  0.3559  0.6293 -0.5429
  147SAPE  H17R16205   6.224   3.910   8.221  2.0111 -1.7131  0.8937
  147SAPE  H17S16206   6.340   3.998   8.115  0.4573  0.9180  1.4829
  147SAPE  C21816207   6.393   3.799   8.170 -0.4507  0.3780 -0.5250
  147SAPE  H18R16208   6.446   3.766   8.078 -0.0876  1.7982 -0.8492
  147SAPE  H18S16209   6.347   3.709   8.217  0.6088  0.7001  1.2295
  147SAPE  C21916210   6.490   3.866   8.273 -0.2644 -0.9036 -0.0617
  147SAPE  H19R16211   6.540   3.955   8.228 -1.0632 -0.2958  0.2312
  147SAPE  H19S16212   6.575   3.797   8.292 -0.3047 -0.5562  1.5374
  147SAPE  C22016213   6.437   3.892   8.411 -0.3368  0.0784 -0.2886
  147SAPE  H20R16214   6.372   3.808   8.443 -1.0749  0.5556 -0.4840
  147SAPE  H20S16215   6.375   3.984   8.419 -1.6258 -0.7022 -0.9042
  147SAPE  H20T16216   6.531   3.904   8.468 -0.7316  1.3892  0.1348
  147SAPE   C3316217   5.740   4.022   7.082 -0.5716 -0.3107  0.2864
  147SAPE   H3X16218   5.836   3.984   7.041 -1.1320 -0.3542 -1.0243
  147SAPE   H3Y16219   5.673   3.933   7.087 -1.9688  0.6889 -0.1716
  147SAPE   C3416220   5.751   4.077   7.224  0.3323  0.2918  0.4878
  147SAPE   H4X16221   5.651   4.116   7.254  0.6041  1.6292 -0.2522
  147SAPE   H4Y16222   5.826   4.159   7.230  0.6428  0.1055 -0.6478
  147SAPE   C3516223   5.789   3.972   7.333 -0.5380  0.8130  0.1330
  147SAPE   H5X16224   5.886   3.930   7.300 -0.7522  1.1068 -0.9414
  147SAPE   H5Y16225   5.717   3.889   7.316  0.9289 -0.4313 -0.2701
  147SAPE   C3616226   5.786   4.030   7.471  0.5330 -0.0966  0.4329
  147SAPE   H6X16227   5.692   4.085   7.488 -0.7285 -2.3057  0.9885
  147SAPE   H6Y16228   5.869   4.103   7.482 -0.2065  1.0822 -1.3455
  147SAPE   C3716229   5.807   3.932   7.585 -0.3241  0.6399 -0.0637
  147SAPE   H7X16230   5.912   3.897   7.598 -1.0104 -1.2170  0.8776
  147SAPE   H7Y16231   5.750   3.838   7.566  1.4313 -0.0092 -2.6321
  147SAPE   C3816232   5.759   3.988   7.724  0.5113 -0.1360 -0.4530
  147SAPE   H8X16233   5.649   3.996   7.723  0.4290 -1.1326 -0.2433
  147SAPE   H8Y16234   5.795   4.090   7.751 -2.1458  0.6208  0.4827
  147SAPE   C3916235   5.777   3.890   7.837  0.3098  0.5516  0.0343
  147SAPE   H9X16236   5.888   3.886   7.846  0.2593 -0.3093  0.3660
  147SAPE   H9Y16237   5.744   3.792   7.795 -1.1085  1.5917 -1.3974
  147SAPE  C31016238   5.718   3.931   7.970  0.0867  0.1614  1.1935
  147SAPE  H10X16239   5.607   3.929   7.964 -0.0300  0.4139  2.9206
  147SAPE  H10Y16240   5.730   4.040   7.986 -2.1775  0.4289  1.3018
  147SAPE  C31116241   5.789   3.860   8.086 -0.2703 -0.4499  0.1091
  147SAPE  H11X16242   5.899   3.861   8.071 -0.2373  3.7460 -0.6813
  147SAPE  H11Y16243   5.748   3.757   8.095 -0.3581 -0.6202 -1.9149
  147SAPE  C31216244   5.770   3.934   8.217  0.3190  0.4767 -0.3201
  147SAPE  H12X16245   5.741   3.860   8.295  2.0468  1.0964  0.9659
  147SAPE  H12Y16246   5.694   4.015   8.211  0.1994  0.3031 -1.6268
  147SAPE  C31316247   5.901   4.006   8.255 -0.1912 -0.3329  0.3552
  147SAPE  H13X16248   5.989   3.938   8.250  0.9091  1.0879 -0.0598
  147SAPE  H13Y16249   5.888   4.042   8.359  0.4057 -0.8481  0.6188
  147SAPE  C31416250   5.934   4.114   8.152 -0.0311 -0.3830  0.0126
  147SAPE  H14X16251   5.847   4.182   8.145 -0.8560 -1.5697 -2.8262
  147SAPE  H14Y16252   5.959   4.069   8.053  2.0701  1.3851 -0.3238
  147SAPE  C31516253   6.050   4.205   8.190  0.2000 -0.2252 -0.0071
  147SAPE  H15X16254   6.052   4.282   8.110 -2.3153 -0.3530 -0.2857
  147SAPE  H15Y16255   6.149   4.154   8.196  1.1991  1.4686 -1.1975
  147SAPE  C31616256   6.030   4.280   8.318  0.1005 -0.6390  0.1928
  147SAPE  H16X16257   6.118   4.343   8.341  0.1745 -0.8247  0.4216
  147SAPE  H16Y16258   6.022   4.212   8.406 -1.7982 -0.7671 -0.0459
  147SAPE  C31716259   5.907   4.370   8.329 -0.0452 -0.1129  0.4204
  147SAPE  H17X16260   5.892   4.403   8.434 -3.2651 -0.6924  0.2566
  147SAPE  H17Y16261   5.815   4.313   8.303 -0.1063 -0.9300  2.2283
  147SAPE  C31816262   5.917   4.504   8.255  1.1169  0.9219  0.1014
  147SAPE  H18X16263   5.838   4.565   8.304  1.1228  0.4828  0.6607
  147SAPE  H18Y16264   5.887   4.494   8.149  0.4990  0.7929  0.2878
  147SAPE  H18Z16265   6.011   4.562   8.268  2.3230 -1.2686  1.8491
  148SAPE     N16266   4.964   2.291   6.399 -0.4356  0.0559 -0.6106
  148SAPE   HN116267   5.044   2.298   6.333  1.8542 -0.9621  1.8572
  148SAPE   HN216268   4.910   2.209   6.366  0.5773 -0.8485 -0.0961
  148SAPE   HN316269   4.906   2.377   6.399  0.2526  0.6218  1.9452
  148SAPE   C1216270   5.035   2.277   6.535 -0.7606  0.6569  0.0614
  148SAPE  H12A16271   4.957   2.297   6.611 -0.2126  2.1996  0.2388
  148SAPE  H12B16272   5.107   2.361   6.540 -1.6999  1.4712  0.2515
  148SAPE   C1116273   5.115   2.146   6.520  0.3351 -0.2858  0.0521
  148SAPE  H11A16274   5.158   2.116   6.618  0.4342 -0.3199 -0.0024
  148SAPE  H11B16275   5.205   2.167   6.459  1.2392 -2.5283  0.5063
  148SAPE     P16276   5.115   1.912   6.414 -0.1771 -0.1342  0.1411
  148SAPE   O1316277   5.015   1.803   6.395 -0.8409  0.3700  0.2661
  148SAPE   O1416278   5.202   1.942   6.300 -0.1993 -0.0851  0.0666
  148SAPE   O1216279   5.041   2.044   6.458  0.6370  0.3590  0.3054
  148SAPE   O1116280   5.201   1.878   6.538 -0.4247  0.2515 -0.1715
  148SAPE    C116281   5.142   1.844   6.663  0.6504 -0.3269 -0.3802
  148SAPE    HA16282   5.223   1.869   6.734  0.7694 -1.6882 -0.0234
  148SAPE    HB16283   5.056   1.910   6.687 -0.4592 -1.6896 -0.4821
  148SAPE    C216284   5.113   1.697   6.689  0.6859  0.7810 -0.1202
  148SAPE    HS16285   5.047   1.664   6.606  0.4250  3.0433 -0.8810
  148SAPE   O2116286   5.036   1.701   6.807  0.4664 -0.0525 -0.2411
  148SAPE   C2116287   4.911   1.736   6.799 -0.8513  0.4577  0.4777
  148SAPE   O2216288   4.844   1.745   6.700  0.1788  0.5716  0.5293
  148SAPE   C2216289   4.855   1.760   6.934  0.6620 -0.2108  0.7877
  148SAPE   H2R16290   4.757   1.813   6.926  0.3981 -0.9536 -2.1106
  148SAPE   H2S16291   4.841   1.655   6.968 -0.1229 -0.7910 -1.1743
  148SAPE    C316292   5.236   1.613   6.705 -0.1600  0.3145  0.0142
  148SAPE    HX16293   5.281   1.607   6.604 -0.9446  1.1661 -0.4029
  148SAPE    HY16294   5.203   1.508   6.720  3.4538 -1.0299 -0.6185
  148SAPE   O3116295   5.330   1.670   6.803 -0.2940 -0.0837 -1.1127
  148SAPE   C3116296   5.397   1.580   6.867  0.5034 -0.2020  0.2168
  148SAPE   O3216297   5.395   1.458   6.849 -0.1094 -0.8573  0.4360
  148SAPE   C3216298   5.477   1.645   6.979 -0.2787 -0.0551 -0.6526
  148SAPE   H2X16299   5.559   1.703   6.932  0.0164  0.8367  0.9130
  148SAPE   H2Y16300   5.521   1.556   7.028  1.7523  0.1933 -1.9147
  148SAPE   C2316301   4.946   1.827   7.042  1.0283  0.1349 -0.6376
  148SAPE   H3R16302   4.966   1.932   7.009  4.0678 -0.3744 -0.6922
  148SAPE   H3S16303   5.049   1.786   7.039  0.2931 -1.7912 -1.3057
  148SAPE   C2416304   4.878   1.823   7.180 -0.3092 -0.5394  0.2696
  148SAPE   H4R16305   4.878   1.717   7.216  0.9491 -0.2450  1.1951
  148SAPE   H4S16306   4.773   1.859   7.178 -0.1317  0.2264  2.1010
  148SAPE   C2516307   4.956   1.911   7.283  0.0479  0.4756  0.8252
  148SAPE   H5R16308   5.064   1.891   7.282 -0.2144 -1.2589 -1.5173
  148SAPE   C2616309   4.910   1.995   7.371  0.6008  0.0964 -0.4284
  148SAPE   H6R16310   4.979   2.047   7.439  0.5285 -0.1208 -0.1856
  148SAPE   C2716311   4.763   2.025   7.397 -0.2415 -0.2201  0.1916
  148SAPE   H7R16312   4.696   1.988   7.316 -1.1886  2.3558 -0.3035
  148SAPE   H7S16313   4.742   2.134   7.395 -0.5330 -0.2734 -1.5401
  148SAPE   C2816314   4.722   1.950   7.524 -0.7204 -0.0096 -0.4958
  148SAPE   H8R16315   4.647   1.869   7.520 -1.6677  0.9062 -3.3906
  148SAPE   C2916316   4.755   1.991   7.653 -0.1769  0.5197 -0.1539
  148SAPE   H9R16317   4.717   1.924   7.732 -0.8449 -0.1309 -0.9952
  148SAPE  C21016318   4.838   2.107   7.703 -1.2267  0.0694  0.4351
  148SAPE  H10R16319   4.886   2.165   7.622  0.9416  0.1946  1.7321
  148SAPE  H10S16320   4.926   2.072   7.763  0.8154  3.0621 -0.5671
  148SAPE  C21116321   4.750   2.201   7.775  0.4729 -0.0629  0.6344
  148SAPE  H11R16322   4.693   2.269   7.710  0.3830  1.1166  1.9017
  148SAPE  C21216323   4.724   2.199   7.907 -0.4378 -0.0007 -0.7195
  148SAPE  H12R16324   4.641   2.259   7.948  0.7057  0.6105  0.8056
  148SAPE  C21316325   4.794   2.115   8.013 -0.7170 -0.2928  0.8625
  148SAPE  H13R16326   4.835   2.185   8.089 -2.6447  1.8713  0.0086
  148SAPE  H13S16327   4.878   2.053   7.973  0.7558 -0.2993  3.7117
  148SAPE  C21416328   4.704   2.018   8.079  0.8078  0.3135  0.6276
  148SAPE  H14R16329   4.684   1.931   8.014  0.5709  0.6560  0.2419
  148SAPE  C21516330   4.643   2.030   8.206 -0.2627 -0.4154  0.1868
  148SAPE  H15R16331   4.594   1.939   8.242  0.2751 -0.0570  1.9237
  148SAPE  C21616332   4.659   2.139   8.303  0.3965 -0.2306 -0.0826
  148SAPE  H16R16333   4.756   2.192   8.296 -0.6541  1.9774  1.1166
  148SAPE  H16S16334   4.652   2.098   8.406 -0.5998 -0.8014 -0.3648
  148SAPE  C21716335   4.544   2.229   8.284  0.5340  1.5766  0.6268
  148SAPE  H17R16336   4.443   2.182   8.295  1.3770 -0.4371  0.1463
  148SAPE  H17S16337   4.535   2.277   8.184  2.6120 -0.6897 -0.7610
  148SAPE  C21816338   4.550   2.346   8.391 -0.2425 -0.0396  0.4199
  148SAPE  H18R16339   4.639   2.400   8.350 -1.0119  0.4314 -0.6908
  148SAPE  H18S16340   4.552   2.317   8.498 -2.8555 -0.0105  0.5208
  148SAPE  C21916341   4.431   2.439   8.369 -0.5390 -0.1850 -1.3996
  148SAPE  H19R16342   4.413   2.456   8.261  0.5388 -0.5408 -1.6423
  148SAPE  H19S16343   4.460   2.535   8.417 -0.5730 -1.3069  0.9877
  148SAPE  C22016344   4.304   2.382   8.424 -0.1397  0.0285 -0.8600
  148SAPE  H20R16345   4.305   2.364   8.534  0.0115 -1.1515 -1.0403
  148SAPE  H20S16346   4.275   2.292   8.365  0.3146 -1.5045  1.1170
  148SAPE  H20T16347   4.236   2.467   8.405  0.1908  1.1492  2.2937
  148SAPE   C3316348   5.392   1.728   7.070  0.3509 -0.1235 -0.1212
  148SAPE   H3X16349   5.392   1.668   7.164 -2.4893 -1.5510 -0.9151
  148SAPE   H3Y16350   5.288   1.737   7.033  0.8435  1.8075 -1.1435
  148SAPE   C3416351   5.441   1.869   7.100  0.3236 -0.2740  0.0900
  148SAPE   H4X16352   5.422   1.932   7.010  3.5437  1.4756  0.4512
  148SAPE   H4Y16353   5.548   1.865   7.131  0.1973 -2.2581  0.3622
  148SAPE   C3516354   5.368   1.933   7.224 -0.3779  0.2873 -0.2013
  148SAPE   H5X16355   5.258   1.922   7.216 -0.2993  0.4811 -1.7746
  148SAPE   H5Y16356   5.379   2.043   7.220 -1.9873  0.4257 -1.4640
  148SAPE   C3616357   5.421   1.878   7.365  1.2186 -0.1625  0.2284
  148SAPE   H6X16358   5.514   1.931   7.395  0.5589  1.0623  0.1654
  148SAPE   H6Y16359   5.429   1.767   7.363 -0.8396 -0.3534 -1.0645
  148SAPE   C3716360   5.320   1.891   7.478 -0.0673 -0.6408 -0.4238
  148SAPE   H7X16361   5.361   1.844   7.571 -2.0588  0.7201  1.2475
  148SAPE   H7Y16362   5.231   1.830   7.448 -0.5683  0.5357 -1.3969
  148SAPE   C3816363   5.268   2.035   7.512 -0.1252 -0.0234  0.9640
  148SAPE   H8X16364   5.188   2.066   7.441 -2.0002 -1.3394  2.3907
  148SAPE   H8Y16365   5.353   2.105   7.501  0.2536 -0.6897 -0.7490
  148SAPE   C3916366   5.199   2.051   7.650  0.1823 -0.6731  0.4229
  148SAPE   H9X16367   5.102   1.997   7.639  0.1510 -0.5982  0.3234
  148SAPE   H9Y16368   5.161   2.155   7.658 -0.5079 -0.8695 -0.1717
  148SAPE  C31016369   5.285   2.007   7.767  0.3321 -0.0277  0.3512
  148SAPE  H10X16370   5.384   2.055   7.762 -0.1538  0.9760  0.1984
  148SAPE  H10Y16371   5.304   1.897   7.773 -0.0375 -0.0777  0.6498
  148SAPE  C31116372   5.219   2.043   7.896  0.6472  1.0515 -0.0373
  148SAPE  H11X16373   5.127   1.982   7.903  1.6039 -0.4473 -0.1526
  148SAPE  H11Y16374   5.189   2.150   7.895 -0.4685  0.7459  0.1282
  148SAPE  C31216375   5.304   2.017   8.024  0.4186 -0.1326 -0.5157
  148SAPE  H12X16376   5.400   2.070   8.004  1.8323 -1.1056  2.9431
  148SAPE  H12Y16377   5.313   1.907   8.026 -1.4112 -0.3853 -2.5645
  148SAPE  C31316378   5.238   2.075   8.146 -0.7334  0.2781  0.1748
  148SAPE  H13X16379   5.134   2.035   8.147 -0.8724  0.5905 -0.6624
  148SAPE  H13Y16380   5.231   2.183   8.122 -2.0317 -0.0569 -1.1490
  148SAPE  C31416381   5.313   2.049   8.273 -0.4068 -0.0888 -0.0728
  148SAPE  H14X16382   5.421   2.079   8.273 -0.0834 -1.0283  2.6838
  148SAPE  H14Y16383   5.322   1.940   8.292  2.7720  0.1580  0.5013
  148SAPE  C31516384   5.236   2.119   8.391  0.6692 -0.6497 -0.8687
  148SAPE  H15X16385   5.133   2.078   8.388  0.0723  0.7955 -0.7331
  148SAPE  H15Y16386   5.228   2.229   8.383  1.3663 -0.5429 -0.1676
  148SAPE  C31616387   5.295   2.075   8.532  0.2213  0.6196 -0.4647
  148SAPE  H16X16388   5.383   2.139   8.553 -0.3084  2.1320 -2.5777
  148SAPE  H16Y16389   5.333   1.972   8.511 -2.1789 -0.4638  0.1110
  148SAPE  C31716390   5.202   2.083   8.650  0.2717  0.0605 -0.4259
  148SAPE  H17X16391   5.129   2.001   8.665 -0.2768  0.6022 -0.0945
  148SAPE  H17Y16392   5.143   2.176   8.631 -1.5747 -0.4341  2.2529
  148SAPE  C31816393   5.269   2.098   8.785  0.7883  0.1713  0.0807
  148SAPE  H18X16394   5.190   2.096   8.863 -1.2888 -0.4504 -1.9173
  148SAPE  H18Y16395   5.327   2.191   8.773  1.9721 -0.6619 -0.8488
  148SAPE  H18Z16396   5.343   2.015   8.790  0.1106 -0.3830  1.8614
  149SAPE     N16397   4.754   1.761   6.385 -0.1100 -0.5380  0.0335
  149SAPE   HN116398   4.761   1.796   6.288  2.9366 -1.0628 -0.0250
  149SAPE   HN216399   4.852   1.771   6.417  0.2068 -0.9149 -0.7935
  149SAPE   HN316400   4.724   1.661   6.387  1.1502 -0.9491 -0.6013
  149SAPE   C1216401   4.668   1.834   6.483 -0.0342 -1.2192  0.5249
  149SAPE  H12A16402   4.735   1.908   6.532 -0.5444  0.5510 -1.3529
  149SAPE  H12B16403   4.621   1.766   6.557 -1.0796  0.5330  1.5497
  149SAPE   C1116404   4.551   1.904   6.402 -0.3026  0.8544 -0.8791
  149SAPE  H11A16405   4.491   1.960   6.477  1.6094  1.9886 -0.1150
  149SAPE  H11B16406   4.490   1.823   6.356  0.3940  0.8697 -1.8762
  149SAPE     P16407   4.642   2.135   6.321  0.5406  0.3535  0.0884
  149SAPE   O1316408   4.775   2.147   6.260  0.3026 -0.3169 -0.4313
  149SAPE   O1416409   4.539   2.230   6.286  0.2687 -0.5138 -0.0132
  149SAPE   O1216410   4.599   1.989   6.294  0.2157 -0.1569 -0.1389
  149SAPE   O1116411   4.668   2.140   6.479  0.1302 -0.0228 -0.0961
  149SAPE    C116412   4.632   2.255   6.558  0.7714 -0.1813  0.2850
  149SAPE    HA16413   4.673   2.353   6.525  0.5957 -0.1905  0.0282
  149SAPE    HB16414   4.522   2.272   6.555  0.6648 -0.6747  1.1020
  149SAPE    C216415   4.652   2.226   6.705  0.5659 -0.3360 -0.1315
  149SAPE    HS16416   4.750   2.176   6.715  0.7786  0.1900  0.4536
  149SAPE   O2116417   4.551   2.134   6.746  0.4426  0.3147  0.1391
  149SAPE   C2116418   4.570   2.069   6.857 -0.6897 -0.2048  0.0162
  149SAPE   O2216419   4.677   2.052   6.913  0.1730 -0.0514  0.3285
  149SAPE   C2216420   4.433   2.014   6.901 -0.0763 -0.2305 -0.6109
  149SAPE   H2R16421   4.359   2.097   6.901  0.1271 -0.0431 -1.1188
  149SAPE   H2S16422   4.409   1.937   6.824  0.9231  0.4112 -1.5771
  149SAPE    C316423   4.654   2.352   6.793 -0.0997  0.4971 -0.2633
  149SAPE    HX16424   4.550   2.391   6.789 -0.5601 -0.7537 -1.5250
  149SAPE    HY16425   4.720   2.433   6.757  2.0687 -0.1232  2.0126
  149SAPE   O3116426   4.695   2.334   6.932  0.5391 -0.2365  0.4396
  149SAPE   C3116427   4.824   2.307   6.947 -0.5851 -0.4412  0.1249
  149SAPE   O3216428   4.911   2.320   6.857  0.6721  0.7674 -0.8269
  149SAPE   C3216429   4.859   2.264   7.089  0.5791 -0.1712  0.7027
  149SAPE   H2X16430   4.890   2.157   7.089  0.3817 -0.2457 -0.5988
  149SAPE   H2Y16431   4.783   2.280   7.168 -1.3778 -1.5886 -0.7854
  149SAPE   C2316432   4.436   1.948   7.040  0.1175  0.1443 -0.3743
  149SAPE   H3R16433   4.532   1.900   7.070  0.2910  0.6048 -0.1792
  149SAPE   H3S16434   4.365   1.863   7.042 -0.1897  0.3955  2.0847
  149SAPE   C2416435   4.389   2.035   7.159 -0.2455  1.0275 -0.0148
  149SAPE   H4R16436   4.447   2.130   7.165  1.8129 -0.1220 -0.6330
  149SAPE   H4S16437   4.419   1.977   7.248 -1.7641  1.4931  0.8307
  149SAPE   C2516438   4.241   2.054   7.172 -0.3473 -0.2124  0.4935
  149SAPE   H5R16439   4.202   2.094   7.078  1.1426  0.2542  0.0351
  149SAPE   C2616440   4.170   2.045   7.288  0.2835 -0.5946  0.9038
  149SAPE   H6R16441   4.061   2.062   7.282 -0.0746 -2.3311  1.8188
  149SAPE   C2716442   4.211   1.999   7.429  0.4204  0.6768  0.2498
  149SAPE   H7R16443   4.264   1.902   7.418  0.0937  0.4516  0.6189
  149SAPE   H7S16444   4.119   1.972   7.486 -0.4682 -0.0148 -1.4139
  149SAPE   C2816445   4.298   2.088   7.509 -1.0382 -0.7355  0.0191
  149SAPE   H8R16446   4.314   2.188   7.466  0.5793 -0.5152  1.0501
  149SAPE   C2916447   4.356   2.073   7.630  0.5735  0.2920  0.0941
  149SAPE   H9R16448   4.402   2.157   7.684  0.4178  1.5921 -1.7170
  149SAPE  C21016449   4.335   1.950   7.707  1.0155  0.5507 -0.5719
  149SAPE  H10R16450   4.339   1.869   7.632  0.0442  0.4287 -0.5099
  149SAPE  H10S16451   4.232   1.947   7.748  0.6286 -0.4159 -1.5919
  149SAPE  C21116452   4.441   1.920   7.813 -0.0003  0.4474  0.0187
  149SAPE  H11R16453   4.518   1.996   7.832 -0.8049  1.1440  0.5763
  149SAPE  C21216454   4.454   1.809   7.890  0.4475 -0.3543 -0.2600
  149SAPE  H12R16455   4.527   1.820   7.972  0.0897  2.1695 -0.2061
  149SAPE  C21316456   4.349   1.690   7.888  0.1830 -0.5105 -0.3378
  149SAPE  H13R16457   4.308   1.673   7.786  1.2354  1.4443 -1.1304
  149SAPE  H13S16458   4.257   1.729   7.936  0.0442 -1.0537 -0.1529
  149SAPE  C21416459   4.391   1.563   7.958 -0.4836 -0.2119 -0.1078
  149SAPE  H14R16460   4.397   1.472   7.897  1.7847 -0.2027  0.0272
  149SAPE  C21516461   4.398   1.535   8.089  0.5557 -0.9802  0.8173
  149SAPE  H15R16462   4.442   1.440   8.122  2.5984  0.2978  2.0027
  149SAPE  C21616463   4.359   1.634   8.196  0.1158  0.0730 -0.0486
  149SAPE  H16R16464   4.372   1.737   8.157  1.4205  0.5453  1.5180
  149SAPE  H16S16465   4.435   1.639   8.277 -0.2202  0.6894  0.2379
  149SAPE  C21716466   4.214   1.622   8.258  0.3842 -0.0950  0.6091
  149SAPE  H17R16467   4.158   1.603   8.164 -2.1862 -0.1213  2.0349
  149SAPE  H17S16468   4.174   1.703   8.322  0.3876 -0.1703  0.7084
  149SAPE  C21816469   4.196   1.485   8.330 -0.1560  0.4360  0.2005
  149SAPE  H18R16470   4.270   1.463   8.410  0.3156  2.0492  0.2441
  149SAPE  H18S16471   4.208   1.408   8.251 -1.3180 -0.3219  0.7280
  149SAPE  C21916472   4.054   1.447   8.381  0.2557  0.4741 -0.1746
  149SAPE  H19R16473   4.038   1.495   8.480 -1.0282  0.1397 -0.2133
  149SAPE  H19S16474   4.051   1.337   8.391 -1.0594  0.5461  0.4056
  149SAPE  C22016475   3.928   1.489   8.298  0.0282 -0.3168 -0.1368
  149SAPE  H20R16476   3.839   1.446   8.347  0.8271  0.1240  1.7821
  149SAPE  H20S16477   3.943   1.461   8.191  0.2371  3.3804 -1.1952
  149SAPE  H20T16478   3.916   1.599   8.307  2.9818 -0.0642  2.8659
  149SAPE   C3316479   4.978   2.335   7.158  0.4073  0.2374 -0.0121
  149SAPE   H3X16480   5.068   2.321   7.094 -0.6607 -0.4557 -1.3970
  149SAPE   H3Y16481   4.993   2.283   7.255 -0.0043  1.7043  0.8589
  149SAPE   C3416482   4.949   2.487   7.183 -0.6707  0.9493  0.3519
  149SAPE   H4X16483   4.842   2.503   7.210 -0.2113  1.2897  2.1105
  149SAPE   H4Y16484   4.959   2.540   7.086  1.3830  2.2718  1.2202
  149SAPE   C3516485   5.019   2.545   7.312  0.4100  0.0843 -0.1722
  149SAPE   H5X16486   5.006   2.655   7.323  2.7082  0.2098  2.2461
  149SAPE   H5Y16487   5.128   2.528   7.298 -0.1608 -1.8385 -3.4560
  149SAPE   C3616488   4.982   2.471   7.441 -0.6519 -0.2963 -0.0026
  149SAPE   H6X16489   5.011   2.364   7.434  0.6486 -0.0439  1.1402
  149SAPE   H6Y16490   4.872   2.484   7.451 -0.5624 -0.0659  0.7486
  149SAPE   C3716491   5.050   2.544   7.563  0.4359  0.4484 -0.8116
  149SAPE   H7X16492   5.016   2.649   7.574 -0.1748  0.5089 -2.8740
  149SAPE   H7Y16493   5.161   2.542   7.566  0.4096 -0.5412  0.5446
  149SAPE   C3816494   5.009   2.463   7.690 -0.5536 -0.3877  0.4143
  149SAPE   H8X16495   5.042   2.359   7.673  3.2248  0.5962  0.8140
  149SAPE   H8Y16496   4.899   2.460   7.703 -0.5830 -2.0729 -0.0953
  149SAPE   C3916497   5.085   2.530   7.806 -0.2111 -0.0444 -0.1165
  149SAPE   H9X16498   5.091   2.638   7.779 -0.2792 -0.0210 -0.0380
  149SAPE   H9Y16499   5.186   2.485   7.796  0.3903  0.6417  2.1536
  149SAPE  C31016500   5.017   2.503   7.936  0.3902 -0.0170  0.0248
  149SAPE  H10X16501   4.911   2.473   7.925  0.2642  0.8852 -1.5980
  149SAPE  H10Y16502   5.002   2.603   7.981 -3.1648 -0.1741 -0.5153
  149SAPE  C31116503   5.087   2.410   8.025  0.3973 -0.0344 -0.3996
  149SAPE  H11X16504   5.187   2.380   7.987  1.0463 -0.4833  1.5525
  149SAPE  H11Y16505   5.034   2.313   8.036  0.8497 -0.3010 -0.5448
  149SAPE  C31216506   5.103   2.484   8.158 -0.2965  0.8833  0.6547
  149SAPE  H12X16507   5.163   2.576   8.154  2.3609 -0.7985 -1.7657
  149SAPE  H12Y16508   5.162   2.410   8.217  0.2162  0.3584 -0.4793
  149SAPE  C31316509   4.967   2.513   8.227  0.6083 -0.1238 -0.3824
  149SAPE  H13X16510   4.893   2.431   8.215  0.6122 -0.3722  1.0838
  149SAPE  H13Y16511   4.917   2.591   8.166  1.2632 -0.5924 -1.5616
  149SAPE  C31416512   4.967   2.544   8.377 -1.0923  0.0006  0.7386
  149SAPE  H14X16513   4.866   2.575   8.412 -0.4139 -1.0849  4.0524
  149SAPE  H14Y16514   5.046   2.619   8.401 -1.2527  0.0466  1.1305
  149SAPE  C31516515   5.012   2.425   8.465 -0.3660 -0.2390 -0.3095
  149SAPE  H15X16516   5.092   2.372   8.408 -0.2349 -3.4499  2.5702
  149SAPE  H15Y16517   4.926   2.357   8.484 -0.2304 -0.7521 -1.4293
  149SAPE  C31616518   5.056   2.479   8.606  0.2525  0.3256  0.0942
  149SAPE  H16X16519   5.035   2.393   8.672 -0.6435  0.0048 -0.5866
  149SAPE  H16Y16520   5.000   2.572   8.631 -0.9230  0.1308 -1.6697
  149SAPE  C31716521   5.213   2.491   8.619 -0.4969  0.5422 -0.1240
  149SAPE  H17X16522   5.238   2.582   8.561  0.7233  0.6073  0.4741
  149SAPE  H17Y16523   5.269   2.403   8.581  0.9771  0.4090  2.1700
  149SAPE  C31816524   5.270   2.512   8.760  0.3453 -0.1394  0.7511
  149SAPE  H18X16525   5.244   2.431   8.831 -2.2799 -1.2090 -1.2762
  149SAPE  H18Y16526   5.241   2.611   8.802  2.1588 -0.5070  3.1267
  149SAPE  H18Z16527   5.379   2.504   8.740  0.0454 -2.9573 -0.1748
  150SAPE     N16528   3.229   2.229   6.194  0.0122 -0.6244 -0.5224
  150SAPE   HN116529   3.218   2.129   6.221  1.4609 -0.7369 -0.2294
  150SAPE   HN216530   3.150   2.273   6.144  2.4462  2.4475 -2.0313
  150SAPE   HN316531   3.319   2.228   6.141  0.6951 -2.4692  0.5752
  150SAPE   C1216532   3.264   2.301   6.327 -0.8996 -0.5597  0.9847
  150SAPE  H12A16533   3.374   2.295   6.337 -0.8179 -0.0534  0.5025
  150SAPE  H12B16534   3.218   2.244   6.411  1.1955 -1.0707  1.8279
  150SAPE   C1116535   3.222   2.449   6.323  0.0218 -0.2727  0.2612
  150SAPE  H11A16536   3.270   2.489   6.231 -0.3259 -0.5641 -0.0565
  150SAPE  H11B16537   3.267   2.498   6.411 -1.0350  0.1740  0.5768
  150SAPE     P16538   3.003   2.593   6.354  0.1886 -0.0783 -0.0741
  150SAPE   O1316539   3.093   2.695   6.302 -0.5865  0.4117 -0.7032
  150SAPE   O1416540   2.863   2.579   6.302  0.4626 -0.6539 -0.2058
  150SAPE   O1216541   3.083   2.460   6.327 -0.0636 -0.2765  0.3278
  150SAPE   O1116542   3.009   2.598   6.515 -0.3574 -0.2569  0.0288
  150SAPE    C116543   3.015   2.482   6.596  0.1911  0.5131  0.3682
  150SAPE    HA16544   3.096   2.412   6.567  2.9269  2.9652  1.6249
  150SAPE    HB16545   3.023   2.516   6.702  3.6366 -2.3620  1.2277
  150SAPE    C216546   2.882   2.393   6.581 -0.9419  0.5602  0.1730
  150SAPE    HS16547   2.836   2.400   6.480 -0.6585  3.3806  0.1687
  150SAPE   O2116548   2.790   2.438   6.677  0.5211 -0.7322  0.5923
  150SAPE   C2116549   2.669   2.391   6.676 -0.5149 -0.2005  0.1941
  150SAPE   O2216550   2.626   2.315   6.590  0.1666  0.0254  0.5656
  150SAPE   C2216551   2.588   2.441   6.799  0.4617  0.6006  0.6344
  150SAPE   H2R16552   2.632   2.397   6.891 -1.5902 -0.6470  1.0937
  150SAPE   H2S16553   2.603   2.551   6.804  1.9126  0.4406  0.1047
  150SAPE    C316554   2.919   2.245   6.606  0.2254 -0.1917 -0.2836
  150SAPE    HX16555   2.992   2.220   6.527  0.5084 -0.6451  0.1185
  150SAPE    HY16556   2.831   2.178   6.598 -1.7819  2.2337 -0.0158
  150SAPE   O3116557   2.980   2.224   6.740  0.2943 -0.3966  0.4777
  150SAPE   C3116558   2.900   2.204   6.841  0.0074  0.4055 -0.3100
  150SAPE   O3216559   2.783   2.169   6.839  0.1553 -0.2562 -0.2459
  150SAPE   C3216560   2.982   2.227   6.969 -0.2584  0.6778 -0.9883
  150SAPE   H2X16561   3.091   2.223   6.949  0.3098 -0.1915  1.8859
  150SAPE   H2Y16562   2.966   2.137   7.033  1.4176  0.6043 -0.6159
  150SAPE   C2316563   2.439   2.408   6.805  0.8286  0.0589 -0.1683
  150SAPE   H3R16564   2.423   2.299   6.788 -2.4011 -0.1873  3.1339
  150SAPE   H3S16565   2.386   2.474   6.733  0.3219  0.4266  0.5279
  150SAPE   C2416566   2.372   2.449   6.938  0.7371  0.5455  0.1767
  150SAPE   H4R16567   2.271   2.483   6.905 -0.1879 -1.7778  0.3898
  150SAPE   H4S16568   2.425   2.540   6.973  3.5158 -0.4735 -1.1057
  150SAPE   C2516569   2.375   2.341   7.044  0.4006  0.3979 -0.2124
  150SAPE   H5R16570   2.369   2.237   7.009 -0.8127 -0.2853  1.8389
  150SAPE   C2616571   2.403   2.356   7.175  0.2583  0.0923  0.1970
  150SAPE   H6R16572   2.435   2.268   7.234 -4.5080 -2.9377 -1.1476
  150SAPE   C2716573   2.431   2.482   7.249 -0.7646  0.1469  0.8377
  150SAPE   H7R16574   2.357   2.482   7.332 -1.9496  2.1605 -0.1362
  150SAPE   H7S16575   2.407   2.568   7.183  2.6088 -0.5951 -1.6909
  150SAPE   C2816576   2.577   2.509   7.297  0.5242  0.1542  0.3836
  150SAPE   H8R16577   2.647   2.536   7.217 -1.3100 -0.5441 -1.5620
  150SAPE   C2916578   2.616   2.502   7.427  0.7093 -0.8129  0.3627
  150SAPE   H9R16579   2.725   2.503   7.443  1.3155 -0.0133 -3.0243
  150SAPE  C21016580   2.532   2.470   7.546 -1.0953 -0.4865  0.3588
  150SAPE  H10R16581   2.423   2.464   7.529 -1.0925 -1.3214  0.6133
  150SAPE  H10S16582   2.550   2.551   7.620 -1.3335 -2.3327  2.5553
  150SAPE  C21116583   2.569   2.338   7.605 -0.4019 -0.6702 -0.2060
  150SAPE  H11R16584   2.592   2.255   7.537 -2.1007 -1.9581  0.7167
  150SAPE  C21216585   2.607   2.310   7.732 -0.1567 -0.2149  0.2620
  150SAPE  H12R16586   2.643   2.208   7.753  0.1119  0.2144  2.0219
  150SAPE  C21316587   2.624   2.408   7.843  0.5165 -0.0137  0.4870
  150SAPE  H13R16588   2.586   2.370   7.940  2.1070  0.5791  1.3980
  150SAPE  H13S16589   2.558   2.495   7.826  1.5358  0.9810  1.3986
  150SAPE  C21416590   2.768   2.453   7.845 -0.0894 -0.4726  0.1712
  150SAPE  H14R16591   2.783   2.527   7.765 -1.9422 -0.9954 -0.7341
  150SAPE  C21516592   2.863   2.392   7.915 -0.3687 -0.6962  0.6792
  150SAPE  H15R16593   2.966   2.430   7.909 -0.5311 -0.4920 -1.9575
  150SAPE  C21616594   2.856   2.281   8.012 -0.1745  0.0749  0.3380
  150SAPE  H16R16595   2.948   2.221   8.002 -0.3566  0.1887 -2.9261
  150SAPE  H16S16596   2.770   2.214   7.992 -0.8145  1.3046 -1.2622
  150SAPE  C21716597   2.848   2.336   8.158 -0.0367  0.6813  0.3317
  150SAPE  H17R16598   2.808   2.249   8.214  0.9472 -1.6257 -2.3055
  150SAPE  H17S16599   2.776   2.418   8.174 -0.2203  0.6179 -0.1497
  150SAPE  C21816600   2.990   2.381   8.202 -0.1099 -0.2954 -0.5078
  150SAPE  H18R16601   3.018   2.470   8.143 -0.9172 -1.1296 -2.2606
  150SAPE  H18S16602   3.058   2.297   8.176  1.3019  0.6036  0.1857
  150SAPE  C21916603   2.987   2.410   8.355  0.9553  0.1705  1.0750
  150SAPE  H19R16604   2.942   2.317   8.396  3.5142 -1.8542 -0.3852
  150SAPE  H19S16605   2.910   2.487   8.377  0.8511  1.1651 -2.2099
  150SAPE  C22016606   3.121   2.444   8.421  0.2585 -0.7678  0.1255
  150SAPE  H20R16607   3.193   2.364   8.395  3.0296  0.3391  3.5582
  150SAPE  H20S16608   3.117   2.454   8.532  0.7700 -2.0850  0.2679
  150SAPE  H20T16609   3.160   2.538   8.377  1.2508 -0.7909  0.9157
  150SAPE   C3316610   2.925   2.343   7.054  0.2685 -0.0374  0.5474
  150SAPE   H3X16611   2.814   2.338   7.055  0.2296  0.1109 -0.8917
  150SAPE   H3Y16612   2.951   2.438   7.003  0.0162 -0.3481 -0.1695
  150SAPE   C3416613   2.977   2.353   7.194 -0.2478 -0.7110  0.0945
  150SAPE   H4X16614   2.923   2.441   7.237 -0.9502  0.2864 -2.6610
  150SAPE   H4Y16615   3.086   2.376   7.196 -0.6486  1.3422  1.6513
  150SAPE   C3516616   2.951   2.228   7.293 -0.2256 -0.1009  0.1583
  150SAPE   H5X16617   3.026   2.156   7.254 -0.3515  1.0197 -2.3002
  150SAPE   H5Y16618   2.844   2.203   7.278 -1.2949  2.4839  2.5423
  150SAPE   C3616619   2.970   2.240   7.438 -0.1833  0.0252 -0.2682
  150SAPE   H6X16620   2.916   2.329   7.478 -0.3307 -0.6236  1.0258
  150SAPE   H6Y16621   3.078   2.261   7.455  0.2808 -1.9001 -0.7136
  150SAPE   C3716622   2.938   2.115   7.523  0.4700  0.5520  0.6345
  150SAPE   H7X16623   2.996   2.030   7.481  1.1654  0.5570  1.5551
  150SAPE   H7Y16624   2.829   2.097   7.523  0.3666  1.1136 -0.2218
  150SAPE   C3816625   2.978   2.135   7.669 -0.4511  0.2229  0.2456
  150SAPE   H8X16626   2.929   2.054   7.728 -1.2220 -1.2274 -2.2164
  150SAPE   H8Y16627   2.933   2.233   7.696  0.1208  1.0898 -1.7685
  150SAPE   C3916628   3.127   2.132   7.689 -0.1283 -0.0900  0.1666
  150SAPE   H9X16629   3.178   2.125   7.590  2.5166  0.1904  1.4381
  150SAPE   H9Y16630   3.148   2.034   7.736  0.5430  0.7601  1.6920
  150SAPE  C31016631   3.178   2.241   7.788 -0.1329  0.0348 -0.1250
  150SAPE  H10X16632   3.276   2.203   7.826 -0.7780 -0.2527  1.3522
  150SAPE  H10Y16633   3.119   2.249   7.882  0.7099  4.3438  0.2086
  150SAPE  C31116634   3.191   2.383   7.732 -0.0895  0.1819  0.3333
  150SAPE  H11X16635   3.199   2.446   7.823  1.5461  1.1357 -0.4387
  150SAPE  H11Y16636   3.100   2.413   7.675  0.2051  0.0817 -0.1946
  150SAPE  C31216637   3.306   2.404   7.631  0.6383 -0.5672 -0.7036
  150SAPE  H12X16638   3.287   2.337   7.545 -1.0590 -1.2277  0.1308
  150SAPE  H12Y16639   3.394   2.370   7.691 -0.9902  0.9477  2.8515
  150SAPE  C31316640   3.333   2.554   7.604 -0.1698  0.1533  0.3696
  150SAPE  H13X16641   3.257   2.611   7.545  0.3942  0.5032 -0.0306
  150SAPE  H13Y16642   3.431   2.565   7.553 -0.2204  2.4989  0.6382
  150SAPE  C31416643   3.345   2.651   7.728 -0.1818  0.9997 -0.1981
  150SAPE  H14X16644   3.411   2.603   7.803 -0.3985  0.6640 -0.2193
  150SAPE  H14Y16645   3.246   2.675   7.773 -0.5261 -0.4232 -0.1466
  150SAPE  C31516646   3.419   2.788   7.702 -0.1224  0.8738  0.5663
  150SAPE  H15X16647   3.342   2.846   7.646 -1.1246 -1.3186 -0.4457
  150SAPE  H15Y16648   3.500   2.770   7.628  0.0931  2.3965  0.4026
  150SAPE  C31616649   3.484   2.859   7.818  0.5592  0.9065  0.4682
  150SAPE  H16X16650   3.526   2.956   7.784  0.2800  1.7439  2.3955
  150SAPE  H16Y16651   3.553   2.792   7.872  0.8987  0.7890 -0.1023
  150SAPE  C31716652   3.375   2.889   7.925 -0.4019 -0.2722  0.7845
  150SAPE  H17X16653   3.316   2.802   7.960 -2.9849  0.7574 -0.7655
  150SAPE  H17Y16654   3.292   2.955   7.893 -2.0029 -1.6458  1.9113
  150SAPE  C31816655   3.434   2.948   8.054  0.4253  0.3413 -0.4084
  150SAPE  H18X16656   3.362   2.959   8.137 -0.1374  0.5264 -0.9151
  150SAPE  H18Y16657   3.481   3.045   8.025  1.0450 -0.3557 -1.8959
  150SAPE  H18Z16658   3.513   2.880   8.092 -0.9364 -2.2030 -1.8523
  151SAPE     N16659   4.187   1.038   6.270  0.4919  0.0176 -0.9700
  151SAPE   HN116660   4.084   1.043   6.286  0.8858  0.5549  1.9476
  151SAPE   HN216661   4.224   1.090   6.189  0.8460  1.1307 -0.1103
  151SAPE   HN316662   4.230   0.944   6.280  0.7867  0.3648  1.5739
  151SAPE   C1216663   4.230   1.112   6.399 -0.4729  0.7777 -0.1056
  151SAPE  H12A16664   4.163   1.074   6.479 -2.0813  0.9081 -1.3393
  151SAPE  H12B16665   4.209   1.218   6.373  0.6264  0.8862 -0.5865
  151SAPE   C1116666   4.383   1.105   6.416  0.1585 -0.5208 -0.4165
  151SAPE  H11A16667   4.407   0.998   6.436  0.1330 -0.4896 -0.2237
  151SAPE  H11B16668   4.423   1.159   6.504 -0.4466 -3.2533  1.6903
  151SAPE     P16669   4.562   1.095   6.224  0.1067 -0.2433 -0.0431
  151SAPE   O1316670   4.523   0.984   6.137  0.4470  0.4783  0.1200
  151SAPE   O1416671   4.626   1.209   6.151 -0.5874 -0.1907  0.2820
  151SAPE   O1216672   4.436   1.161   6.299 -0.0663 -0.0622  0.3340
  151SAPE   O1116673   4.651   1.046   6.346  0.4538 -0.2640 -0.0617
  151SAPE    C116674   4.744   1.128   6.419  0.3490 -0.1341  0.1898
  151SAPE    HA16675   4.848   1.093   6.399 -0.1164 -2.6479  1.6557
  151SAPE    HB16676   4.753   1.231   6.380 -1.7212  1.4458  3.4363
  151SAPE    C216677   4.708   1.120   6.564 -0.2770  0.3349 -1.0588
  151SAPE    HS16678   4.614   1.177   6.581  0.7025  1.3035  1.6431
  151SAPE   O2116679   4.815   1.183   6.642  0.4125  0.3964  0.6116
  151SAPE   C2116680   4.789   1.237   6.750  0.4317  0.0533  0.1917
  151SAPE   O2216681   4.681   1.249   6.809 -0.4200 -0.5670  0.4846
  151SAPE   C2216682   4.922   1.299   6.806  0.4394 -0.0162  0.2244
  151SAPE   H2R16683   5.012   1.240   6.781  2.3791  1.4890  3.0782
  151SAPE   H2S16684   4.943   1.399   6.761 -0.1201  0.2465  0.5341
  151SAPE    C316685   4.674   0.971   6.601 -0.0457  0.5261 -0.0069
  151SAPE    HX16686   4.759   0.919   6.552 -1.8779 -2.3278 -0.3695
  151SAPE    HY16687   4.583   0.941   6.544 -0.2124  2.3041 -0.7445
  151SAPE   O3116688   4.669   0.944   6.746 -0.7635 -0.0931 -0.0726
  151SAPE   C3116689   4.547   0.926   6.797  0.0511  0.1764  0.3764
  151SAPE   O3216690   4.442   0.898   6.738 -0.6169  0.5313  0.4544
  151SAPE   C3216691   4.560   0.940   6.946  0.4542  0.0873 -0.6923
  151SAPE   H2X16692   4.643   1.008   6.975 -0.6647  0.7899  1.0090
  151SAPE   H2Y16693   4.582   0.839   6.988 -1.1707 -1.3007 -2.9622
  151SAPE   C2316694   4.907   1.332   6.953 -0.7896 -0.6743 -0.9532
  151SAPE   H3R16695   4.875   1.242   7.009 -0.9765  0.2732  0.5241
  151SAPE   H3S16696   4.816   1.394   6.966  0.3679  1.3230 -1.8798
  151SAPE   C2416697   5.019   1.413   7.022 -0.3039 -0.1457  0.1983
  151SAPE   H4R16698   4.995   1.433   7.128 -0.9856 -2.0597  0.4568
  151SAPE   H4S16699   5.026   1.514   6.977  1.7977 -0.1493  0.4208
  151SAPE   C2516700   5.159   1.358   7.017  0.5931  0.4744  0.6396
  151SAPE   H5R16701   5.188   1.301   6.928 -1.4812  2.6721 -1.5847
  151SAPE   C2616702   5.258   1.368   7.113  1.1552 -0.0047 -0.7290
  151SAPE   H6R16703   5.360   1.334   7.092  1.3179 -0.1219  0.1963
  151SAPE   C2716704   5.250   1.443   7.244  0.0845  0.0270  0.2109
  151SAPE   H7R16705   5.204   1.544   7.235 -1.0822 -0.1100  3.2589
  151SAPE   H7S16706   5.350   1.478   7.278 -0.1895  1.3033 -0.2237
  151SAPE   C2816707   5.170   1.362   7.347  0.3719 -0.3453  0.0929
  151SAPE   H8R16708   5.124   1.264   7.325  0.5449 -0.6535  1.0389
  151SAPE   C2916709   5.133   1.418   7.467  0.2864  0.1981 -0.0382
  151SAPE   H9R16710   5.077   1.366   7.546 -1.0798 -0.6985 -1.5354
  151SAPE  C21016711   5.166   1.553   7.521 -0.4828  0.1870 -0.0316
  151SAPE  H10R16712   5.264   1.581   7.479 -0.2900  0.6880  0.7375
  151SAPE  H10S16713   5.172   1.561   7.632  1.7268 -1.0329 -0.0154
  151SAPE  C21116714   5.060   1.641   7.471 -0.8609 -0.5005  0.5328
  151SAPE  H11R16715   5.068   1.656   7.363 -0.0542  0.6452  0.7390
  151SAPE  C21216716   4.965   1.703   7.544 -0.6021  0.2950 -0.4665
  151SAPE  H12R16717   4.883   1.752   7.490 -0.2080  1.9759  0.4040
  151SAPE  C21316718   4.941   1.686   7.698  0.2220  0.3233  0.8325
  151SAPE  H13R16719   4.963   1.777   7.758 -0.3893  0.6490  0.5731
  151SAPE  H13S16720   5.017   1.614   7.736  1.2356  0.1789 -1.3403
  151SAPE  C21416721   4.801   1.632   7.727  0.6225 -0.1767 -0.4001
  151SAPE  H14R16722   4.716   1.659   7.663 -0.5467  0.4810  1.3642
  151SAPE  C21516723   4.768   1.565   7.841  0.3656  0.2993 -0.1164
  151SAPE  H15R16724   4.661   1.550   7.860  0.3845  0.9149  0.5590
  151SAPE  C21616725   4.854   1.531   7.956 -0.5030 -0.0457 -0.5576
  151SAPE  H16R16726   4.961   1.551   7.933 -0.3282 -1.1312 -0.7855
  151SAPE  H16S16727   4.836   1.423   7.978 -0.1693 -0.4387 -2.0842
  151SAPE  C21716728   4.821   1.609   8.087  0.5847  0.2890 -0.4587
  151SAPE  H17R16729   4.713   1.596   8.111  0.0421  3.4551 -0.7632
  151SAPE  H17S16730   4.835   1.719   8.088  0.6281  0.3028  1.7733
  151SAPE  C21816731   4.903   1.552   8.206 -0.2400  0.2070 -0.3539
  151SAPE  H18R16732   5.010   1.534   8.185  0.5305  3.6245 -0.0223
  151SAPE  H18S16733   4.860   1.453   8.230 -1.9210  0.4982 -1.9300
  151SAPE  C21916734   4.891   1.626   8.338  0.5221  0.3750 -0.6141
  151SAPE  H19R16735   4.944   1.571   8.419 -0.2160  0.4428 -0.0752
  151SAPE  H19S16736   4.782   1.628   8.359  0.3752  2.6709 -1.3886
  151SAPE  C22016737   4.950   1.771   8.344  0.5324  0.3765  0.5052
  151SAPE  H20R16738   4.937   1.840   8.259 -0.7083  0.2552  0.5792
  151SAPE  H20S16739   4.902   1.826   8.428  0.4285 -0.4576  1.0152
  151SAPE  H20T16740   5.058   1.761   8.368  1.1681 -0.7213 -2.4140
  151SAPE   C3316741   4.427   0.994   7.004  0.3164  0.0273  0.0886
  151SAPE   H3X16742   4.353   0.919   6.969  1.1469 -0.1870 -1.2604
  151SAPE   H3Y16743   4.406   1.095   6.964  0.6118 -0.6498 -1.8473
  151SAPE   C3416744   4.424   1.002   7.160 -0.2452  0.1424  0.3629
  151SAPE   H4X16745   4.512   1.059   7.197  1.2910  0.1695 -2.9431
  151SAPE   H4Y16746   4.447   0.899   7.195  2.1704  0.4956 -0.0090
  151SAPE   C3516747   4.299   1.054   7.228  1.0999 -0.1610 -0.3171
  151SAPE   H5X16748   4.226   0.972   7.211  1.8984 -1.2190  1.1483
  151SAPE   H5Y16749   4.267   1.146   7.175  0.6055  0.7517  1.4733
  151SAPE   C3616750   4.307   1.084   7.380 -0.0463  0.0604 -0.0204
  151SAPE   H6X16751   4.205   1.111   7.415 -0.2103 -2.1032  1.3326
  151SAPE   H6Y16752   4.367   1.177   7.386  0.2170 -0.1635  1.0750
  151SAPE   C3716753   4.365   0.977   7.476 -0.4150  0.6287 -0.0060
  151SAPE   H7X16754   4.475   0.972   7.464 -0.4837  1.7071 -1.4557
  151SAPE   H7Y16755   4.335   0.882   7.427  1.9648 -0.7389  0.9995
  151SAPE   C3816756   4.329   1.003   7.629 -0.4169 -0.1434  0.0763
  151SAPE   H8X16757   4.218   1.008   7.634 -0.4196  1.9731 -0.9955
  151SAPE   H8Y16758   4.370   1.105   7.645  0.2839 -0.5156  0.6870
  151SAPE   C3916759   4.388   0.904   7.732  0.0416  0.1936  0.2511
  151SAPE   H9X16760   4.498   0.919   7.725  0.0564  0.2697  0.6417
  151SAPE   H9Y16761   4.360   0.798   7.714 -3.4613  0.0364  4.7341
  151SAPE  C31016762   4.346   0.934   7.876  0.2524  0.3215 -0.3101
  151SAPE  H10X16763   4.243   0.975   7.886  0.4255  0.8702 -0.7043
  151SAPE  H10Y16764   4.422   1.003   7.918 -0.3980 -0.0034  1.5029
  151SAPE  C31116765   4.374   0.814   7.965  0.3277  0.0531 -0.1633
  151SAPE  H11X16766   4.475   0.773   7.942 -0.7121 -1.4739 -2.3847
  151SAPE  H11Y16767   4.299   0.733   7.968  0.6436 -0.2425 -0.1659
  151SAPE  C31216768   4.392   0.868   8.112  1.0392  0.0484  0.7320
  151SAPE  H12X16769   4.384   0.772   8.167 -2.3175 -0.5754 -0.5408
  151SAPE  H12Y16770   4.309   0.930   8.152  0.0060 -0.3595 -0.6943
  151SAPE  C31316771   4.519   0.941   8.139 -0.2191 -0.0330 -0.5963
  151SAPE  H13X16772   4.505   1.044   8.099 -1.8083  1.6759  3.8438
  151SAPE  H13Y16773   4.603   0.883   8.094 -0.3438  0.0565 -0.9514
  151SAPE  C31416774   4.565   0.956   8.288 -0.5939  0.3791  0.6028
  151SAPE  H14X16775   4.662   1.003   8.310  1.2171 -3.0121  0.4896
  151SAPE  H14Y16776   4.572   0.850   8.319 -0.9305  0.7913  2.1894
  151SAPE  C31516777   4.463   1.032   8.385 -0.5549  0.4118  0.4226
  151SAPE  H15X16778   4.490   1.009   8.491 -1.9079  0.0291  0.7047
  151SAPE  H15Y16779   4.362   0.985   8.379 -0.4445  0.0988  0.9139
  151SAPE  C31616780   4.474   1.187   8.370 -0.0072  0.4898  0.0594
  151SAPE  H16X16781   4.391   1.236   8.425 -0.8751 -1.4459  0.5899
  151SAPE  H16Y16782   4.456   1.218   8.265  0.5993  2.2737  0.4512
  151SAPE  C31716783   4.616   1.239   8.408 -0.2863  0.5933 -0.4153
  151SAPE  H17X16784   4.683   1.233   8.320  0.0501 -0.9092 -0.0775
  151SAPE  H17Y16785   4.650   1.158   8.476 -3.4111 -0.5282 -0.0394
  151SAPE  C31816786   4.608   1.382   8.472  0.5879 -0.4178 -0.3217
  151SAPE  H18X16787   4.706   1.433   8.463  0.6873 -0.6485 -0.5525
  151SAPE  H18Y16788   4.578   1.355   8.576 -1.5308  1.3262 -0.4228
  151SAPE  H18Z16789   4.526   1.443   8.429  1.3547 -0.1584 -1.4857
  152SAPE     N16790   2.482   3.494   6.188 -0.5536 -0.7484  0.6799
  152SAPE   HN116791   2.384   3.459   6.187 -0.3256 -1.4622 -1.3760
  152SAPE   HN216792   2.546   3.437   6.129  0.3611  0.0253  0.8916
  152SAPE   HN316793   2.523   3.489   6.283  1.0024 -1.4313  0.0086
  152SAPE   C1216794   2.479   3.633   6.126  0.0949 -0.2303 -0.2127
  152SAPE  H12A16795   2.520   3.635   6.023  0.7473 -4.5616 -0.2165
  152SAPE  H12B16796   2.538   3.699   6.193 -0.2027 -0.6957  0.5232
  152SAPE   C1116797   2.337   3.693   6.123 -0.3759  0.8251 -0.3282
  152SAPE  H11A16798   2.286   3.628   6.049  2.8156 -1.4833 -0.7588
  152SAPE  H11B16799   2.339   3.795   6.077 -2.4140  1.3101  0.5803
  152SAPE     P16800   2.283   3.793   6.370  0.3407  0.5416 -0.0303
  152SAPE   O1316801   2.161   3.808   6.450 -0.2070  0.2481 -0.3871
  152SAPE   O1416802   2.406   3.744   6.442 -0.3114  0.7307 -0.1965
  152SAPE   O1216803   2.256   3.690   6.244 -0.0975 -0.0194 -0.2936
  152SAPE   O1116804   2.309   3.926   6.296  0.2018 -0.0287  0.1340
  152SAPE    C116805   2.426   4.002   6.331  0.2957 -0.3727  0.2787
  152SAPE    HA16806   2.513   3.935   6.315 -0.1670 -1.0447  0.5427
  152SAPE    HB16807   2.438   4.081   6.254  1.9816 -1.2019 -0.3610
  152SAPE    C216808   2.425   4.074   6.472  0.4634 -0.0964  0.1601
  152SAPE    HS16809   2.423   3.992   6.547  0.4254 -1.5938 -1.4052
  152SAPE   O2116810   2.315   4.164   6.488 -0.7365 -0.0620 -0.4747
  152SAPE   C2116811   2.286   4.184   6.614  0.5647 -0.2453  0.2769
  152SAPE   O2216812   2.315   4.118   6.709  0.4673 -0.2830 -0.0956
  152SAPE   C2216813   2.212   4.316   6.627 -0.1092  0.2504 -0.5619
  152SAPE   H2R16814   2.267   4.393   6.569 -0.0809 -0.1428 -1.0643
  152SAPE   H2S16815   2.108   4.296   6.594 -1.2154  0.1852  2.6054
  152SAPE    C316816   2.561   4.145   6.502  0.3889 -0.1467 -0.0614
  152SAPE    HX16817   2.569   4.238   6.441  0.9410 -0.6718 -0.8081
  152SAPE    HY16818   2.644   4.083   6.461  1.6525 -0.3415  2.5569
  152SAPE   O3116819   2.575   4.184   6.642  0.1430  0.1403  0.0293
  152SAPE   C3116820   2.625   4.083   6.711 -0.5114 -0.4942 -0.2039
  152SAPE   O3216821   2.659   3.975   6.669 -0.2369  0.6393  0.2643
  152SAPE   C3216822   2.634   4.119   6.855 -0.4393 -0.8749  0.0065
  152SAPE   H2X16823   2.736   4.156   6.878  0.5422 -1.4093 -3.0836
  152SAPE   H2Y16824   2.613   4.024   6.910 -3.2628  0.0303  0.6467
  152SAPE   C2316825   2.214   4.368   6.777 -0.0767  1.1405 -0.7828
  152SAPE   H3R16826   2.320   4.365   6.808 -0.1391  2.1018 -0.4381
  152SAPE   H3S16827   2.154   4.298   6.839  0.3137 -1.1627 -2.8215
  152SAPE   C2416828   2.177   4.512   6.799  0.0376  0.0287  0.4088
  152SAPE   H4R16829   2.143   4.525   6.905 -1.6484  0.7089 -0.1804
  152SAPE   H4S16830   2.094   4.520   6.726  1.5306 -1.0748 -1.4809
  152SAPE   C2516831   2.286   4.603   6.765  0.4776  0.4240 -0.1582
  152SAPE   H5R16832   2.335   4.569   6.672 -2.0523  0.7476 -1.6912
  152SAPE   C2616833   2.320   4.721   6.827 -0.4442  0.5560  0.9992
  152SAPE   H6R16834   2.400   4.776   6.775 -0.0856  0.1561  1.1233
  152SAPE   C2716835   2.273   4.777   6.953 -0.6132  0.1181 -0.0416
  152SAPE   H7R16836   2.172   4.738   6.978 -0.1512 -0.4134  1.0599
  152SAPE   H7S16837   2.248   4.885   6.939  0.1327  0.4666  1.1316
  152SAPE   C2816838   2.374   4.760   7.068 -0.1309 -0.3290  0.2090
  152SAPE   H8R16839   2.470   4.712   7.045  0.0087 -0.1060  0.3327
  152SAPE   C2916840   2.347   4.788   7.197  0.5916  0.5179  0.6379
  152SAPE   H9R16841   2.409   4.756   7.282 -0.0313 -1.6283  0.3261
  152SAPE  C21016842   2.220   4.849   7.242 -0.6179 -0.4640 -0.4456
  152SAPE  H10R16843   2.167   4.781   7.312 -0.2487  0.1119  0.4114
  152SAPE  H10S16844   2.147   4.855   7.158 -0.8999  1.6896 -0.1072
  152SAPE  C21116845   2.242   4.979   7.319 -0.5570  0.6508 -0.2532
  152SAPE  H11R16846   2.213   5.074   7.270  1.2275  1.2163 -0.2686
  152SAPE  C21216847   2.288   4.991   7.447 -0.1391 -0.5900  0.8079
  152SAPE  H12R16848   2.316   5.090   7.486  0.5744 -0.1718 -0.6881
  152SAPE  C21316849   2.335   4.880   7.541 -0.7014  0.2850  0.1855
  152SAPE  H13R16850   2.413   4.925   7.605 -1.1953  1.7309 -0.2091
  152SAPE  H13S16851   2.386   4.793   7.495  0.8067  1.7739 -1.0580
  152SAPE  C21416852   2.217   4.830   7.620  0.8338 -0.3194  0.5003
  152SAPE  H14R16853   2.137   4.802   7.550 -1.3914  1.2503  2.2739
  152SAPE  C21516854   2.207   4.826   7.748 -0.1202 -0.2442 -0.2784
  152SAPE  H15R16855   2.111   4.794   7.791 -0.9667  0.5798 -1.4611
  152SAPE  C21616856   2.314   4.866   7.841 -0.5534  0.1474 -0.0016
  152SAPE  H16R16857   2.345   4.971   7.821 -0.1838 -0.0684 -0.5881
  152SAPE  H16S16858   2.399   4.800   7.815 -0.4943  1.0902 -2.4892
  152SAPE  C21716859   2.262   4.870   7.988  0.3112 -0.5399 -0.3701
  152SAPE  H17R16860   2.353   4.891   8.048  0.0244  1.2651 -0.5021
  152SAPE  H17S16861   2.227   4.769   8.020  0.1139 -0.9554 -1.8058
  152SAPE  C21816862   2.150   4.977   8.027 -0.0094  0.2218 -0.1369
  152SAPE  H18R16863   2.051   4.951   7.982 -0.1231  2.0866 -1.0733
  152SAPE  H18S16864   2.173   5.082   8.000  0.0082  0.8066  2.0184
  152SAPE  C21916865   2.127   4.983   8.174  0.7673  0.0158 -0.0332
  152SAPE  H19R16866   2.224   5.011   8.220 -0.2058  0.1025  2.0683
  152SAPE  H19S16867   2.097   4.887   8.220  1.6590 -0.1089  0.3049
  152SAPE  C22016868   2.014   5.079   8.224  1.0996  0.0215  0.0076
  152SAPE  H20R16869   2.005   5.157   8.146  1.2326 -0.1580 -0.1889
  152SAPE  H20S16870   2.041   5.115   8.326  1.5045  2.1650 -0.8051
  152SAPE  H20T16871   1.922   5.016   8.222  0.5299  0.8369 -0.0366
  152SAPE   C3316872   2.533   4.224   6.906  0.7768 -0.3708  0.0730
  152SAPE   H3X16873   2.432   4.178   6.919 -0.3174  1.9505  0.2626
  152SAPE   H3Y16874   2.513   4.309   6.838  0.5723 -0.9564 -0.6068
  152SAPE   C3416875   2.562   4.274   7.047 -0.0467 -0.7331 -0.4057
  152SAPE   H4X16876   2.664   4.318   7.045  0.1426 -1.1845 -1.5802
  152SAPE   H4Y16877   2.548   4.184   7.112 -0.3671  0.5684  1.4063
  152SAPE   C3516878   2.452   4.374   7.091 -0.5159  0.2500 -0.3355
  152SAPE   H5X16879   2.354   4.330   7.064  0.0760 -1.0749 -0.3953
  152SAPE   H5Y16880   2.461   4.468   7.032  1.0926  0.7830  0.6808
  152SAPE   C3616881   2.458   4.411   7.242 -0.9448  0.4095  0.4095
  152SAPE   H6X16882   2.464   4.312   7.293  0.1909 -0.3719 -1.1766
  152SAPE   H6Y16883   2.368   4.468   7.273 -1.6323 -0.8279  0.7651
  152SAPE   C3716884   2.573   4.504   7.294 -0.1774 -0.3022 -0.1122
  152SAPE   H7X16885   2.562   4.602   7.242  2.3291  0.8991  1.3838
  152SAPE   H7Y16886   2.675   4.467   7.271 -0.0341 -0.8735  1.3522
  152SAPE   C3816887   2.573   4.522   7.451  0.9585  0.6817  0.3659
  152SAPE   H8X16888   2.561   4.420   7.493 -0.1529  1.5262  2.2139
  152SAPE   H8Y16889   2.481   4.581   7.472  1.6882  1.6521  0.8715
  152SAPE   C3916890   2.702   4.591   7.498  0.4477  0.0175 -0.6737
  152SAPE   H9X16891   2.707   4.690   7.448 -0.5274  0.3837 -0.0731
  152SAPE   H9Y16892   2.794   4.536   7.470  0.5076 -0.3696  0.2361
  152SAPE  C31016893   2.722   4.622   7.646  0.7809  0.3282 -0.2806
  152SAPE  H10X16894   2.627   4.666   7.683  1.0824  3.0986 -2.4773
  152SAPE  H10Y16895   2.794   4.707   7.644 -1.8146  2.6994  0.7519
  152SAPE  C31116896   2.787   4.516   7.737 -0.9845  0.3990  0.3419
  152SAPE  H11X16897   2.880   4.487   7.685  0.7045  3.0291  1.6985
  152SAPE  H11Y16898   2.716   4.431   7.743  0.7602 -1.1041  0.4414
  152SAPE  C31216899   2.805   4.556   7.884  0.0018  0.4338  0.1556
  152SAPE  H12X16900   2.718   4.601   7.937  1.1144  0.8775  1.6697
  152SAPE  H12Y16901   2.888   4.630   7.890 -0.5414  0.9109  3.0712
  152SAPE  C31316902   2.834   4.437   7.978 -1.1115 -0.1722 -0.1036
  152SAPE  H13X16903   2.924   4.386   7.937 -0.8271  0.6455 -0.5340
  152SAPE  H13Y16904   2.753   4.361   7.978  0.5649 -2.0834 -1.8411
  152SAPE  C31416905   2.861   4.487   8.118  0.3075  0.5090 -0.0214
  152SAPE  H14X16906   2.773   4.540   8.162 -0.1254 -0.4516  0.3025
  152SAPE  H14Y16907   2.946   4.559   8.116  0.1871  0.6929  0.8931
  152SAPE  C31516908   2.905   4.389   8.219  0.5105  0.2129 -0.4437
  152SAPE  H15X16909   2.994   4.331   8.187  0.4112  1.3866 -3.0675
  152SAPE  H15Y16910   2.819   4.326   8.249  2.5242 -1.4210  2.4328
  152SAPE  C31616911   2.950   4.454   8.356 -0.1590  0.0420  0.0367
  152SAPE  H16X16912   2.932   4.371   8.428 -0.4477  0.6976  0.7346
  152SAPE  H16Y16913   2.890   4.543   8.383 -1.3191 -1.2431  1.8928
  152SAPE  C31716914   3.097   4.508   8.357 -0.4454  0.7466  0.1869
  152SAPE  H17X16915   3.098   4.618   8.339 -0.7230  0.8635  0.8730
  152SAPE  H17Y16916   3.160   4.461   8.279 -0.8759 -2.0325  1.3957
  152SAPE  C31816917   3.157   4.501   8.499  0.0966 -0.6441 -0.6456
  152SAPE  H18X16918   3.113   4.586   8.557  0.1341 -0.1214 -1.3706
  152SAPE  H18Y16919   3.266   4.521   8.488 -0.0432  0.1174 -0.7029
  152SAPE  H18Z16920   3.144   4.404   8.552  1.2780  0.3945  1.6889
  153SAPE     N16921   5.370   5.318   6.514 -0.1139 -0.1998  0.0463
  153SAPE   HN116922   5.364   5.393   6.585 -0.1630 -2.1631  2.2676
  153SAPE   HN216923   5.280   5.266   6.504  0.8034 -1.5808 -1.5586
  153SAPE   HN316924   5.447   5.251   6.531 -0.2463  0.0981  2.0872
  153SAPE   C1216925   5.397   5.378   6.378  0.3032 -0.9780 -0.7219
  153SAPE  H12A16926   5.458   5.469   6.398 -0.6123  0.2399 -3.0986
  153SAPE  H12B16927   5.301   5.406   6.330  1.2515  0.7645 -1.6950
  153SAPE   C1116928   5.478   5.275   6.294 -0.1095 -1.1047 -0.7306
  153SAPE  H11A16929   5.524   5.316   6.202  0.4825 -1.8815 -0.7884
  153SAPE  H11B16930   5.393   5.215   6.256 -1.9047  0.6945  0.2244
  153SAPE     P16931   5.712   5.261   6.400 -0.0029 -0.0139  0.0082
  153SAPE   O1316932   5.775   5.177   6.501  0.0572  0.2573 -0.6180
  153SAPE   O1416933   5.771   5.270   6.263 -0.1141 -0.7631 -0.5473
  153SAPE   O1216934   5.567   5.203   6.387  0.2627 -0.1839  0.7207
  153SAPE   O1116935   5.694   5.404   6.463  0.0713  0.4266 -1.0246
  153SAPE    C116936   5.815   5.483   6.484 -0.0486 -0.1468 -0.5829
  153SAPE    HA16937   5.903   5.447   6.427  0.5931  1.1372 -0.4597
  153SAPE    HB16938   5.792   5.583   6.441  1.6233 -0.2038 -1.6878
  153SAPE    C216939   5.847   5.510   6.634 -0.3162 -0.0294  0.0010
  153SAPE    HS16940   5.920   5.594   6.643 -0.5448  0.5838 -2.8378
  153SAPE   O2116941   5.914   5.400   6.699 -0.3175 -0.1753 -0.0254
  153SAPE   C2116942   6.029   5.360   6.652 -0.2367 -0.0177  0.2516
  153SAPE   O2216943   6.098   5.426   6.571  0.0817 -0.1513  0.0280
  153SAPE   C2216944   6.074   5.219   6.712 -0.1962 -0.2252  0.4453
  153SAPE   H2R16945   5.987   5.190   6.775 -0.0459 -0.9153  0.3380
  153SAPE   H2S16946   6.095   5.150   6.627  1.8385  1.7935 -0.8105
  153SAPE    C316947   5.713   5.553   6.700  0.2181 -0.3694  0.0087
  153SAPE    HX16948   5.662   5.457   6.725  1.0872 -0.9958 -0.5478
  153SAPE    HY16949   5.652   5.607   6.625  0.7190  2.1136  1.2912
  153SAPE   O3116950   5.737   5.645   6.807 -0.2665 -0.6338 -0.7315
  153SAPE   C3116951   5.618   5.685   6.862  0.4917  0.2057 -0.0681
  153SAPE   O3216952   5.514   5.647   6.812  0.0321 -1.0514  0.2268
  153SAPE   C3216953   5.624   5.781   6.977  0.6726  0.6019  0.7985
  153SAPE   H2X16954   5.541   5.851   6.953 -1.2918 -1.0904  2.2414
  153SAPE   H2Y16955   5.723   5.830   6.979  0.1555  1.6811  1.5430
  153SAPE   C2316956   6.209   5.235   6.783 -0.5284  0.1913 -0.9181
  153SAPE   H3R16957   6.183   5.287   6.878  2.1778 -0.8608  0.5246
  153SAPE   H3S16958   6.276   5.294   6.718 -2.2423  2.6996 -0.5633
  153SAPE   C2416959   6.272   5.102   6.828 -0.0222  1.0358 -0.0628
  153SAPE   H4R16960   6.294   5.056   6.730  0.0475 -0.3443  0.5850
  153SAPE   H4S16961   6.190   5.043   6.872  0.6773 -1.1509 -1.5577
  153SAPE   C2516962   6.392   5.133   6.918  0.2711  0.2772  0.2618
  153SAPE   H5R16963   6.471   5.197   6.875  1.1085 -0.5262  0.5785
  153SAPE   C2616964   6.408   5.109   7.045  0.5312  0.1203 -0.0229
  153SAPE   H6R16965   6.493   5.158   7.095 -0.4769  0.3965  1.4932
  153SAPE   C2716966   6.321   5.024   7.131  0.4208 -0.1569  0.6677
  153SAPE   H7R16967   6.283   4.944   7.065 -3.0796  1.7488  0.1140
  153SAPE   H7S16968   6.225   5.068   7.165  0.2102  0.6087 -0.8329
  153SAPE   C2816969   6.385   4.952   7.245  0.8079  0.0669 -0.4224
  153SAPE   H8R16970   6.372   4.843   7.254  1.8311  0.0528  1.2365
  153SAPE   C2916971   6.453   5.000   7.348 -0.6126 -0.0766 -0.5227
  153SAPE   H9R16972   6.485   4.933   7.430  3.3235  1.3756 -0.6181
  153SAPE  C21016973   6.488   5.138   7.375  0.0103 -0.1102  0.0414
  153SAPE  H10R16974   6.408   5.166   7.447 -1.5804 -1.1441 -1.2476
  153SAPE  H10S16975   6.475   5.201   7.285 -2.6136 -0.8364 -0.1792
  153SAPE  C21116976   6.625   5.160   7.428  0.2645 -0.1417 -1.0394
  153SAPE  H11R16977   6.706   5.134   7.358 -0.5888  0.2081 -2.1837
  153SAPE  C21216978   6.660   5.186   7.561 -0.4463 -0.4106  0.2498
  153SAPE  H12R16979   6.764   5.198   7.595 -0.8305 -1.6923  2.0330
  153SAPE  C21316980   6.564   5.204   7.674 -0.0193  0.1232 -0.2691
  153SAPE  H13R16981   6.581   5.111   7.732  1.3080 -2.0624 -3.8611
  153SAPE  H13S16982   6.456   5.206   7.647 -0.0371  2.1895 -0.2289
  153SAPE  C21416983   6.594   5.330   7.748 -0.4759  0.0591 -0.4548
  153SAPE  H14R16984   6.576   5.431   7.709 -0.5882  0.9230  1.7056
  153SAPE  C21516985   6.667   5.330   7.865 -0.1800  0.6011  0.1211
  153SAPE  H15R16986   6.698   5.429   7.902  1.6632  0.4281 -0.7911
  153SAPE  C21616987   6.720   5.219   7.951 -0.2805 -0.7645 -0.1169
  153SAPE  H16R16988   6.825   5.192   7.929 -0.3932 -0.3514 -1.2191
  153SAPE  H16S16989   6.668   5.121   7.941 -1.3799 -0.4213  1.7467
  153SAPE  C21716990   6.721   5.236   8.109 -0.5741  0.0092  0.0696
  153SAPE  H17R16991   6.625   5.231   8.165  0.5683 -1.1555  2.0837
  153SAPE  H17S16992   6.774   5.331   8.129  3.1321 -1.4188 -1.9930
  153SAPE  C21816993   6.797   5.121   8.173 -0.7503  0.4732  0.1740
  153SAPE  H18R16994   6.811   5.147   8.280 -0.0191  0.0066  0.1974
  153SAPE  H18S16995   6.889   5.098   8.115 -0.1683 -2.0162  1.9389
  153SAPE  C21916996   6.702   4.995   8.173  0.0557 -0.2660 -0.0295
  153SAPE  H19R16997   6.692   4.961   8.067 -0.2042 -0.2135 -0.0202
  153SAPE  H19S16998   6.600   5.027   8.202  0.7181  0.4896  1.5432
  153SAPE  C22016999   6.752   4.881   8.254  0.2872  0.7282  0.1415
  153SAPE  H20R17000   6.859   4.864   8.231  0.0805 -0.6415  0.1109
  153SAPE  H20S17001   6.696   4.786   8.240  0.5221  0.0542  3.1203
  153SAPE  H20T17002   6.738   4.895   8.363 -0.5964 -2.8297  0.6295
  153SAPE   C3317003   5.605   5.709   7.118  0.0497  0.7780  0.2188
  153SAPE   H3X17004   5.664   5.617   7.131  2.1374  1.9819 -0.3264
  153SAPE   H3Y17005   5.498   5.695   7.145  0.2343  1.1178  1.1446
  153SAPE   C3417006   5.664   5.796   7.225 -0.4808 -0.0081 -0.5769
  153SAPE   H4X17007   5.590   5.875   7.251  0.4921  0.8450 -0.3448
  153SAPE   H4Y17008   5.755   5.846   7.186 -1.1097  1.0350 -0.7459
  153SAPE   C3517009   5.706   5.723   7.351 -1.1493 -0.0086 -0.3305
  153SAPE   H5X17010   5.781   5.784   7.406 -2.3557 -0.6342  2.1797
  153SAPE   H5Y17011   5.763   5.632   7.324  1.6129  0.5628  2.8877
  153SAPE   C3617012   5.592   5.708   7.452 -0.4061 -0.2109  0.4435
  153SAPE   H6X17013   5.498   5.667   7.408 -0.4619  0.0348  0.3327
  153SAPE   H6Y17014   5.574   5.807   7.497  0.7468  0.2631 -0.1038
  153SAPE   C3717015   5.638   5.607   7.562 -0.6135  0.4685  0.2149
  153SAPE   H7X17016   5.748   5.612   7.570 -0.6811  0.8635  1.0293
  153SAPE   H7Y17017   5.619   5.500   7.542 -2.2907  0.6888  0.4003
  153SAPE   C3817018   5.580   5.638   7.698 -0.1012  0.8842 -0.3727
  153SAPE   H8X17019   5.469   5.627   7.700  0.1379 -2.1997  0.9999
  153SAPE   H8Y17020   5.601   5.742   7.732 -5.1316  2.3472 -0.9290
  153SAPE   C3917021   5.637   5.550   7.808 -0.5496  0.9711 -0.2138
  153SAPE   H9X17022   5.747   5.542   7.798 -0.5074  0.7239  0.3845
  153SAPE   H9Y17023   5.597   5.447   7.790  2.6519 -0.7824  1.7228
  153SAPE  C31017024   5.605   5.593   7.950  0.1892  0.3749 -0.6193
  153SAPE  H10X17025   5.499   5.569   7.973  0.0734  1.5642  0.1457
  153SAPE  H10Y17026   5.621   5.698   7.981  0.4258 -0.3558  2.0144
  153SAPE  C31117027   5.679   5.505   8.055  0.1312 -1.0226 -0.2038
  153SAPE  H11X17028   5.786   5.534   8.041 -0.0851  0.0091  0.2206
  153SAPE  H11Y17029   5.673   5.395   8.041  2.6572 -1.1845 -0.6091
  153SAPE  C31217030   5.656   5.544   8.197  0.0885  0.2948 -0.0111
  153SAPE  H12X17031   5.554   5.519   8.234  0.1362  2.4285  1.7180
  153SAPE  H12Y17032   5.648   5.654   8.208  1.0889  0.2738  1.0548
  153SAPE  C31317033   5.764   5.504   8.305  1.0410 -0.1934  0.1235
  153SAPE  H13X17034   5.743   5.577   8.385  1.2364  1.1687 -1.0318
  153SAPE  H13Y17035   5.867   5.516   8.264  0.6108  0.6771 -0.7196
  153SAPE  C31417036   5.744   5.366   8.364 -0.4675 -0.4110 -0.2819
  153SAPE  H14X17037   5.634   5.349   8.367 -0.4386 -1.0505 -1.7883
  153SAPE  H14Y17038   5.784   5.344   8.465  0.6509  2.1875 -0.0736
  153SAPE  C31517039   5.804   5.253   8.283 -0.3103 -0.2226 -0.4491
  153SAPE  H15X17040   5.915   5.242   8.281 -0.6009 -5.3540 -0.4148
  153SAPE  H15Y17041   5.767   5.276   8.180  1.5761 -0.4801 -1.2289
  153SAPE  C31617042   5.754   5.113   8.306 -0.6654 -0.0388 -0.2346
  153SAPE  H16X17043   5.644   5.117   8.303 -0.6238  0.9235 -0.7794
  153SAPE  H16Y17044   5.766   5.081   8.412  3.5697  1.0719 -0.1756
  153SAPE  C31717045   5.831   5.020   8.206  0.0979  0.4764 -0.5801
  153SAPE  H17X17046   5.940   5.041   8.218  0.3385 -1.5369  1.5090
  153SAPE  H17Y17047   5.787   5.028   8.105  1.1841  0.0284 -1.1041
  153SAPE  C31817048   5.800   4.869   8.257  0.1222  0.2955  0.3551
  153SAPE  H18X17049   5.829   4.863   8.364 -2.0838 -0.5399  0.9713
  153SAPE  H18Y17050   5.843   4.787   8.196  1.0371 -0.1217  1.5292
  153SAPE  H18Z17051   5.690   4.855   8.248  0.0286  0.8795  0.5378
  154SAPE     N17052   4.007   2.496   6.113  0.2173  0.3338  0.3630
  154SAPE   HN117053   4.054   2.588   6.099  0.8277  0.5955  3.3836
  154SAPE   HN217054   3.956   2.496   6.204 -2.0979 -2.3663 -0.7959
  154SAPE   HN317055   4.083   2.426   6.125  0.7112  0.4007 -1.9230
  154SAPE   C1217056   3.921   2.466   5.996  0.0286  0.5785 -0.0532
  154SAPE  H12A17057   3.855   2.381   6.023 -0.4123 -0.4313 -3.7740
  154SAPE  H12B17058   3.994   2.438   5.917  1.4147 -2.4608  2.0797
  154SAPE   C1117059   3.844   2.592   5.964  0.0095 -0.1242 -0.3410
  154SAPE  H11A17060   3.788   2.575   5.870 -0.2358 -1.3818  0.0088
  154SAPE  H11B17061   3.912   2.675   5.938 -1.9346  1.4254 -0.7080
  154SAPE     P17062   3.627   2.568   6.109 -0.1614 -0.1041 -0.3342
  154SAPE   O1317063   3.538   2.583   5.994  0.1201 -0.0381  0.1045
  154SAPE   O1417064   3.666   2.435   6.151 -0.2861 -0.0649 -0.1271
  154SAPE   O1217065   3.764   2.636   6.077 -0.3530  0.3473  0.2721
  154SAPE   O1117066   3.572   2.652   6.233 -0.4082 -0.3382  0.2928
  154SAPE    C117067   3.644   2.669   6.354  0.3253 -0.1231  0.1785
  154SAPE    HA17068   3.746   2.625   6.352  0.3358 -0.0804 -1.4250
  154SAPE    HB17069   3.678   2.774   6.366  0.4075  0.1594 -2.0635
  154SAPE    C217070   3.545   2.637   6.471 -0.2289  0.3997  0.5136
  154SAPE    HS17071   3.608   2.671   6.556 -2.3088  2.2922  1.4183
  154SAPE   O2117072   3.503   2.496   6.476 -0.5214 -0.5453  0.6084
  154SAPE   C2117073   3.565   2.428   6.574  0.1728 -0.2351 -0.5783
  154SAPE   O2217074   3.670   2.459   6.631 -0.2395  0.0665 -0.7545
  154SAPE   C2217075   3.486   2.304   6.614  0.2143  0.8819  0.0443
  154SAPE   H2R17076   3.429   2.257   6.531 -0.7629  0.9835  0.6296
  154SAPE   H2S17077   3.564   2.229   6.640 -0.3244 -0.2108 -1.3695
  154SAPE    C317078   3.424   2.725   6.462  0.8823  0.4274 -0.2080
  154SAPE    HX17079   3.374   2.700   6.366 -0.0410  1.5423 -0.0538
  154SAPE    HY17080   3.445   2.834   6.462  1.0813  0.4013  0.9067
  154SAPE   O3117081   3.324   2.697   6.565 -0.2664  0.1514 -0.0445
  154SAPE   C3117082   3.361   2.747   6.688 -0.5453 -0.2730  0.2508
  154SAPE   O3217083   3.470   2.796   6.712  0.1022  0.0162  0.0013
  154SAPE   C3217084   3.243   2.738   6.789  0.0802 -0.2352 -0.2526
  154SAPE   H2X17085   3.221   2.629   6.787 -0.5038 -0.1748 -3.5925
  154SAPE   H2Y17086   3.157   2.794   6.747  0.0137  0.0440  0.2454
  154SAPE   C2317087   3.378   2.346   6.729 -0.9016 -0.3930 -0.1095
  154SAPE   H3R17088   3.297   2.269   6.729 -0.5570 -0.7727 -1.6361
  154SAPE   H3S17089   3.332   2.438   6.687 -0.4938  0.2039  0.7044
  154SAPE   C2417090   3.451   2.370   6.865  0.0642  0.3335 -0.2169
  154SAPE   H4R17091   3.392   2.439   6.930  0.6023  0.2994  0.3223
  154SAPE   H4S17092   3.546   2.426   6.849 -0.1261  0.1035 -2.4292
  154SAPE   C2517093   3.468   2.238   6.922 -0.1265  1.2210  0.4627
  154SAPE   H5R17094   3.525   2.168   6.859  1.5994  0.7304  2.4421
  154SAPE   C2617095   3.437   2.203   7.049 -0.1146  0.2000  0.3249
  154SAPE   H6R17096   3.456   2.098   7.078 -0.5831  0.5573  2.0246
  154SAPE   C2717097   3.374   2.295   7.156  0.5360  0.1306 -0.0224
  154SAPE   H7R17098   3.338   2.239   7.245  0.8485  1.9554  1.3169
  154SAPE   H7S17099   3.285   2.356   7.129 -1.3114 -1.2569  2.5131
  154SAPE   C2817100   3.469   2.401   7.204 -0.1213 -0.5500 -0.0832
  154SAPE   H8R17101   3.448   2.503   7.168 -1.2109  0.2183  2.4928
  154SAPE   C2917102   3.579   2.378   7.280  0.3416  0.1730  0.2216
  154SAPE   H9R17103   3.648   2.462   7.296 -0.2760  0.9586 -1.1353
  154SAPE  C21017104   3.617   2.239   7.343 -0.2633 -0.3522  0.1607
  154SAPE  H10R17105   3.568   2.156   7.288  0.5727 -0.4664 -0.4254
  154SAPE  H10S17106   3.572   2.242   7.445 -0.0441  1.2890  0.2305
  154SAPE  C21117107   3.772   2.214   7.349  0.5520  0.1024 -0.2402
  154SAPE  H11R17108   3.822   2.244   7.256 -1.4753 -0.7944 -1.6906
  154SAPE  C21217109   3.842   2.158   7.451 -0.5417  0.0594  0.1478
  154SAPE  H12R17110   3.952   2.149   7.452 -0.6769 -1.8484  0.0668
  154SAPE  C21317111   3.796   2.114   7.590  1.1763 -0.5441  0.3398
  154SAPE  H13R17112   3.802   2.003   7.583  1.4843 -0.4497 -1.5076
  154SAPE  H13S17113   3.688   2.141   7.597  1.5090  0.3083  3.7703
  154SAPE  C21417114   3.877   2.176   7.706 -0.0403  0.6382 -0.0170
  154SAPE  H14R17115   3.985   2.188   7.690 -0.2181  2.4650 -0.0972
  154SAPE  C21517116   3.836   2.196   7.832  0.6386  0.4439 -0.2117
  154SAPE  H15R17117   3.895   2.257   7.902 -0.5921 -0.0864  1.3570
  154SAPE  C21617118   3.692   2.186   7.882 -0.2838  0.2560 -0.6124
  154SAPE  H16R17119   3.619   2.234   7.814  1.1727  0.0843 -2.3547
  154SAPE  H16S17120   3.686   2.219   7.988  0.3130  0.5072 -0.6561
  154SAPE  C21717121   3.631   2.044   7.895  0.0786 -0.4708 -0.0930
  154SAPE  H17R17122   3.703   1.983   7.953 -0.0217  1.3887  2.0965
  154SAPE  H17S17123   3.617   1.997   7.795 -1.0637  0.1212 -0.2295
  154SAPE  C21817124   3.497   2.042   7.963 -0.0310 -0.1268 -0.5840
  154SAPE  H18R17125   3.412   2.069   7.897  0.4748  2.0256 -0.4288
  154SAPE  H18S17126   3.484   2.120   8.041 -0.1733 -1.8959  1.2230
  154SAPE  C21917127   3.455   1.910   8.030 -0.1749 -0.3495  0.2693
  154SAPE  H19R17128   3.391   1.939   8.116  0.9875 -0.9012  1.3505
  154SAPE  H19S17129   3.543   1.859   8.076  0.5159  0.5298 -0.0571
  154SAPE  C22017130   3.380   1.808   7.956  0.3611  0.2991  0.6636
  154SAPE  H20R17131   3.441   1.761   7.876 -2.4562  0.6146 -1.8476
  154SAPE  H20S17132   3.289   1.850   7.909  1.3505 -0.5535 -2.2489
  154SAPE  H20T17133   3.366   1.720   8.021  2.9249 -1.9820 -1.5809
  154SAPE   C3317134   3.261   2.779   6.938  1.0655 -0.1792  0.1162
  154SAPE   H3X17135   3.244   2.889   6.936  3.6425  0.2794 -0.6088
  154SAPE   H3Y17136   3.370   2.776   6.956  1.3032  0.9160 -0.9259
  154SAPE   C3417137   3.171   2.695   7.031  0.2571 -0.4553 -0.3563
  154SAPE   H4X17138   3.182   2.589   7.000 -0.2679  0.0991 -2.6736
  154SAPE   H4Y17139   3.065   2.713   7.003  1.2607 -0.2498 -4.9020
  154SAPE   C3517140   3.206   2.716   7.180 -0.2336 -0.3490  0.0673
  154SAPE   H5X17141   3.311   2.688   7.200 -0.3515 -0.9322 -0.1044
  154SAPE   H5Y17142   3.140   2.648   7.239 -0.7651  0.5553  0.5398
  154SAPE   C3617143   3.173   2.854   7.239 -0.4592  0.6369  0.7192
  154SAPE   H6X17144   3.071   2.892   7.221 -0.4120  0.3547 -0.1775
  154SAPE   H6Y17145   3.239   2.922   7.181 -1.5337 -0.4399 -1.9275
  154SAPE   C3717146   3.200   2.853   7.395 -0.4427 -0.2885  0.7069
  154SAPE   H7X17147   3.227   2.957   7.425  0.7185 -1.0894  2.6618
  154SAPE   H7Y17148   3.290   2.793   7.422 -1.5449 -2.5942 -0.4746
  154SAPE   C3817149   3.078   2.812   7.472 -0.6969 -0.0132 -0.1555
  154SAPE   H8X17150   3.102   2.796   7.579 -2.6133 -0.9383  0.1799
  154SAPE   H8Y17151   3.042   2.713   7.439 -0.4358 -0.5940  1.2231
  154SAPE   C3917152   2.951   2.904   7.475 -0.2869 -0.4851 -0.0084
  154SAPE   H9X17153   2.938   2.948   7.374  0.4441  1.0276  0.5253
  154SAPE   H9Y17154   2.969   3.003   7.523  1.9164 -0.4750 -0.7529
  154SAPE  C31017155   2.821   2.843   7.543 -0.6919 -0.1780  0.4638
  154SAPE  H10X17156   2.777   2.780   7.463  0.1611  0.5095 -0.5693
  154SAPE  H10Y17157   2.759   2.932   7.566 -1.0536 -0.3092  0.0115
  154SAPE  C31117158   2.845   2.758   7.666 -0.5092  0.7252 -0.6555
  154SAPE  H11X17159   2.920   2.677   7.652 -1.8029 -0.9199  1.4334
  154SAPE  H11Y17160   2.750   2.707   7.688 -0.9990  1.8910  0.0409
  154SAPE  C31217161   2.886   2.836   7.789  0.1979  0.5366 -0.4404
  154SAPE  H12X17162   2.811   2.914   7.811  1.9590  2.1979 -0.0505
  154SAPE  H12Y17163   2.977   2.890   7.757  1.3026 -0.4027  0.9773
  154SAPE  C31317164   2.893   2.753   7.923  0.0983 -0.1035  0.2666
  154SAPE  H13X17165   2.954   2.661   7.912 -0.2455 -0.4136  0.9463
  154SAPE  H13Y17166   2.793   2.714   7.949 -0.1989  0.0881 -0.5453
  154SAPE  C31417167   2.963   2.826   8.040  1.0406 -0.8180  0.6417
  154SAPE  H14X17168   2.888   2.903   8.068  0.9768 -0.5871 -0.1442
  154SAPE  H14Y17169   3.042   2.889   7.994 -0.0970  0.5849  0.5447
  154SAPE  C31517170   3.025   2.745   8.159  0.4701  0.1117 -0.0017
  154SAPE  H15X17171   3.107   2.683   8.117  2.7622  3.0627 -0.2010
  154SAPE  H15Y17172   2.941   2.675   8.180 -0.0315 -0.2918 -2.8586
  154SAPE  C31617173   3.081   2.829   8.269 -0.0500 -0.1744 -0.3954
  154SAPE  H16X17174   3.154   2.901   8.228 -1.3422  0.8200 -1.0164
  154SAPE  H16Y17175   3.142   2.760   8.332 -2.6384 -0.0235  2.5336
  154SAPE  C31717176   2.982   2.892   8.370 -0.1285  0.3355 -0.4260
  154SAPE  H17X17177   3.045   2.932   8.452 -0.8383 -1.7893  1.2519
  154SAPE  H17Y17178   2.912   2.823   8.422 -0.9234  0.7764 -0.8908
  154SAPE  C31817179   2.907   3.014   8.322  0.5809  0.1742  0.9391
  154SAPE  H18X17180   2.860   3.072   8.404  1.6648  0.3506  1.4473
  154SAPE  H18Y17181   2.824   2.989   8.252  1.5207 -1.0972  0.2396
  154SAPE  H18Z17182   2.971   3.081   8.259 -1.6532  2.4769  0.9623
  155SAPE     N17183   4.816   3.950   5.753  0.3084  0.4567  0.2081
  155SAPE   HN117184   4.729   3.995   5.789  0.3303 -0.4259  1.4429
  155SAPE   HN217185   4.899   4.006   5.780  1.2763 -1.0095  0.4003
  155SAPE   HN317186   4.822   3.941   5.650  2.3818  0.9141  0.2538
  155SAPE   C1217187   4.817   3.810   5.813 -0.1579  0.0940  0.0633
  155SAPE  H12A17188   4.922   3.774   5.813 -0.0640  0.2525  1.8967
  155SAPE  H12B17189   4.757   3.742   5.748  1.6139 -2.8918  1.3528
  155SAPE   C1117190   4.769   3.795   5.965  0.2520  0.1939  0.1884
  155SAPE  H11A17191   4.785   3.688   5.993  0.4660  0.0007 -0.6486
  155SAPE  H11B17192   4.660   3.809   5.956  0.3035  0.9529  0.6537
  155SAPE     P17193   4.828   3.867   6.210  0.2050 -0.4913 -0.0856
  155SAPE   O1317194   4.876   3.988   6.268 -0.1872 -0.1519  0.1696
  155SAPE   O1417195   4.689   3.816   6.244 -0.3483  0.2806  0.6708
  155SAPE   O1217196   4.816   3.897   6.050 -0.8661  0.5026  0.5106
  155SAPE   O1117197   4.937   3.761   6.220 -0.5773 -0.2658 -0.3447
  155SAPE    C117198   5.016   3.743   6.341  0.4798 -0.2953  0.1417
  155SAPE    HA17199   5.110   3.690   6.316  1.7370  1.5218  0.8681
  155SAPE    HB17200   5.042   3.841   6.385  2.8014 -1.2333  0.9819
  155SAPE    C217201   4.950   3.662   6.451  0.1487  0.2133  0.0415
  155SAPE    HS17202   4.926   3.565   6.401 -1.3674  0.3074  0.5642
  155SAPE   O2117203   4.823   3.733   6.471  0.0308  0.6575 -0.1615
  155SAPE   C2117204   4.734   3.658   6.533  0.7392  0.3222 -0.3758
  155SAPE   O2217205   4.756   3.541   6.561  0.0780  0.2726 -0.3070
  155SAPE   C2217206   4.606   3.740   6.573 -0.4663  0.6654 -0.0496
  155SAPE   H2R17207   4.578   3.801   6.484  2.1978 -1.4108 -2.4980
  155SAPE   H2S17208   4.524   3.665   6.580  0.7461 -0.7200 -0.3021
  155SAPE    C317209   5.036   3.650   6.581 -0.0881  0.4661  0.5957
  155SAPE    HX17210   5.059   3.751   6.620  2.0026 -0.2043  1.2324
  155SAPE    HY17211   5.139   3.622   6.548  0.0165 -2.1575  2.7913
  155SAPE   O3117212   4.992   3.565   6.695  0.5586 -0.0441  0.5281
  155SAPE   C3117213   5.027   3.439   6.689  0.3094 -0.6636  0.1344
  155SAPE   O3217214   5.113   3.393   6.618 -0.0623 -0.2434  0.3866
  155SAPE   C3217215   4.935   3.354   6.781 -0.1200  0.6359 -0.2566
  155SAPE   H2X17216   4.869   3.297   6.713 -1.5112  0.9246  0.8216
  155SAPE   H2Y17217   4.864   3.422   6.833 -1.3264 -0.1175 -0.8775
  155SAPE   C2317218   4.619   3.826   6.711  0.9911  0.4151  0.9329
  155SAPE   H3R17219   4.528   3.891   6.706 -0.2886 -1.3156  0.7170
  155SAPE   H3S17220   4.702   3.899   6.707  0.8494  0.5474  0.2072
  155SAPE   C2417221   4.603   3.750   6.841  0.8718  0.3228 -0.1597
  155SAPE   H4R17222   4.528   3.670   6.823 -0.0797  1.4541 -1.5251
  155SAPE   H4S17223   4.565   3.819   6.919 -2.2329 -0.1537 -1.1307
  155SAPE   C2517224   4.727   3.677   6.889 -0.7311  0.2712 -0.7625
  155SAPE   H5R17225   4.763   3.596   6.824  0.0198  0.9861 -1.2511
  155SAPE   C2617226   4.811   3.716   6.989  0.1060  1.0032  0.7360
  155SAPE   H6R17227   4.906   3.661   6.996  0.7280  1.5882 -2.0326
  155SAPE   C2717228   4.803   3.840   7.076 -0.3129  0.2325 -0.1333
  155SAPE   H7R17229   4.783   3.806   7.180  1.6396  2.8579  1.2044
  155SAPE   H7S17230   4.717   3.907   7.055  1.5381  2.6034 -0.5262
  155SAPE   C2817231   4.930   3.923   7.063 -0.1164 -0.5983 -0.1012
  155SAPE   H8R17232   4.960   3.944   6.959  1.8377 -0.1628  0.5206
  155SAPE   C2917233   5.001   3.973   7.169 -0.4949  0.8037 -0.0326
  155SAPE   H9R17234   5.087   4.037   7.144 -0.2032  0.3123 -0.3023
  155SAPE  C21017235   4.984   3.945   7.319 -0.3572  0.1895  0.0475
  155SAPE  H10R17236   5.080   3.922   7.370  0.7301 -1.0256 -2.3833
  155SAPE  H10S17237   4.920   3.855   7.336 -1.5377  0.8885 -0.5758
  155SAPE  C21117238   4.907   4.057   7.388  0.3663  0.2100 -0.2784
  155SAPE  H11R17239   4.873   4.141   7.326  0.5165  0.9266  0.5858
  155SAPE  C21217240   4.903   4.070   7.523  0.2555  0.5343 -0.1819
  155SAPE  H12R17241   4.849   4.154   7.569 -0.9084  0.6114 -1.6118
  155SAPE  C21317242   4.951   3.975   7.629  0.2027  1.1715 -0.1710
  155SAPE  H13R17243   4.942   4.024   7.728 -1.2692 -1.3413  1.0144
  155SAPE  H13S17244   5.061   3.959   7.633 -0.1042 -1.3354 -0.2767
  155SAPE  C21417245   4.886   3.841   7.638  0.6374 -0.1542  0.3513
  155SAPE  H14R17246   4.866   3.795   7.540 -1.3415 -0.5720  0.9065
  155SAPE  C21517247   4.861   3.776   7.744  0.0959 -0.2451  0.2941
  155SAPE  H15R17248   4.815   3.676   7.749  1.0036 -0.6065  2.6654
  155SAPE  C21617249   4.900   3.813   7.885  0.5689  0.4627 -0.5176
  155SAPE  H16R17250   4.842   3.904   7.910 -0.7692 -0.1021 -1.4658
  155SAPE  H16S17251   5.006   3.848   7.887 -0.1440  2.7350  0.0691
  155SAPE  C21717252   4.879   3.700   7.988  0.7417  0.4109 -0.2146
  155SAPE  H17R17253   4.982   3.673   8.022  1.0620  0.7039 -0.9218
  155SAPE  H17S17254   4.828   3.612   7.946  1.6767 -0.7395  0.9598
  155SAPE  C21817255   4.789   3.742   8.113 -0.3899  0.8346  0.7403
  155SAPE  H18R17256   4.699   3.797   8.077 -0.3993 -0.4778 -1.4297
  155SAPE  H18S17257   4.845   3.798   8.190  0.1171  2.0475 -0.4750
  155SAPE  C21917258   4.750   3.613   8.170 -0.6253  0.2548 -0.4085
  155SAPE  H19R17259   4.841   3.562   8.208 -1.2308 -0.7729 -0.2809
  155SAPE  H19S17260   4.697   3.555   8.092 -1.7960 -0.6114  0.9681
  155SAPE  C22017261   4.655   3.620   8.292 -0.0868  0.1093  0.1731
  155SAPE  H20R17262   4.705   3.650   8.386  1.2704 -0.1930 -0.4343
  155SAPE  H20S17263   4.603   3.524   8.311  0.1768 -0.0015  0.3407
  155SAPE  H20T17264   4.566   3.687   8.287 -2.3121 -2.4988  1.8420
  155SAPE   C3317265   5.020   3.267   6.876 -0.2493 -0.4781  0.5575
  155SAPE   H3X17266   5.094   3.334   6.924  0.8385 -1.0173 -0.3251
  155SAPE   H3Y17267   5.083   3.204   6.810 -2.6627 -0.3136 -2.1051
  155SAPE   C3417268   4.942   3.178   6.965 -0.2265  0.5161 -0.5066
  155SAPE   H4X17269   5.001   3.096   7.009 -1.1827  1.0971  2.0099
  155SAPE   H4Y17270   4.861   3.138   6.900  0.1161  1.0371 -1.2666
  155SAPE   C3517271   4.878   3.241   7.091  0.2792 -0.3897  0.2409
  155SAPE   H5X17272   4.807   3.169   7.137 -0.9039  0.0442 -0.8645
  155SAPE   H5Y17273   4.826   3.333   7.057 -2.1339 -1.4703  0.8115
  155SAPE   C3617274   4.969   3.278   7.206  0.3226 -0.1345  0.1351
  155SAPE   H6X17275   5.057   3.332   7.165  0.8890 -0.9233  0.2859
  155SAPE   H6Y17276   4.995   3.180   7.252 -2.8352 -1.1744 -0.0080
  155SAPE   C3717277   4.884   3.353   7.307 -0.4092  0.0387 -0.0078
  155SAPE   H7X17278   4.800   3.282   7.321  0.0459 -0.8834 -1.7175
  155SAPE   H7Y17279   4.839   3.444   7.263  0.0668  0.5444  0.5267
  155SAPE   C3817280   4.947   3.366   7.449  0.5402  0.2991  1.4053
  155SAPE   H8X17281   5.044   3.420   7.440 -0.1039  1.6865  2.4051
  155SAPE   H8Y17282   4.963   3.262   7.484  3.2993  0.4494  0.7920
  155SAPE   C3917283   4.849   3.438   7.546 -0.6546  1.2572 -0.0457
  155SAPE   H9X17284   4.741   3.422   7.524 -0.4155  0.4657 -0.7269
  155SAPE   H9Y17285   4.862   3.548   7.543 -3.9673  1.7353 -1.2969
  155SAPE  C31017286   4.873   3.391   7.692 -0.1545 -0.3047 -0.4191
  155SAPE  H10X17287   4.850   3.283   7.707  1.3632 -0.5993 -0.0465
  155SAPE  H10Y17288   4.804   3.446   7.760  0.5765  0.3764 -0.2131
  155SAPE  C31117289   5.012   3.418   7.745 -0.3649 -0.3022  0.6559
  155SAPE  H11X17290   5.018   3.528   7.740  1.7626 -0.2255  2.8967
  155SAPE  H11Y17291   5.091   3.371   7.681 -2.2102 -1.5926 -0.7998
  155SAPE  C31217292   5.032   3.383   7.893  0.2317 -0.8781  0.3343
  155SAPE  H12X17293   5.051   3.275   7.907 -0.2133 -0.8984  0.8144
  155SAPE  H12Y17294   4.942   3.420   7.946  0.2170  0.4914 -0.5990
  155SAPE  C31317295   5.159   3.467   7.933  0.4645 -0.3346  0.0119
  155SAPE  H13X17296   5.139   3.575   7.953  2.0398 -0.5871  3.7039
  155SAPE  H13Y17297   5.236   3.446   7.855 -0.6833 -1.0451 -0.9733
  155SAPE  C31417298   5.219   3.425   8.070  0.3380  0.5098  0.5225
  155SAPE  H14X17299   5.320   3.470   8.072  0.2412  0.7574  0.0384
  155SAPE  H14Y17300   5.242   3.316   8.071 -0.0367  0.3397 -2.0470
  155SAPE  C31517301   5.127   3.458   8.185  0.5797  0.1665  0.0701
  155SAPE  H15X17302   5.023   3.435   8.152  0.6310  0.7813 -0.5368
  155SAPE  H15Y17303   5.120   3.568   8.190  1.2551  0.2824 -1.2335
  155SAPE  C31617304   5.154   3.408   8.325 -0.9117  0.0359 -0.0199
  155SAPE  H16X17305   5.238   3.468   8.366 -1.8920  2.0726 -0.8758
  155SAPE  H16Y17306   5.184   3.301   8.335  2.6470  0.9813  0.5618
  155SAPE  C31717307   5.035   3.414   8.431 -0.3615  0.0447  0.3575
  155SAPE  H17X17308   4.986   3.513   8.425  3.5332  2.0308 -2.7460
  155SAPE  H17Y17309   5.071   3.400   8.535 -2.6062 -1.2843  1.0302
  155SAPE  C31817310   4.937   3.297   8.419  0.2826  0.0056  0.2893
  155SAPE  H18X17311   4.982   3.195   8.427 -1.5868 -0.8641  0.4523
  155SAPE  H18Y17312   4.883   3.310   8.323 -0.9232  0.7434  1.0338
  155SAPE  H18Z17313   4.861   3.304   8.500 -1.2543 -0.4567 -1.0726
  156SAPE     N17314   1.142   4.411   6.256  0.6074 -0.4129 -0.2790
  156SAPE   HN117315   1.235   4.382   6.220  1.2429  2.2592 -0.9794
  156SAPE   HN217316   1.106   4.344   6.327  1.4116  1.1430  1.6859
  156SAPE   HN317317   1.082   4.419   6.171  1.5770  0.8956 -0.8796
  156SAPE   C1217318   1.155   4.549   6.309  0.0123  0.1592  0.1870
  156SAPE  H12A17319   1.228   4.555   6.392  0.8975  0.2040 -0.5862
  156SAPE  H12B17320   1.053   4.587   6.332  0.0841 -0.3160  1.3458
  156SAPE   C1117321   1.214   4.636   6.194 -0.1596  0.0827  0.1347
  156SAPE  H11A17322   1.244   4.738   6.228 -1.6786  0.4223  0.5773
  156SAPE  H11B17323   1.134   4.652   6.119 -0.2341  0.4353  0.2827
  156SAPE     P17324   1.453   4.642   6.094  0.0500  0.5024 -0.1263
  156SAPE   O1317325   1.532   4.563   5.993  0.7703  0.2388  0.0797
  156SAPE   O1417326   1.425   4.784   6.067  0.5083 -0.2510 -0.1312
  156SAPE   O1217327   1.317   4.572   6.121 -0.0626  0.3448 -0.0704
  156SAPE   O1117328   1.531   4.646   6.237 -0.2105 -0.1914  0.0549
  156SAPE    C117329   1.566   4.518   6.284  0.8407  0.1656 -0.7759
  156SAPE    HA17330   1.482   4.453   6.317 -0.0575  2.2750  1.3867
  156SAPE    HB17331   1.620   4.459   6.207  0.8557 -1.5938  0.5250
  156SAPE    C217332   1.680   4.533   6.403 -0.1756 -0.6780  1.0633
  156SAPE    HS17333   1.776   4.532   6.347 -0.6220  0.0982  0.2515
  156SAPE   O2117334   1.663   4.426   6.508  0.4028 -0.8854  0.2001
  156SAPE   C2117335   1.782   4.394   6.565  0.4740 -0.2045  0.5134
  156SAPE   O2217336   1.887   4.445   6.530 -0.2915 -0.6742 -0.0739
  156SAPE   C2217337   1.751   4.290   6.663  0.6650 -0.1782 -0.3081
  156SAPE   H2R17338   1.645   4.295   6.697  1.0331  0.7165  0.7577
  156SAPE   H2S17339   1.760   4.186   6.626  0.3510 -0.9391  1.6609
  156SAPE    C317340   1.664   4.670   6.475 -0.4887  0.1782  0.3464
  156SAPE    HX17341   1.556   4.683   6.496 -0.9140 -0.3606 -1.3030
  156SAPE    HY17342   1.683   4.746   6.396 -0.7455 -1.2512 -1.1694
  156SAPE   O3117343   1.727   4.681   6.606 -0.4275  0.6876  0.4905
  156SAPE   C3117344   1.852   4.741   6.598 -0.2050  0.5090  0.6998
  156SAPE   O3217345   1.901   4.779   6.494 -0.0403  0.4672 -0.2443
  156SAPE   C3217346   1.909   4.745   6.736 -0.5298 -0.4546  0.5304
  156SAPE   H2X17347   2.019   4.763   6.737 -0.6532  0.9382 -2.1058
  156SAPE   H2Y17348   1.897   4.645   6.782  0.6218  0.2591  2.4785
  156SAPE   C2317349   1.845   4.293   6.786  0.2796 -0.4473 -0.1111
  156SAPE   H3R17350   1.873   4.399   6.804  1.0657 -0.8061  0.8532
  156SAPE   H3S17351   1.944   4.246   6.766  0.6846  0.9429 -1.7002
  156SAPE   C2417352   1.780   4.232   6.916  0.1461  0.4963  0.1473
  156SAPE   H4R17353   1.687   4.286   6.942  0.4679  1.2815 -0.2896
  156SAPE   H4S17354   1.860   4.222   6.992  2.8489  1.3734 -2.4102
  156SAPE   C2517355   1.739   4.086   6.893  0.5540  0.2390  0.0244
  156SAPE   H5R17356   1.739   4.042   6.792 -1.2079  0.6349 -0.1875
  156SAPE   C2617357   1.687   4.013   6.993 -0.0696  0.5992  0.5601
  156SAPE   H6R17358   1.656   3.910   6.971  1.3739  0.2440  0.0738
  156SAPE   C2717359   1.664   4.047   7.140  0.3437 -0.1153  0.8359
  156SAPE   H7R17360   1.574   3.989   7.170 -0.5051  1.4783  1.5292
  156SAPE   H7S17361   1.637   4.155   7.132  1.1641  0.0384  0.0039
  156SAPE   C2817362   1.774   4.037   7.236 -0.4945 -0.2985  0.1827
  156SAPE   H8R17363   1.867   3.991   7.198 -0.8250 -0.2642 -0.6749
  156SAPE   C2917364   1.772   4.077   7.360 -0.1277  0.6483  0.3693
  156SAPE   H9R17365   1.860   4.064   7.425 -0.2125 -0.6874  0.2596
  156SAPE  C21017366   1.659   4.136   7.435  0.0443 -0.5556 -0.7000
  156SAPE  H10R17367   1.634   4.071   7.522  0.4592  0.5749  0.2912
  156SAPE  H10S17368   1.565   4.142   7.376  0.0123  0.5391 -0.5594
  156SAPE  C21117369   1.696   4.275   7.479 -0.5719  0.5054  0.0705
  156SAPE  H11R17370   1.691   4.361   7.410 -1.2735 -0.3324 -0.9488
  156SAPE  C21217371   1.743   4.299   7.600 -0.9351  0.6080 -0.8732
  156SAPE  H12R17372   1.762   4.403   7.630  4.0792 -0.6128  1.3730
  156SAPE  C21317373   1.772   4.205   7.717  0.8881  0.0475 -0.1866
  156SAPE  H13R17374   1.853   4.131   7.702  0.2400 -1.2459  2.0905
  156SAPE  H13S17375   1.685   4.141   7.743  1.0185 -0.5957 -1.3004
  156SAPE  C21417376   1.817   4.280   7.842 -0.1322  0.1962 -0.4074
  156SAPE  H14R17377   1.917   4.324   7.838  1.1583 -2.3802  0.7966
  156SAPE  C21517378   1.746   4.280   7.959 -0.3916  0.1625  0.1151
  156SAPE  H15R17379   1.800   4.327   8.042  2.1516 -1.1968 -0.6484
  156SAPE  C21617380   1.612   4.215   7.982  0.4764 -0.0023  0.1235
  156SAPE  H16R17381   1.546   4.218   7.892  0.9896  3.5027 -0.2675
  156SAPE  H16S17382   1.558   4.278   8.056 -0.1500 -3.1468  2.5724
  156SAPE  C21717383   1.630   4.070   8.036 -0.3359 -0.4113  0.6151
  156SAPE  H17R17384   1.683   4.005   7.964 -0.4341 -2.3191  2.1819
  156SAPE  H17S17385   1.534   4.017   8.051 -0.0060 -1.2520 -0.2140
  156SAPE  C21817386   1.700   4.060   8.171 -0.1363 -0.9212  0.0849
  156SAPE  H18R17387   1.654   4.122   8.251 -2.2439 -2.4844  0.1695
  156SAPE  H18S17388   1.800   4.104   8.152 -1.0017  1.5303  0.8275
  156SAPE  C21917389   1.713   3.918   8.221 -0.6074 -0.2746  0.0368
  156SAPE  H19R17390   1.813   3.894   8.263 -1.1045 -1.2803  0.6605
  156SAPE  H19S17391   1.695   3.860   8.128 -3.1362  3.6977 -2.2974
  156SAPE  C22017392   1.602   3.889   8.323 -0.1188  0.3563  0.4801
  156SAPE  H20R17393   1.621   3.789   8.369 -0.0839  0.3226  0.3935
  156SAPE  H20S17394   1.502   3.903   8.278 -0.5825  0.1604  1.4214
  156SAPE  H20T17395   1.610   3.969   8.399  0.1941  3.3149 -2.4397
  156SAPE   C3317396   1.845   4.851   6.824 -0.1504 -0.0197 -0.0288
  156SAPE   H3X17397   1.734   4.847   6.817 -0.2559  0.3595  1.2262
  156SAPE   H3Y17398   1.883   4.950   6.789  0.7286 -0.3013  0.1218
  156SAPE   C3417399   1.888   4.836   6.971 -0.0416  0.3989 -0.4535
  156SAPE   H4X17400   1.839   4.925   7.016 -0.0576 -0.3168  1.0075
  156SAPE   H4Y17401   1.997   4.857   6.965 -0.1388  0.6036 -1.7830
  156SAPE   C3517402   1.832   4.712   7.037  0.5733  0.2319 -0.8177
  156SAPE   H5X17403   1.894   4.622   7.014  0.8374 -0.5117  2.3510
  156SAPE   H5Y17404   1.728   4.696   7.003  0.7254 -0.4945 -0.9714
  156SAPE   C3617405   1.835   4.725   7.190  0.2570 -0.2759 -0.2007
  156SAPE   H6X17406   1.744   4.786   7.210 -2.1928 -3.0629 -1.9303
  156SAPE   H6Y17407   1.927   4.773   7.229  1.1477 -1.5667 -0.6328
  156SAPE   C3717408   1.827   4.589   7.260  0.3691  0.0272  0.5759
  156SAPE   H7X17409   1.901   4.514   7.227 -0.1057 -0.5055  0.7135
  156SAPE   H7Y17410   1.730   4.546   7.228  0.5765  0.2799 -0.4300
  156SAPE   C3817411   1.852   4.611   7.410  0.0500  0.0042 -0.2560
  156SAPE   H8X17412   1.955   4.647   7.428 -0.6076  1.6697  0.3619
  156SAPE   H8Y17413   1.838   4.507   7.447 -1.4611  0.1083 -0.4361
  156SAPE   C3917414   1.751   4.692   7.488 -0.3083  0.0373  0.3195
  156SAPE   H9X17415   1.649   4.651   7.470 -0.0673 -1.3011  1.8233
  156SAPE   H9Y17416   1.744   4.793   7.442  1.5426 -0.4772 -1.1764
  156SAPE  C31017417   1.793   4.708   7.637 -0.6990  0.4262  0.3274
  156SAPE  H10X17418   1.898   4.743   7.649 -0.7306  0.5734  0.1792
  156SAPE  H10Y17419   1.794   4.612   7.691  2.1110  1.3876  2.2435
  156SAPE  C31117420   1.710   4.807   7.714 -0.0534 -0.6649  0.6250
  156SAPE  H11X17421   1.605   4.772   7.724 -0.5109  0.8739  1.5272
  156SAPE  H11Y17422   1.718   4.909   7.669  2.1215 -1.1943 -0.3427
  156SAPE  C31217423   1.748   4.836   7.861  0.9475  0.4817 -0.3477
  156SAPE  H12X17424   1.673   4.896   7.915  0.0456  0.8135 -1.9273
  156SAPE  H12Y17425   1.840   4.896   7.874  0.7019  0.4658  1.6644
  156SAPE  C31317426   1.768   4.711   7.945  0.8425 -0.3090  0.0186
  156SAPE  H13X17427   1.861   4.651   7.934  0.8126 -1.2853  3.6476
  156SAPE  H13Y17428   1.680   4.643   7.936 -0.0924  0.9338 -0.5266
  156SAPE  C31417429   1.773   4.746   8.097 -0.1209  0.2679  0.3099
  156SAPE  H14X17430   1.693   4.821   8.118 -0.1325  0.1742  0.6068
  156SAPE  H14Y17431   1.871   4.797   8.111  0.0824  0.6867 -2.1644
  156SAPE  C31517432   1.745   4.630   8.202 -0.3372  0.0264 -0.2031
  156SAPE  H15X17433   1.823   4.556   8.178  0.4431  0.7898 -0.0685
  156SAPE  H15Y17434   1.648   4.579   8.184 -1.4028  2.1412 -0.9057
  156SAPE  C31617435   1.744   4.688   8.336 -0.9380  0.4614 -0.8838
  156SAPE  H16X17436   1.802   4.781   8.353 -0.8455  0.1021  0.9658
  156SAPE  H16Y17437   1.774   4.610   8.409 -2.0683 -0.8050 -1.7107
  156SAPE  C31717438   1.596   4.729   8.375 -0.3094  0.0521  0.3192
  156SAPE  H17X17439   1.550   4.632   8.405  0.1470 -0.3623 -0.2969
  156SAPE  H17Y17440   1.538   4.773   8.292  1.0538  1.4060  0.0284
  156SAPE  C31817441   1.575   4.828   8.495  0.3771 -0.0566  1.0877
  156SAPE  H18X17442   1.630   4.924   8.482  0.4125 -0.0388  1.3708
  156SAPE  H18Y17443   1.600   4.774   8.589  0.8840 -0.7031  0.5966
  156SAPE  H18Z17444   1.472   4.866   8.479  0.5908 -0.1584 -0.8254
  157SAPE     N17445   6.177   0.290   6.182  0.3442 -0.5606 -0.6506
  157SAPE   HN117446   6.151   0.369   6.245 -0.7179 -1.4042  0.0041
  157SAPE   HN217447   6.170   0.202   6.237  1.6223  0.1799  0.7789
  157SAPE   HN317448   6.280   0.295   6.169  0.5976 -0.1482  1.1678
  157SAPE   C1217449   6.098   0.268   6.055  0.8246  0.2285 -0.3530
  157SAPE  H12A17450   6.139   0.182   5.998  0.5890  0.6243 -1.1297
  157SAPE  H12B17451   6.116   0.350   5.982  0.9953  2.3122  1.9235
  157SAPE   C1117452   5.949   0.234   6.085 -0.7633  0.0134  0.0105
  157SAPE  H11A17453   5.907   0.244   5.983  1.4601 -0.6744 -1.0558
  157SAPE  H11B17454   5.907   0.304   6.160  1.5694  1.6250 -0.0646
  157SAPE     P17455   5.812   0.045   6.192  0.1815  0.3640 -0.2321
  157SAPE   O1317456   5.695   0.090   6.109 -0.6384 -0.0398 -0.7403
  157SAPE   O1417457   5.825  -0.099   6.213 -0.0417  0.9712 -0.0644
  157SAPE   O1217458   5.947   0.102   6.129  0.1400 -0.2887  0.0495
  157SAPE   O1117459   5.805   0.114   6.337  0.3303  0.0597  0.5320
  157SAPE    C117460   5.910   0.113   6.431  0.3989  0.6783 -0.0199
  157SAPE    HA17461   6.010   0.091   6.387 -0.8605 -2.8909 -1.4896
  157SAPE    HB17462   5.903   0.207   6.489 -0.5318  0.5318  0.1200
  157SAPE    C217463   5.878  -0.000   6.530  0.3068 -0.4474 -0.4313
  157SAPE    HS17464   5.870  -0.088   6.463  3.3931 -0.5410 -0.8472
  157SAPE   O2117465   5.765   0.044   6.601  0.0198  0.1090 -0.6565
  157SAPE   C2117466   5.675  -0.049   6.605  0.2468 -0.0192 -0.2209
  157SAPE   O2217467   5.677  -0.157   6.547 -0.9661  0.2278 -0.5879
  157SAPE   C2217468   5.568  -0.020   6.719  0.5410  0.3635 -0.4728
  157SAPE   H2R17469   5.473   0.013   6.673 -0.9667 -0.1594  2.0630
  157SAPE   H2S17470   5.552  -0.119   6.767  0.4557  0.9393  0.7288
  157SAPE    C317471   5.995  -0.037   6.625 -0.4449 -0.2076  0.5939
  157SAPE    HX17472   5.998   0.055   6.688  2.7758  0.0733  0.2051
  157SAPE    HY17473   6.091  -0.051   6.571 -0.5499 -0.3258  0.4385
  157SAPE   O3117474   5.968  -0.159   6.701 -0.5867  0.4579 -0.0541
  157SAPE   C3117475   6.061  -0.258   6.693  0.5750 -0.4337 -0.2837
  157SAPE   O3217476   6.166  -0.253   6.628  0.3527  0.3163  0.4223
  157SAPE   C3217477   6.032  -0.371   6.794 -0.7555  0.4986 -0.0132
  157SAPE   H2X17478   5.944  -0.426   6.755  1.1839 -0.8131 -2.8612
  157SAPE   H2Y17479   6.016  -0.318   6.891  0.2690  0.6002  0.1164
  157SAPE   C2317480   5.618   0.060   6.840 -0.6449  0.6627 -0.2544
  157SAPE   H3R17481   5.531   0.096   6.899 -0.4546  1.6268 -0.5394
  157SAPE   H3S17482   5.666   0.152   6.800  0.3348  0.0535 -0.5167
  157SAPE   C2417483   5.697  -0.026   6.942  0.3201 -0.1749  0.0154
  157SAPE   H4R17484   5.790  -0.070   6.900  2.5265  2.0943  2.2030
  157SAPE   H4S17485   5.649  -0.121   6.975 -0.8292  0.5098  0.3711
  157SAPE   C2517486   5.738   0.070   7.054 -0.5249 -0.5226 -0.0473
  157SAPE   H5R17487   5.694   0.170   7.053 -2.3574 -1.2747  0.8570
  157SAPE   C2617488   5.820   0.037   7.155 -0.2711 -0.1551 -0.7453
  157SAPE   H6R17489   5.849   0.110   7.232 -0.7207 -0.6559 -0.0899
  157SAPE   C2717490   5.867  -0.106   7.181 -0.1910  0.8056  0.3020
  157SAPE   H7R17491   5.860  -0.174   7.093  1.3851  2.0453 -0.8365
  157SAPE   H7S17492   5.796  -0.129   7.263  0.7813  1.2765  1.2973
  157SAPE   C2817493   6.014  -0.105   7.227 -0.1976  0.2702  1.1061
  157SAPE   H8R17494   6.086  -0.060   7.157  0.2988  2.0076  2.6644
  157SAPE   C2917495   6.057  -0.164   7.340 -0.1892  0.4107  0.0740
  157SAPE   H9R17496   6.165  -0.159   7.359  0.0777 -0.6812 -1.0415
  157SAPE  C21017497   5.975  -0.229   7.452 -0.6703 -0.0178 -0.8781
  157SAPE  H10R17498   5.885  -0.276   7.408  0.3144 -1.2955 -1.5688
  157SAPE  H10S17499   5.932  -0.152   7.520 -1.2857 -2.5574  1.7802
  157SAPE  C21117500   6.055  -0.333   7.526 -0.7554 -0.0893  0.5121
  157SAPE  H11R17501   6.062  -0.426   7.467  0.6764 -0.0747  0.6416
  157SAPE  C21217502   6.111  -0.326   7.652 -0.1920  0.5492  0.6600
  157SAPE  H12R17503   6.148  -0.418   7.698 -0.0975 -0.1489 -0.7705
  157SAPE  C21317504   6.095  -0.215   7.748  0.3322  0.1326 -0.3184
  157SAPE  H13R17505   6.023  -0.247   7.826  1.9613  1.1691  1.7238
  157SAPE  H13S17506   6.063  -0.118   7.704  1.2933  2.2114  3.1434
  157SAPE  C21417507   6.231  -0.188   7.809 -0.0657  0.1740 -0.6368
  157SAPE  H14R17508   6.310  -0.175   7.732 -2.1518 -0.1486 -2.9672
  157SAPE  C21517509   6.254  -0.178   7.943 -1.4568  0.5224  0.6063
  157SAPE  H15R17510   6.349  -0.142   7.986 -1.4735  0.3890  0.7535
  157SAPE  C21617511   6.156  -0.197   8.057 -0.1775  0.1956 -0.3978
  157SAPE  H16R17512   6.052  -0.190   8.019 -0.4498  5.8008  0.5915
  157SAPE  H16S17513   6.147  -0.120   8.137 -2.8759 -2.1568  1.7946
  157SAPE  C21717514   6.179  -0.334   8.121  0.6617 -1.2105  0.2890
  157SAPE  H17R17515   6.240  -0.319   8.213  2.4586  0.3047 -1.0925
  157SAPE  H17S17516   6.236  -0.402   8.054  0.8719  0.0037 -0.7849
  157SAPE  C21817517   6.042  -0.408   8.152 -0.0149  1.2857  0.1757
  157SAPE  H18R17518   5.989  -0.430   8.057 -0.6867 -0.7654  0.9695
  157SAPE  H18S17519   5.979  -0.345   8.219 -1.3754  1.3290 -1.0748
  157SAPE  C21917520   6.051  -0.543   8.232 -0.3838 -0.3096  0.0367
  157SAPE  H19R17521   5.954  -0.590   8.206 -0.5266 -1.2439  2.0575
  157SAPE  H19S17522   6.046  -0.528   8.342 -1.8372  0.1692 -0.0732
  157SAPE  C22017523   6.158  -0.642   8.178 -0.6803 -0.7524 -0.4857
  157SAPE  H20R17524   6.132  -0.670   8.074  0.4966 -0.2639 -0.9218
  157SAPE  H20S17525   6.151  -0.732   8.243  0.1018 -1.8690 -1.8761
  157SAPE  H20T17526   6.257  -0.592   8.181 -0.4428 -1.1500 -1.3340
  157SAPE   C3317527   6.141  -0.473   6.804  0.1325  0.3419 -0.0063
  157SAPE   H3X17528   6.229  -0.407   6.822 -0.2642  0.6555  0.8380
  157SAPE   H3Y17529   6.170  -0.527   6.711  0.2120 -0.9669  0.7574
  157SAPE   C3417530   6.132  -0.563   6.922  0.7785 -0.4723 -0.1626
  157SAPE   H4X17531   6.028  -0.600   6.928  0.5740  0.0748 -0.2662
  157SAPE   H4Y17532   6.139  -0.498   7.012  2.7894  2.7726 -2.4515
  157SAPE   C3517533   6.218  -0.687   6.934  0.0255  0.1562  0.2984
  157SAPE   H5X17534   6.317  -0.664   6.978  0.5573  1.0954 -1.3081
  157SAPE   H5Y17535   6.232  -0.712   6.826 -1.7374 -0.3583  0.1627
  157SAPE   C3617536   6.154  -0.807   7.008  0.1464  0.3301  0.2349
  157SAPE   H6X17537   6.226  -0.891   6.998  0.4980  0.6959 -0.4382
  157SAPE   H6Y17538   6.056  -0.839   6.964 -1.3422  1.8091  2.3239
  157SAPE   C3717539   6.137  -0.775   7.157  1.2110  0.3153 -0.2857
  157SAPE   H7X17540   6.041  -0.731   7.191  1.4972  0.7556 -0.0410
  157SAPE   H7Y17541   6.223  -0.708   7.181  3.1931 -1.4409 -2.0270
  157SAPE   C3817542   6.138  -0.907   7.247 -0.0854  0.1897 -0.0220
  157SAPE   H8X17543   6.239  -0.947   7.229  1.6588  4.4942 -1.1430
  157SAPE   H8Y17544   6.063  -0.977   7.205 -2.4178  0.6524  2.9960
  157SAPE   C3917545   6.118  -0.877   7.393  0.1321 -0.1954 -0.0902
  157SAPE   H9X17546   6.128  -0.974   7.446 -0.4650 -1.3033 -1.8931
  157SAPE   H9Y17547   6.019  -0.839   7.425  0.0109 -0.7164  0.1769
  157SAPE  C31017548   6.226  -0.785   7.459  0.4500  0.5359 -0.5209
  157SAPE  H10X17549   6.226  -0.690   7.401  0.5753  0.9521  0.1585
  157SAPE  H10Y17550   6.330  -0.821   7.447  0.0621 -1.4884  1.5231
  157SAPE  C31117551   6.211  -0.747   7.614  0.7223  0.5013 -0.0321
  157SAPE  H11X17552   6.200  -0.845   7.666 -0.8973  1.1984  0.9934
  157SAPE  H11Y17553   6.118  -0.687   7.622  1.2233  1.2260  0.4366
  157SAPE  C31217554   6.324  -0.656   7.668 -0.2995  0.2272 -0.4997
  157SAPE  H12X17555   6.306  -0.566   7.606  1.5271 -0.4925 -2.1748
  157SAPE  H12Y17556   6.417  -0.697   7.622 -0.9271 -0.7192 -0.9482
  157SAPE  C31317557   6.321  -0.635   7.818 -0.2599 -0.2186  0.3254
  157SAPE  H13X17558   6.306  -0.739   7.856 -1.6035 -0.4205 -0.6888
  157SAPE  H13Y17559   6.230  -0.575   7.836 -0.8274 -0.7313 -0.7352
  157SAPE  C31417560   6.442  -0.568   7.886  0.4552 -0.4818 -0.4226
  157SAPE  H14X17561   6.442  -0.592   7.995  1.5616  0.3239 -0.2286
  157SAPE  H14Y17562   6.425  -0.459   7.875 -1.6182 -0.6281  0.8465
  157SAPE  C31517563   6.578  -0.606   7.829 -0.4176  0.4297  0.3189
  157SAPE  H15X17564   6.600  -0.558   7.731  0.9702 -0.0967  0.3510
  157SAPE  H15Y17565   6.580  -0.714   7.804  2.7480 -0.2533  2.7989
  157SAPE  C31617566   6.700  -0.570   7.927  0.4775  0.7651 -0.4058
  157SAPE  H16X17567   6.782  -0.556   7.854 -1.0797  0.1315 -2.3743
  157SAPE  H16Y17568   6.723  -0.666   7.979  1.2433  0.4283 -1.3359
  157SAPE  C31717569   6.688  -0.445   8.008  0.4053 -0.1052  0.3989
  157SAPE  H17X17570   6.598  -0.441   8.073 -1.0586  3.3118 -1.5851
  157SAPE  H17Y17571   6.682  -0.369   7.927 -2.4014 -1.8266 -1.2043
  157SAPE  C31817572   6.807  -0.418   8.092  0.0253 -0.2886  0.9989
  157SAPE  H18X17573   6.901  -0.409   8.033 -0.6107 -1.5192 -0.2647
  157SAPE  H18Y17574   6.826  -0.494   8.170 -0.4108  0.5841  1.9715
  157SAPE  H18Z17575   6.789  -0.318   8.136 -1.7973 -0.0910 -0.1010
  158SAPE     N17576   3.010   3.998   6.383  0.0403  0.0749 -0.0616
  158SAPE   HN117577   2.942   4.049   6.323  0.9196  1.9491  0.4596
  158SAPE   HN217578   3.086   3.963   6.321 -0.1261 -1.3393  0.5055
  158SAPE   HN317579   2.966   3.916   6.430 -2.2177  0.5904 -1.1644
  158SAPE   C1217580   3.070   4.081   6.489  0.1617  0.0887  0.8368
  158SAPE  H12A17581   3.128   4.163   6.442 -1.5921  1.2620  0.6258
  158SAPE  H12B17582   3.137   4.025   6.558  0.7655  1.7696  1.6563
  158SAPE   C1117583   2.961   4.140   6.579  0.8343  0.0172 -0.2440
  158SAPE  H11A17584   3.027   4.196   6.649  0.2337 -0.1360  0.4524
  158SAPE  H11B17585   2.915   4.056   6.633  1.6173  0.6604  1.4931
  158SAPE     P17586   2.871   4.349   6.442 -0.0070 -0.2250  0.1796
  158SAPE   O1317587   2.996   4.352   6.360 -0.2207  0.3392 -0.3237
  158SAPE   O1417588   2.743   4.386   6.374 -0.1236  0.0408 -0.1424
  158SAPE   O1217589   2.863   4.209   6.502 -0.0195  0.5431 -0.3631
  158SAPE   O1117590   2.893   4.448   6.561 -0.5070 -0.1946 -0.6678
  158SAPE    C117591   2.781   4.472   6.646  1.0404 -0.0908  0.6986
  158SAPE    HA17592   2.705   4.533   6.592 -0.5849 -2.4349  0.1775
  158SAPE    HB17593   2.739   4.377   6.685  1.2400 -0.5527 -0.1941
  158SAPE    C217594   2.815   4.540   6.774 -0.0422  1.1312 -0.1680
  158SAPE    HS17595   2.867   4.632   6.741  2.3286 -0.4381 -1.0752
  158SAPE   O2117596   2.906   4.451   6.843 -0.2657  0.2680 -0.8691
  158SAPE   C2117597   3.016   4.510   6.900  0.2777  0.0704 -0.6795
  158SAPE   O2217598   3.044   4.625   6.879 -0.1778 -0.2722 -0.3942
  158SAPE   C2217599   3.103   4.409   6.976  0.2720  0.0310  0.4386
  158SAPE   H2R17600   3.110   4.317   6.913  2.3540  0.0286  0.5983
  158SAPE   H2S17601   3.205   4.452   6.978 -0.3868  1.7011 -0.5349
  158SAPE    C317602   2.683   4.577   6.856  0.2963 -0.4245  0.5864
  158SAPE    HX17603   2.621   4.485   6.850  1.9808 -1.5124 -1.8010
  158SAPE    HY17604   2.632   4.650   6.790  0.9184 -2.2656 -2.0907
  158SAPE   O3117605   2.698   4.623   6.989  0.5396 -0.1555  0.3915
  158SAPE   C3117606   2.739   4.748   7.000 -0.3736 -0.6458  0.4398
  158SAPE   O3217607   2.741   4.823   6.902 -0.3978 -0.9408 -0.4235
  158SAPE   C3217608   2.770   4.796   7.144  0.2252  0.0949 -0.5083
  158SAPE   H2X17609   2.880   4.784   7.152  0.3159  1.8113  1.9472
  158SAPE   H2Y17610   2.717   4.725   7.210 -1.2702  1.5252 -0.0889
  158SAPE   C2317611   3.039   4.362   7.113  0.3630  0.5500  0.5474
  158SAPE   H3R17612   3.105   4.279   7.146  0.0043 -0.5623 -1.3798
  158SAPE   H3S17613   2.936   4.323   7.094  0.9656  0.7892 -4.9216
  158SAPE   C2417614   3.037   4.470   7.221  0.1070 -1.0300  0.1383
  158SAPE   H4R17615   2.996   4.425   7.314  0.4637  0.7902  1.2253
  158SAPE   H4S17616   2.959   4.545   7.191  0.5658 -1.1798 -1.5365
  158SAPE   C2517617   3.173   4.533   7.238 -0.1964 -0.2494 -0.4788
  158SAPE   H5R17618   3.203   4.618   7.175 -1.3834  1.8119  1.5621
  158SAPE   C2617619   3.253   4.495   7.337  0.1404 -0.3830  0.5024
  158SAPE   H6R17620   3.358   4.525   7.334  0.5404 -1.8158 -2.1365
  158SAPE   C2717621   3.227   4.383   7.446  0.2576  0.3046 -0.0441
  158SAPE   H7R17622   3.168   4.305   7.393  0.1399 -1.4571  2.5218
  158SAPE   H7S17623   3.159   4.419   7.525 -1.2269 -0.6018 -0.8707
  158SAPE   C2817624   3.347   4.328   7.510 -0.1526 -0.0634 -0.0827
  158SAPE   H8R17625   3.403   4.250   7.456  0.9721  1.2989 -0.9698
  158SAPE   C2917626   3.396   4.367   7.632  0.1908 -0.3440  1.1534
  158SAPE   H9R17627   3.488   4.321   7.670  1.8512  0.5815 -1.4311
  158SAPE  C21017628   3.315   4.451   7.728 -0.5405 -0.3450 -0.5564
  158SAPE  H10R17629   3.240   4.519   7.684 -1.1254 -1.1319 -0.7963
  158SAPE  H10S17630   3.389   4.520   7.775 -1.4400  0.5738 -0.4544
  158SAPE  C21117631   3.258   4.366   7.837  0.5727  0.2854  0.0171
  158SAPE  H11R17632   3.172   4.305   7.803 -0.6875  2.5663 -1.1133
  158SAPE  C21217633   3.291   4.360   7.972  0.7856  0.2342  0.9573
  158SAPE  H12R17634   3.243   4.281   8.031 -2.1965  1.0686 -0.1582
  158SAPE  C21317635   3.397   4.442   8.040 -0.0548 -0.2956  0.3486
  158SAPE  H13R17636   3.349   4.497   8.124  0.1382  0.3666  0.0372
  158SAPE  H13S17637   3.455   4.523   7.991  0.9071 -0.2750  1.4754
  158SAPE  C21417638   3.506   4.348   8.077 -0.3183 -0.2056  0.0016
  158SAPE  H14R17639   3.571   4.340   7.989  1.9765 -0.1607  1.6198
  158SAPE  C21517640   3.540   4.293   8.193 -0.4073 -0.5744 -0.2678
  158SAPE  H15R17641   3.615   4.212   8.190  2.0660  1.5721 -0.5221
  158SAPE  C21617642   3.462   4.309   8.325  0.9509 -0.0908  0.7086
  158SAPE  H16R17643   3.356   4.277   8.308 -0.0326  0.9120  4.1781
  158SAPE  H16S17644   3.462   4.417   8.349  2.3046  0.1694 -0.3347
  158SAPE  C21717645   3.528   4.237   8.438 -0.2073 -0.6464 -0.2374
  158SAPE  H17R17646   3.467   4.261   8.528 -1.4480 -0.0833 -1.2053
  158SAPE  H17S17647   3.634   4.266   8.456 -0.9122  2.1948 -0.2444
  158SAPE  C21817648   3.526   4.081   8.457 -0.8377  0.4422  0.4105
  158SAPE  H18R17649   3.588   4.046   8.371 -1.1989  1.9712 -0.4993
  158SAPE  H18S17650   3.431   4.032   8.427  1.7593 -4.3529 -1.1886
  158SAPE  C21917651   3.578   4.025   8.580  0.2613  0.0065 -0.7726
  158SAPE  H19R17652   3.624   3.927   8.554 -4.0216 -1.9631 -1.8090
  158SAPE  H19S17653   3.489   4.007   8.644  1.0184 -0.4052  0.1785
  158SAPE  C22017654   3.682   4.109   8.656  0.4332  0.2391 -0.0996
  158SAPE  H20R17655   3.768   4.130   8.588 -0.6849 -2.3975 -2.5167
  158SAPE  H20S17656   3.730   4.052   8.738 -0.9097  0.0814  0.6123
  158SAPE  H20T17657   3.644   4.208   8.691 -0.0479  0.7430 -1.9472
  158SAPE   C3317658   2.733   4.935   7.183  0.2689  0.1548  0.4928
  158SAPE   H3X17659   2.626   4.956   7.159 -0.4140 -2.1933  1.2597
  158SAPE   H3Y17660   2.800   5.002   7.125 -0.5213 -0.1329 -0.7957
  158SAPE   C3417661   2.750   4.964   7.329  0.0554  0.3146 -0.4102
  158SAPE   H4X17662   2.846   4.924   7.368 -0.2240 -0.2907 -0.3311
  158SAPE   H4Y17663   2.688   4.903   7.398 -0.1976  0.8764 -0.1265
  158SAPE   C3517664   2.731   5.114   7.369 -0.4262  0.7944 -0.3719
  158SAPE   H5X17665   2.623   5.128   7.387 -0.7310  0.2236 -1.6522
  158SAPE   H5Y17666   2.774   5.182   7.291  1.6576 -0.0462 -0.0335
  158SAPE   C3617667   2.800   5.156   7.495 -0.1037 -0.1877  0.2160
  158SAPE   H6X17668   2.803   5.266   7.505 -0.6994 -0.3528  2.9451
  158SAPE   H6Y17669   2.898   5.105   7.490 -0.1251 -0.5870  2.5208
  158SAPE   C3717670   2.738   5.083   7.617 -0.3743  0.6266 -0.0670
  158SAPE   H7X17671   2.633   5.118   7.633 -0.9387  0.1604 -2.4359
  158SAPE   H7Y17672   2.726   4.974   7.602 -1.7923  0.3027  2.7297
  158SAPE   C3817673   2.823   5.117   7.734 -0.8415  0.7316  0.3483
  158SAPE   H8X17674   2.817   5.227   7.753  1.8461  1.5525 -2.7390
  158SAPE   H8Y17675   2.929   5.087   7.723 -1.1407 -0.9809  1.6269
  158SAPE   C3917676   2.785   5.039   7.867 -0.1807 -0.0094 -0.2757
  158SAPE   H9X17677   2.806   4.930   7.872 -2.6560 -0.4879  2.3095
  158SAPE   H9Y17678   2.677   5.047   7.892 -0.4979 -2.2271 -0.7164
  158SAPE  C31017679   2.873   5.090   7.981  0.2725  0.0851  0.3790
  158SAPE  H10X17680   2.832   5.184   8.023  3.2819  0.9723  1.6115
  158SAPE  H10Y17681   2.978   5.108   7.951  1.3237 -3.0345  1.7580
  158SAPE  C31117682   2.880   4.984   8.099 -0.0906  0.6504 -0.2796
  158SAPE  H11X17683   2.931   4.890   8.068 -0.5216  0.2615  0.1796
  158SAPE  H11Y17684   2.774   4.967   8.124  0.2716  1.1970  1.8910
  158SAPE  C31217685   2.950   5.034   8.236 -0.8958  0.1216  0.2209
  158SAPE  H12X17686   2.886   5.114   8.278 -1.3342 -0.4354  0.6290
  158SAPE  H12Y17687   3.036   5.100   8.211 -1.3631 -0.0724 -2.1242
  158SAPE  C31317688   2.985   4.916   8.331 -0.1042  0.0880 -0.1441
  158SAPE  H13X17689   3.062   4.856   8.277 -1.2694 -0.2451 -1.4938
  158SAPE  H13Y17690   2.892   4.858   8.344  0.3486 -0.5006  0.5210
  158SAPE  C31417691   3.046   4.962   8.462  0.1378 -0.0089 -0.2983
  158SAPE  H14X17692   2.980   5.035   8.514 -2.5443 -0.3271 -2.9910
  158SAPE  H14Y17693   3.141   5.019   8.447  1.3328 -0.4423  4.1822
  158SAPE  C31517694   3.066   4.847   8.561  0.6026  0.0674 -0.4720
  158SAPE  H15X17695   3.130   4.775   8.507 -3.0329 -1.2912 -3.3819
  158SAPE  H15Y17696   2.968   4.805   8.591  1.2216  0.0292  1.6544
  158SAPE  C31617697   3.143   4.892   8.692 -0.1750 -0.5206 -0.3895
  158SAPE  H16X17698   3.091   4.985   8.726 -1.0931 -1.0868 -0.2242
  158SAPE  H16Y17699   3.247   4.912   8.660 -0.7611  3.4559 -0.3765
  158SAPE  C31717700   3.137   4.787   8.806  1.0928  0.3952 -0.9221
  158SAPE  H17X17701   3.156   4.686   8.763 -2.3691 -0.2423 -1.2563
  158SAPE  H17Y17702   3.034   4.798   8.846  2.7965  0.1015  4.2418
  158SAPE  C31817703   3.244   4.817   8.915 -0.2237  0.2558 -0.3299
  158SAPE  H18X17704   3.346   4.787   8.881 -0.0276 -0.1399  0.5820
  158SAPE  H18Y17705   3.221   4.766   9.011 -1.2207  1.0307 -0.1376
  158SAPE  H18Z17706   3.248   4.927   8.932  0.5134  0.9350 -4.0015
  159SAPE     N17707   6.800   6.230   6.025 -0.5133  0.3256  0.3116
  159SAPE   HN117708   6.900   6.248   6.006 -0.3355 -1.2511 -0.4189
  159SAPE   HN217709   6.788   6.261   6.124  3.1502  4.4186 -0.2356
  159SAPE   HN317710   6.786   6.130   6.002  1.4569  0.3725 -1.3430
  159SAPE   C1217711   6.705   6.308   5.938  0.4704 -0.1539  0.9309
  159SAPE  H12A17712   6.609   6.253   5.930  0.2833  0.1817  0.8728
  159SAPE  H12B17713   6.752   6.305   5.838 -1.6194  0.4054 -0.1159
  159SAPE   C1117714   6.679   6.452   5.996 -0.1159  0.1991  0.1309
  159SAPE  H11A17715   6.605   6.499   5.928 -0.8113  0.2445  0.8999
  159SAPE  H11B17716   6.770   6.516   5.996 -0.2210  0.3566 -0.5603
  159SAPE     P17717   6.550   6.562   6.192  0.2983 -0.3112 -0.3972
  159SAPE   O1317718   6.461   6.635   6.094  0.7493  0.2728  0.0842
  159SAPE   O1417719   6.483   6.514   6.312  0.3235 -0.4199  0.0173
  159SAPE   O1217720   6.622   6.439   6.124  0.2328 -0.3189  0.2329
  159SAPE   O1117721   6.673   6.661   6.229  0.1342  0.0780 -0.5810
  159SAPE    C117722   6.786   6.612   6.297  0.1775  0.2499  0.0012
  159SAPE    HA17723   6.790   6.501   6.297 -0.2192  0.1317  3.4449
  159SAPE    HB17724   6.882   6.640   6.247 -0.2713  1.3276 -0.2873
  159SAPE    C217725   6.788   6.646   6.449  0.9757  0.4651 -0.2135
  159SAPE    HS17726   6.879   6.598   6.492  0.4562  0.0571  0.4695
  159SAPE   O2117727   6.668   6.604   6.522 -0.3040  0.5588 -0.2239
  159SAPE   C2117728   6.673   6.476   6.554 -0.0667  0.0811  0.4329
  159SAPE   O2217729   6.762   6.397   6.522  0.7052  0.8438 -0.4138
  159SAPE   C2217730   6.563   6.449   6.652  0.6185  0.0917 -0.4609
  159SAPE   H2R17731   6.471   6.508   6.634  0.8502  0.4559 -0.4552
  159SAPE   H2S17732   6.542   6.341   6.634  1.4151 -0.4939  1.7763
  159SAPE    C317733   6.794   6.800   6.472 -0.0883 -0.4733 -0.1295
  159SAPE    HX17734   6.695   6.839   6.441 -0.1267 -0.2752  0.2334
  159SAPE    HY17735   6.875   6.841   6.407  0.6557 -1.4029  0.1820
  159SAPE   O3117736   6.815   6.840   6.609  0.1169  0.3643 -0.3160
  159SAPE   C3117737   6.942   6.815   6.660  0.1336 -0.5628  0.2840
  159SAPE   O3217738   7.035   6.768   6.598 -0.1455 -0.4862 -0.2739
  159SAPE   C3217739   6.946   6.879   6.797  0.1739 -0.3610  0.0695
  159SAPE   H2X17740   6.939   6.989   6.781 -0.7434 -0.4136  0.0738
  159SAPE   H2Y17741   7.046   6.873   6.845  0.6744  2.6271 -0.4066
  159SAPE   C2317742   6.626   6.451   6.789 -0.4610  0.5988 -0.0220
  159SAPE   H3R17743   6.679   6.544   6.821  3.3856 -1.7523  1.0646
  159SAPE   H3S17744   6.697   6.366   6.798 -0.3445  0.8058  1.1711
  159SAPE   C2417745   6.520   6.441   6.893  0.1019  0.3988  0.0088
  159SAPE   H4R17746   6.571   6.402   6.984 -0.1361 -1.0970 -0.4588
  159SAPE   H4S17747   6.444   6.363   6.867  1.2942 -0.6138 -0.5245
  159SAPE   C2517748   6.451   6.571   6.926 -0.0267 -0.4879  1.1271
  159SAPE   H5R17749   6.387   6.625   6.855  0.2899 -2.2434 -0.6048
  159SAPE   C2617750   6.436   6.616   7.047 -0.6350 -0.2013 -0.6863
  159SAPE   H6R17751   6.389   6.715   7.055  0.2379  0.1243  1.0552
  159SAPE   C2717752   6.483   6.566   7.185 -0.7087  0.2286 -0.9270
  159SAPE   H7R17753   6.469   6.642   7.265  0.1133  1.5628 -2.0046
  159SAPE   H7S17754   6.593   6.581   7.193 -1.1512  2.6754  2.5592
  159SAPE   C2817755   6.439   6.439   7.247  0.0027  1.0625 -0.7096
  159SAPE   H8R17756   6.406   6.362   7.176  2.2228  1.0124 -1.7886
  159SAPE   C2917757   6.449   6.410   7.375 -0.2380  0.6460  0.1401
  159SAPE   H9R17758   6.405   6.315   7.407  1.3601 -0.4945 -0.8908
  159SAPE  C21017759   6.497   6.488   7.491 -0.7409  0.1226  0.9784
  159SAPE  H10R17760   6.499   6.430   7.585 -0.7109 -0.2674  0.7417
  159SAPE  H10S17761   6.417   6.559   7.520 -0.9446 -0.0890  0.9361
  159SAPE  C21117762   6.634   6.542   7.472  0.3433 -0.0978  0.2471
  159SAPE  H11R17763   6.694   6.504   7.388  0.1426 -1.3585  0.6494
  159SAPE  C21217764   6.703   6.619   7.560  0.1137  0.5191  0.7013
  159SAPE  H12R17765   6.797   6.662   7.523  0.7314 -0.3063  1.2822
  159SAPE  C21317766   6.656   6.652   7.693  0.4264  0.4919  0.4482
  159SAPE  H13R17767   6.591   6.571   7.731 -0.3550  0.5950 -0.6196
  159SAPE  H13S17768   6.585   6.736   7.679 -2.3298 -1.7348  0.2151
  159SAPE  C21417769   6.766   6.690   7.782  0.1457  0.2324 -0.4087
  159SAPE  H14R17770   6.865   6.665   7.740  0.0683  1.2919 -1.2689
  159SAPE  C21517771   6.747   6.772   7.886  0.4656 -0.1795 -0.7602
  159SAPE  H15R17772   6.831   6.784   7.957 -1.2138  3.0880  0.9401
  159SAPE  C21617773   6.619   6.826   7.954  0.0838 -0.3694  0.3954
  159SAPE  H16R17774   6.530   6.766   7.927 -0.1312 -0.9519  2.2955
  159SAPE  H16S17775   6.588   6.929   7.926  0.4240 -0.9637 -2.5502
  159SAPE  C21717776   6.625   6.819   8.109  0.6526 -0.4160 -0.0254
  159SAPE  H17R17777   6.710   6.876   8.153  2.7277 -0.9846 -3.0307
  159SAPE  H17S17778   6.643   6.712   8.132 -1.3102 -1.0239 -1.1058
  159SAPE  C21817779   6.493   6.859   8.178  0.3988 -0.0652  0.5481
  159SAPE  H18R17780   6.476   6.832   8.285 -0.1925  0.5804  0.6341
  159SAPE  H18S17781   6.413   6.801   8.127  0.3420 -1.1283  1.8002
  159SAPE  C21917782   6.443   7.004   8.154 -0.4551  0.0424  0.1174
  159SAPE  H19R17783   6.405   7.012   8.049  0.2872 -3.0493 -0.4660
  159SAPE  H19S17784   6.521   7.078   8.183 -0.1475  0.0217 -0.6220
  159SAPE  C22017785   6.320   7.041   8.223  0.8009  0.0901 -0.0073
  159SAPE  H20R17786   6.334   7.017   8.331 -1.1892  0.8734  0.4757
  159SAPE  H20S17787   6.225   6.997   8.189  0.7597 -2.4986  2.9637
  159SAPE  H20T17788   6.302   7.151   8.216  2.7380  0.3424 -2.7387
  159SAPE   C3317789   6.825   6.822   6.879 -0.7036 -0.3539 -0.1575
  159SAPE   H3X17790   6.818   6.714   6.852  1.5010 -1.0161  1.5969
  159SAPE   H3Y17791   6.737   6.875   6.836 -0.2132 -0.5643 -1.4721
  159SAPE   C3417792   6.824   6.849   7.029  0.6113  0.0330  0.0306
  159SAPE   H4X17793   6.901   6.791   7.083  0.5581  1.9136  2.3322
  159SAPE   H4Y17794   6.727   6.820   7.075  0.9452  0.0207  0.7358
  159SAPE   C3517795   6.850   6.995   7.074 -0.1113  0.7546 -0.1107
  159SAPE   H5X17796   6.767   7.066   7.053 -0.3932  0.6257  0.5678
  159SAPE   H5Y17797   6.931   7.033   7.007 -0.4360  1.6968  0.0215
  159SAPE   C3617798   6.893   7.003   7.220 -0.4034  0.1986  0.2418
  159SAPE   H6X17799   6.923   7.109   7.234  0.7843 -0.1710  0.6351
  159SAPE   H6Y17800   6.984   6.943   7.240  0.8327  1.5135 -1.1941
  159SAPE   C3717801   6.782   6.987   7.329  0.1917  0.0458  0.1165
  159SAPE   H7X17802   6.735   6.887   7.315 -0.1024  0.0854  0.7982
  159SAPE   H7Y17803   6.711   7.071   7.341  2.2376  1.5750  2.4579
  159SAPE   C3817804   6.857   6.973   7.470 -0.0258 -0.2443 -0.3752
  159SAPE   H8X17805   6.944   6.904   7.464  1.2529  1.3657 -1.7823
  159SAPE   H8Y17806   6.773   6.949   7.539  0.1509  0.8329  0.2566
  159SAPE   C3917807   6.908   7.108   7.526 -0.3719  0.5695 -0.4925
  159SAPE   H9X17808   6.822   7.166   7.566  0.8047  2.5960 -0.7686
  159SAPE   H9Y17809   6.968   7.159   7.448  0.4541 -1.2179 -1.0839
  159SAPE  C31017810   6.985   7.071   7.656  0.2029 -0.3754  0.0564
  159SAPE  H10X17811   7.088   7.042   7.626  0.3692  2.6985 -3.0487
  159SAPE  H10Y17812   6.935   6.980   7.696 -1.3656  0.1521 -0.6385
  159SAPE  C31117813   6.991   7.194   7.753 -0.6780 -0.6729 -0.4516
  159SAPE  H11X17814   6.896   7.251   7.744  0.8931  2.1620 -0.4967
  159SAPE  H11Y17815   7.067   7.274   7.734  1.2310 -2.5937 -1.2831
  159SAPE  C31217816   7.023   7.157   7.898  0.3842 -0.4610  0.0574
  159SAPE  H12X17817   7.133   7.143   7.913  0.3002 -3.6340 -1.2792
  159SAPE  H12Y17818   6.975   7.061   7.928 -1.1624  0.2774 -0.0125
  159SAPE  C31317819   6.950   7.260   7.985  0.0245  0.1275 -0.8275
  159SAPE  H13X17820   6.840   7.251   7.972 -0.0374 -0.3450 -0.0631
  159SAPE  H13Y17821   6.985   7.363   7.961 -0.5550  0.4731 -0.2208
  159SAPE  C31417822   6.983   7.228   8.131 -0.3171  0.0120  0.4868
  159SAPE  H14X17823   7.091   7.247   8.143  0.3246 -0.6645 -3.1698
  159SAPE  H14Y17824   6.957   7.122   8.153 -0.0580  0.1041  1.2707
  159SAPE  C31517825   6.919   7.309   8.245  0.0628  0.3391  0.0122
  159SAPE  H15X17826   6.930   7.418   8.225 -0.0830  0.4712  0.6350
  159SAPE  H15Y17827   6.967   7.300   8.344 -0.4259  0.7279  0.2899
  159SAPE  C31617828   6.771   7.274   8.264 -0.7961 -0.1120  0.3085
  159SAPE  H16X17829   6.759   7.181   8.323  2.0441 -0.4782  0.4462
  159SAPE  H16Y17830   6.723   7.256   8.166  0.5826 -1.3396 -0.1883
  159SAPE  C31717831   6.701   7.384   8.340 -0.2963 -0.1105  0.2958
  159SAPE  H17X17832   6.707   7.478   8.282  0.2153  0.1509  0.7667
  159SAPE  H17Y17833   6.756   7.387   8.436 -1.2075  1.0574  0.8015
  159SAPE  C31817834   6.553   7.354   8.379  0.0590 -0.5160  0.7095
  159SAPE  H18X17835   6.495   7.337   8.285  0.4238 -1.0174  0.5753
  159SAPE  H18Y17836   6.519   7.442   8.438  2.4274 -0.4970  2.1784
  159SAPE  H18Z17837   6.533   7.266   8.443  0.0904  0.2016  1.7317
  160SAPE     N17838   2.407   5.835   6.227  0.2554  0.1870  0.7719
  160SAPE   HN117839   2.416   5.937   6.206 -1.4992  0.2782  0.2916
  160SAPE   HN217840   2.405   5.777   6.141  0.6107 -0.5340  1.2459
  160SAPE   HN317841   2.316   5.827   6.277 -0.3825  0.3564 -0.3336
  160SAPE   C1217842   2.524   5.802   6.306 -0.7175  0.0712  0.7687
  160SAPE  H12A17843   2.539   5.695   6.282 -2.8815  0.0531 -0.7947
  160SAPE  H12B17844   2.508   5.822   6.414  0.3387 -0.0808  0.9611
  160SAPE   C1117845   2.642   5.891   6.257  0.0677  0.1527 -0.2072
  160SAPE  H11A17846   2.662   5.862   6.151 -3.9329  2.5198 -1.8707
  160SAPE  H11B17847   2.736   5.877   6.314  3.0559  0.7446 -4.5200
  160SAPE     P17848   2.608   6.099   6.404  0.4429  0.1313 -0.0310
  160SAPE   O1317849   2.723   6.055   6.480  0.1894 -0.0757 -0.4749
  160SAPE   O1417850   2.615   6.242   6.369  0.2949 -0.1050  0.4732
  160SAPE   O1217851   2.601   6.027   6.265  0.1018  0.2222 -0.0918
  160SAPE   O1117852   2.468   6.065   6.472 -0.1902  0.3451  0.1473
  160SAPE    C117853   2.357   6.157   6.464 -0.5382 -0.5504  0.0621
  160SAPE    HA17854   2.361   6.215   6.370 -1.3399 -1.7526 -0.7342
  160SAPE    HB17855   2.259   6.105   6.462 -0.8878  0.1160 -0.6275
  160SAPE    C217856   2.350   6.249   6.592  0.0039  0.2650  0.1675
  160SAPE    HS17857   2.426   6.328   6.578 -0.7664  0.7082 -1.8210
  160SAPE   O2117858   2.372   6.169   6.714  0.0977 -0.9091 -0.1857
  160SAPE   C2117859   2.493   6.167   6.767  0.2806 -0.3534 -0.1947
  160SAPE   O2217860   2.583   6.244   6.747 -0.0674 -0.2554 -0.4918
  160SAPE   C2217861   2.484   6.074   6.885 -0.4763  0.2587  0.1945
  160SAPE   H2R17862   2.416   6.111   6.965 -1.5292 -0.8689 -0.1500
  160SAPE   H2S17863   2.442   5.983   6.836  2.1071 -0.5719 -0.6674
  160SAPE    C317864   2.219   6.337   6.608 -0.0611 -0.1141 -0.3231
  160SAPE    HX17865   2.133   6.266   6.616  0.8989 -1.1917  0.9274
  160SAPE    HY17866   2.203   6.405   6.521  0.8116  0.2140 -0.2345
  160SAPE   O3117867   2.229   6.430   6.713  0.0977  0.5682 -0.6712
  160SAPE   C3117868   2.188   6.388   6.822  0.0273  0.0456 -0.3954
  160SAPE   O3217869   2.104   6.301   6.843 -0.3874  0.0591  0.1090
  160SAPE   C3217870   2.267   6.460   6.932  0.1367 -0.4407  0.0844
  160SAPE   H2X17871   2.212   6.555   6.951 -0.4031 -0.2331 -2.1360
  160SAPE   H2Y17872   2.367   6.480   6.889  0.0955 -0.8381 -0.1942
  160SAPE   C2317873   2.627   6.044   6.943  0.4370 -0.2168  0.1872
  160SAPE   H3R17874   2.673   6.141   6.973 -1.2939  0.4732  0.7560
  160SAPE   H3S17875   2.677   6.003   6.852 -1.1337  0.4491 -1.0276
  160SAPE   C2417876   2.628   5.947   7.053  0.1989 -0.1172 -0.4628
  160SAPE   H4R17877   2.624   5.845   7.008  0.7511 -0.7972  0.9754
  160SAPE   H4S17878   2.530   5.957   7.103  0.0082  0.5283 -0.9624
  160SAPE   C2517879   2.743   5.967   7.152  0.4265 -0.0689  0.0052
  160SAPE   H5R17880   2.825   5.899   7.127 -1.0682 -1.2757 -1.9415
  160SAPE   C2617881   2.756   6.057   7.257 -1.0243  0.4829  0.6023
  160SAPE   H6R17882   2.838   6.035   7.327  0.4774  1.5770 -0.7384
  160SAPE   C2717883   2.661   6.179   7.283 -0.1870 -0.3249 -0.4210
  160SAPE   H7R17884   2.596   6.203   7.197  0.4280 -1.4248 -1.2129
  160SAPE   H7S17885   2.717   6.275   7.286 -0.2704 -0.2696 -0.6226
  160SAPE   C2817886   2.561   6.170   7.392  0.1450  0.4490  1.1211
  160SAPE   H8R17887   2.475   6.114   7.352  0.8044 -1.6069  2.4418
  160SAPE   C2917888   2.562   6.215   7.522 -0.3721 -0.1033  0.2229
  160SAPE   H9R17889   2.479   6.199   7.592  2.3420 -0.2881  3.6319
  160SAPE  C21017890   2.680   6.285   7.586  0.6145  0.5575 -0.0249
  160SAPE  H10R17891   2.662   6.392   7.611  2.6287  0.9372 -0.0225
  160SAPE  H10S17892   2.761   6.286   7.510  1.1020 -0.9875  0.4266
  160SAPE  C21117893   2.725   6.203   7.704 -0.8563 -0.0873  0.2471
  160SAPE  H11R17894   2.809   6.137   7.678  0.3927  0.9479  1.4680
  160SAPE  C21217895   2.696   6.230   7.833 -0.0315  0.2751 -0.3897
  160SAPE  H12R17896   2.742   6.176   7.916  1.0175  1.3953 -0.2273
  160SAPE  C21317897   2.599   6.332   7.891  0.2168 -0.3516  0.1123
  160SAPE  H13R17898   2.523   6.278   7.952  0.5224  0.6917  1.4816
  160SAPE  H13S17899   2.535   6.377   7.813  0.4705  0.1180  0.1731
  160SAPE  C21417900   2.687   6.432   7.962  0.4066  0.0702 -0.4928
  160SAPE  H14R17901   2.758   6.482   7.894  0.0233 -0.7956 -1.5560
  160SAPE  C21517902   2.695   6.455   8.095  0.4263 -0.4109 -0.0333
  160SAPE  H15R17903   2.775   6.519   8.135  0.0998  0.0167 -0.0499
  160SAPE  C21617904   2.611   6.385   8.206 -0.4815 -0.7099 -0.7617
  160SAPE  H16R17905   2.672   6.378   8.299 -1.7940  1.2333  0.3132
  160SAPE  H16S17906   2.589   6.280   8.175 -0.6673 -0.8472 -0.1795
  160SAPE  C21717907   2.485   6.462   8.248 -0.3393  0.3189  0.4234
  160SAPE  H17R17908   2.441   6.390   8.319 -1.7069  0.0220 -0.6802
  160SAPE  H17S17909   2.413   6.475   8.164 -0.9602 -0.2855  0.8575
  160SAPE  C21817910   2.498   6.612   8.291 -0.0091  0.3788  0.3655
  160SAPE  H18R17911   2.437   6.681   8.229  1.4171  0.3450 -1.1134
  160SAPE  H18S17912   2.602   6.630   8.259 -0.3139 -1.2215 -1.7776
  160SAPE  C21917913   2.474   6.628   8.437  0.1554 -0.6607 -0.0002
  160SAPE  H19R17914   2.540   6.553   8.485  1.0581  0.7314  0.9965
  160SAPE  H19S17915   2.372   6.603   8.472  0.5144  1.0917  2.5861
  160SAPE  C22017916   2.505   6.770   8.490 -0.1630  0.3534  0.4317
  160SAPE  H20R17917   2.614   6.793   8.497 -0.3669  3.1805 -3.0954
  160SAPE  H20S17918   2.455   6.809   8.581 -1.8970  4.2050 -1.9254
  160SAPE  H20T17919   2.466   6.841   8.414  0.4955  1.0695  0.7460
  160SAPE   C3317920   2.279   6.388   7.068 -0.3094  0.0088 -0.8524
  160SAPE   H3X17921   2.315   6.283   7.064  1.2638  0.5508 -1.7164
  160SAPE   H3Y17922   2.174   6.387   7.106 -0.6473 -2.6605 -1.5992
  160SAPE   C3417923   2.370   6.468   7.163  0.2362 -0.0313 -0.6453
  160SAPE   H4X17924   2.363   6.575   7.134  0.9021 -0.4270 -2.3656
  160SAPE   H4Y17925   2.474   6.439   7.137 -0.2713 -0.2791 -2.5476
  160SAPE   C3517926   2.329   6.458   7.309 -0.3405  0.8122  0.3591
  160SAPE   H5X17927   2.426   6.436   7.359 -0.1299  2.1575  0.5808
  160SAPE   H5Y17928   2.247   6.385   7.322 -1.0413  0.8545 -2.9583
  160SAPE   C3617929   2.279   6.593   7.365  0.6170  0.4834 -0.5631
  160SAPE   H6X17930   2.183   6.612   7.314  0.4241  3.0617  0.5888
  160SAPE   H6Y17931   2.349   6.676   7.340 -0.3374  2.0392  1.6110
  160SAPE   C3717932   2.254   6.578   7.519  0.1322  0.4882  0.6879
  160SAPE   H7X17933   2.210   6.478   7.538 -1.8117  1.1650  0.0011
  160SAPE   H7Y17934   2.188   6.661   7.550  0.4934  1.1362 -0.2341
  160SAPE   C3817935   2.387   6.588   7.598  0.5463  0.1538  0.4382
  160SAPE   H8X17936   2.423   6.691   7.577  1.8585  0.0634  2.0318
  160SAPE   H8Y17937   2.461   6.513   7.562  0.4122 -0.8852  2.2317
  160SAPE   C3917938   2.374   6.561   7.752 -0.6626  0.2696  0.4276
  160SAPE   H9X17939   2.476   6.581   7.791  0.3883 -1.8412 -1.0254
  160SAPE   H9Y17940   2.333   6.458   7.757 -0.8380  0.3356  0.3725
  160SAPE  C31017941   2.273   6.657   7.820  0.5665  0.0511  0.3867
  160SAPE  H10X17942   2.165   6.633   7.807 -0.0150  1.6699  1.8065
  160SAPE  H10Y17943   2.289   6.762   7.787 -0.2877  0.3399  0.8665
  160SAPE  C31117944   2.289   6.637   7.967  0.0104 -0.4677  0.1042
  160SAPE  H11X17945   2.393   6.651   8.003  0.1287  1.0479 -0.7445
  160SAPE  H11Y17946   2.259   6.532   7.988  2.0308 -0.9442  0.8541
  160SAPE  C31217947   2.201   6.733   8.052  0.6752  0.0936 -0.2637
  160SAPE  H12X17948   2.199   6.695   8.157 -0.3729 -1.7602 -0.9034
  160SAPE  H12Y17949   2.096   6.713   8.021 -0.8892  0.8941  3.8304
  160SAPE  C31317950   2.241   6.879   8.038  0.2253 -0.4737 -0.3396
  160SAPE  H13X17951   2.203   6.915   7.940  1.3036 -0.5145 -0.7916
  160SAPE  H13Y17952   2.352   6.892   8.036  0.4006 -1.5600  1.2069
  160SAPE  C31417953   2.178   6.968   8.153 -0.4030  0.3376  0.4709
  160SAPE  H14X17954   2.224   6.926   8.245 -0.8594 -0.9183  0.1593
  160SAPE  H14Y17955   2.069   6.954   8.170 -0.3803  1.7679  2.0708
  160SAPE  C31517956   2.219   7.113   8.143  0.5393 -0.0190  0.1116
  160SAPE  H15X17957   2.177   7.176   8.061 -0.3463  0.7336  1.1091
  160SAPE  H15Y17958   2.329   7.116   8.124  0.2433 -1.0917 -2.1880
  160SAPE  C31617959   2.190   7.196   8.273  0.3400  0.2651 -0.7436
  160SAPE  H16X17960   2.082   7.187   8.297  0.8245  0.1004  1.6925
  160SAPE  H16Y17961   2.203   7.304   8.251 -1.1909  0.5588 -0.2973
  160SAPE  C31717962   2.265   7.152   8.402  0.0559 -0.0962  0.3833
  160SAPE  H17X17963   2.267   7.041   8.403  2.8302 -0.1540 -1.3731
  160SAPE  H17Y17964   2.207   7.180   8.493 -1.4340 -1.9750  0.0674
  160SAPE  C31817965   2.412   7.196   8.403 -0.1638  0.0074 -0.2417
  160SAPE  H18X17966   2.462   7.158   8.495 -1.1005 -0.8659 -0.0704
  160SAPE  H18Y17967   2.427   7.306   8.405 -1.2230  0.1605  0.4066
  160SAPE  H18Z17968   2.461   7.140   8.321  0.9788  1.7255 -0.7877
  161SOPE     N17969   6.087   2.238  10.654 -0.8587 -0.0634  0.1318
  161SOPE   HN117970   6.115   2.335  10.678 -0.0247 -0.3829  0.5197
  161SOPE   HN217971   6.099   2.185  10.742 -0.3051 -2.3479 -1.2242
  161SOPE   HN317972   6.158   2.189  10.595 -2.4459 -0.1390 -1.8235
  161SOPE   C1217973   5.954   2.229  10.594 -0.5086 -0.8475 -0.2393
  161SOPE  H12A17974   5.925   2.329  10.555 -3.9237 -1.6539 -0.1195
  161SOPE  H12B17975   5.891   2.209  10.683  1.5116  0.6229  1.6166
  161SOPE   C1117976   5.963   2.110  10.491  0.1735 -0.3246 -0.0901
  161SOPE  H11A17977   6.023   2.140  10.403  2.4676 -1.8912  0.8371
  161SOPE  H11B17978   5.858   2.098  10.457 -0.1785  2.3172 -0.1529
  161SOPE     P17979   6.140   1.917  10.520 -0.1600  0.0971 -0.2165
  161SOPE   O1317980   6.156   1.790  10.583 -0.4994  0.2764 -1.2537
  161SOPE   O1417981   6.243   2.024  10.531  0.2553 -0.0006 -0.5927
  161SOPE   O1217982   5.997   1.980  10.554  0.0957 -0.3416 -0.0747
  161SOPE   O1117983   6.128   1.888  10.366 -0.0140 -0.3195  0.2939
  161SOPE    C117984   6.080   1.760  10.321  0.3921  0.6949 -0.3816
  161SOPE    HA17985   5.997   1.720  10.381  1.0958  1.2586  1.0188
  161SOPE    HB17986   6.160   1.683  10.326 -0.4642 -0.3013 -1.6003
  161SOPE    C217987   6.027   1.772  10.176 -0.0235  0.2388 -0.4324
  161SOPE    HS17988   5.981   1.672  10.155  1.7171 -1.1183  1.7476
  161SOPE   O2117989   6.131   1.802  10.086  0.3513 -0.2571 -0.1620
  161SOPE   C2117990   6.133   1.744   9.972 -0.5316  0.5108 -0.5054
  161SOPE   O2217991   6.042   1.699   9.905 -0.9743 -0.1598 -0.0177
  161SOPE   C2217992   6.276   1.721   9.937 -0.8822  0.0131 -0.3312
  161SOPE   H2R17993   6.319   1.656  10.017 -1.8117  1.6779  1.6102
  161SOPE   H2S17994   6.329   1.818   9.930  0.5646 -0.6169  1.2319
  161SOPE    C317995   5.918   1.880  10.171 -0.2733 -0.5887 -0.1015
  161SOPE    HX17996   5.956   1.979  10.206 -0.2848 -1.2732  1.9513
  161SOPE    HY17997   5.833   1.864  10.240  0.3770  0.9409  1.0968
  161SOPE   O3117998   5.868   1.905  10.039  0.6186 -0.2579  0.4739
  161SOPE   C3117999   5.783   1.817   9.994  0.7465 -0.2268  0.5202
  161SOPE   O3218000   5.718   1.736  10.057  0.1579 -0.4219  0.2143
  161SOPE   C3218001   5.761   1.842   9.839  0.3160 -0.1961  0.8682
  161SOPE   H2X18002   5.782   1.741   9.796  0.9463  0.0541  0.5619
  161SOPE   H2Y18003   5.842   1.915   9.818  0.1665  0.3346  2.0704
  161SOPE   C2318004   6.299   1.647   9.812 -0.8992  0.0034  0.1791
  161SOPE   H3R18005   6.256   1.709   9.731  0.3561  2.5804  1.3889
  161SOPE   H3S18006   6.235   1.556   9.821 -2.3469  0.9842  0.0076
  161SOPE   C2418007   6.447   1.625   9.774 -0.6936  0.0379 -0.1865
  161SOPE   H4R18008   6.504   1.719   9.754 -0.0434  0.1476  1.9286
  161SOPE   H4S18009   6.510   1.583   9.855 -0.0938  2.4995  0.7172
  161SOPE   C2518010   6.471   1.550   9.645  0.4333 -0.5207 -0.2273
  161SOPE   H5R18011   6.434   1.448   9.666 -0.6014 -0.1442 -0.1714
  161SOPE   H5S18012   6.401   1.598   9.573 -0.7972 -1.5438  0.2442
  161SOPE   C2618013   6.618   1.539   9.606 -0.6655 -1.2451 -0.4649
  161SOPE   H6R18014   6.692   1.529   9.688 -1.8135 -1.4533  0.5794
  161SOPE   H6S18015   6.634   1.453   9.537 -1.0386 -0.6719 -1.2841
  161SOPE   C2718016   6.654   1.664   9.531 -0.3530  0.8521 -0.3963
  161SOPE   H7R18017   6.570   1.699   9.466 -1.6401 -2.0564 -0.4384
  161SOPE   H7S18018   6.654   1.750   9.601  0.4113  1.2575 -0.8884
  161SOPE   C2818019   6.778   1.657   9.439 -0.5398 -0.3358  0.5416
  161SOPE   H8R18020   6.798   1.758   9.396  1.6992 -0.3573  1.4080
  161SOPE   H8S18021   6.857   1.624   9.509 -0.3368 -2.6349 -0.6775
  161SOPE   C2918022   6.771   1.548   9.340 -0.3960 -0.3153  0.7979
  161SOPE   H9118023   6.845   1.468   9.357 -1.1054 -0.6186  2.7033
  161SOPE  C21018024   6.725   1.551   9.215  0.0399  0.4468  0.3427
  161SOPE  H10118025   6.739   1.468   9.143 -1.0435  0.8745 -0.3910
  161SOPE  C21118026   6.650   1.670   9.160 -0.1775  0.4398  0.3354
  161SOPE  H11R18027   6.634   1.749   9.237 -0.3235  0.6307  0.1124
  161SOPE  H11S18028   6.546   1.639   9.137 -0.7674  1.1320  1.9215
  161SOPE  C21218029   6.705   1.732   9.029  0.0136 -0.3980 -0.3059
  161SOPE  H12R18030   6.658   1.830   9.007 -1.7395 -0.0777  3.8216
  161SOPE  H12S18031   6.682   1.668   8.942 -2.1405 -1.3530  0.8691
  161SOPE  C21318032   6.852   1.743   9.042 -0.1949 -0.7687  0.0418
  161SOPE  H13R18033   6.896   1.643   9.023 -0.2304 -1.1302  1.7156
  161SOPE  H13S18034   6.877   1.769   9.147 -0.7192  0.8663 -0.2037
  161SOPE  C21418035   6.917   1.859   8.954  0.0578  0.3567  1.0340
  161SOPE  H14R18036   7.004   1.911   9.000  1.1679 -2.0751  1.8388
  161SOPE  H14S18037   6.839   1.939   8.951  0.2226  0.6505  3.1282
  161SOPE  C21518038   6.947   1.803   8.812  0.3652  0.5866  0.0519
  161SOPE  H15R18039   6.918   1.695   8.810 -0.7713  0.8953 -0.9706
  161SOPE  H15S18040   7.051   1.810   8.774  0.0823 -2.4245 -1.6493
  161SOPE  C21618041   6.858   1.864   8.707  0.3404  0.5473  0.2572
  161SOPE  H16R18042   6.852   1.975   8.716 -0.0921  0.4867  0.8404
  161SOPE  H16S18043   6.754   1.823   8.712  0.8583 -0.9116 -0.4866
  161SOPE  C21718044   6.894   1.828   8.561  0.7716 -0.5638 -0.8848
  161SOPE  H17R18045   6.835   1.739   8.532 -2.5141  1.2926 -0.3478
  161SOPE  H17S18046   7.003   1.806   8.554  0.7491 -1.6603  1.5548
  161SOPE  C21818047   6.845   1.933   8.464 -0.3803 -0.7295  0.6353
  161SOPE  H18R18048   6.889   1.939   8.362  1.0426  2.3467  1.3127
  161SOPE  H18S18049   6.862   2.032   8.511  0.6593 -0.0121 -1.1580
  161SOPE  H18T18050   6.736   1.929   8.444 -0.3161  1.0511 -0.2842
  161SOPE   C3318051   5.625   1.878   9.783  1.0023 -0.4222 -0.2112
  161SOPE   H3X18052   5.595   1.978   9.820 -2.2120 -2.0016  1.8525
  161SOPE   H3Y18053   5.547   1.804   9.810  2.3685 -2.1540 -0.7829
  161SOPE   C3418054   5.631   1.892   9.627  0.0338  0.0552 -0.5775
  161SOPE   H4X18055   5.629   1.788   9.587  1.1865 -0.0307 -0.4289
  161SOPE   H4Y18056   5.725   1.934   9.587  0.0560 -0.8996 -1.6010
  161SOPE   C3518057   5.515   1.987   9.575 -0.1017 -0.7682  0.2203
  161SOPE   H5X18058   5.521   2.091   9.614 -0.7472 -1.1617  1.4094
  161SOPE   H5Y18059   5.417   1.940   9.600 -0.7072 -0.7092 -1.8900
  161SOPE   C3618060   5.517   2.006   9.424  0.0953 -0.3177 -0.1393
  161SOPE   H6X18061   5.498   1.907   9.376  0.8319 -0.9198  0.7650
  161SOPE   H6Y18062   5.618   2.039   9.393  0.7858 -1.0317  1.2468
  161SOPE   C3718063   5.417   2.113   9.380 -0.2569 -0.0805  0.5816
  161SOPE   H7X18064   5.437   2.221   9.396 -1.6296  0.4047 -0.7585
  161SOPE   H7Y18065   5.315   2.088   9.416 -1.5196  3.4090 -0.1288
  161SOPE   C3818066   5.393   2.112   9.224 -0.2750 -0.4672  0.5357
  161SOPE   H8X18067   5.303   2.175   9.205 -0.6026 -1.0397  0.1618
  161SOPE   H8Y18068   5.366   2.013   9.184  0.1678  1.1505 -4.3764
  161SOPE   C3918069   5.515   2.162   9.152  0.0332  0.5911 -0.7042
  161SOPE   H9X18070   5.588   2.084   9.182  0.7599  1.4303 -0.2522
  161SOPE   H9Y18071   5.565   2.253   9.191 -0.8318  0.8368 -0.1425
  161SOPE  C31018072   5.512   2.159   9.003  0.2015  0.2867  0.2501
  161SOPE  H10X18073   5.422   2.216   8.970 -0.8061 -0.9977  0.6707
  161SOPE  H10Y18074   5.498   2.051   8.983  1.7159 -0.8583  4.3558
  161SOPE  C31118075   5.641   2.210   8.935 -0.4002 -0.0095  0.5985
  161SOPE  H11X18076   5.733   2.151   8.958  1.3555  1.9934 -0.8784
  161SOPE  H11Y18077   5.670   2.315   8.955  2.1565 -0.1582 -1.6985
  161SOPE  C31218078   5.622   2.233   8.784  0.2117 -0.0002 -0.2844
  161SOPE  H12X18079   5.690   2.316   8.754 -1.8161  1.7911 -0.1974
  161SOPE  H12Y18080   5.531   2.293   8.761 -0.8873 -1.5786 -0.1819
  161SOPE  C31318081   5.639   2.108   8.704 -0.2089 -0.4133  0.4235
  161SOPE  H13X18082   5.561   2.034   8.733 -1.1533  0.5745  0.4590
  161SOPE  H13Y18083   5.726   2.056   8.751 -1.1413 -1.0079  1.5562
  161SOPE  C31418084   5.657   2.112   8.547  0.1950  0.0205 -1.0168
  161SOPE  H14X18085   5.748   2.173   8.534  0.4000 -0.4480 -1.9081
  161SOPE  H14Y18086   5.568   2.151   8.493 -0.6464  1.6788  1.4250
  161SOPE  C31518087   5.696   1.985   8.460 -0.2741 -0.5227  0.0780
  161SOPE  H15X18088   5.618   1.906   8.463  0.6999 -1.5527 -0.8194
  161SOPE  H15Y18089   5.793   1.936   8.484  0.1517 -0.1738 -0.8942
  161SOPE  C31618090   5.706   2.015   8.309  0.1220  0.6685 -0.3668
  161SOPE  H16X18091   5.812   2.033   8.281  0.4587 -1.0575 -0.3339
  161SOPE  H16Y18092   5.641   2.104   8.297 -1.3784 -0.4385 -0.8333
  161SOPE  C31718093   5.661   1.896   8.222  0.6576  0.9046 -0.2379
  161SOPE  H17X18094   5.552   1.881   8.237  0.3563  2.2742 -0.9488
  161SOPE  H17Y18095   5.717   1.811   8.266 -1.7578  0.2826  1.8073
  161SOPE  C31818096   5.684   1.916   8.074  0.2618 -1.1537  0.8895
  161SOPE  H18X18097   5.597   1.968   8.030 -0.8968 -0.6625  3.6014
  161SOPE  H18Y18098   5.687   1.816   8.025  0.5405 -1.7569  2.1136
  161SOPE  H18Z18099   5.781   1.966   8.049 -0.3594 -0.6673 -0.6944
  162SOPE     N18100   6.068   0.197  10.730  0.4131 -1.1648  0.1000
  162SOPE   HN118101   6.113   0.257  10.802  1.1614  0.3900 -1.5861
  162SOPE   HN218102   6.087   0.097  10.752 -0.8096 -2.2308 -3.0593
  162SOPE   HN318103   6.111   0.225  10.640  0.6877 -2.5216 -0.2187
  162SOPE   C1218104   5.925   0.231  10.719  1.1280 -0.3940 -0.6039
  162SOPE  H12A18105   5.865   0.161  10.658  0.4267 -1.0641  0.7948
  162SOPE  H12B18106   5.921   0.329  10.667  1.5409  0.0188  0.1196
  162SOPE   C1118107   5.856   0.235  10.856 -0.9767  0.7630 -0.4440
  162SOPE  H11A18108   5.754   0.277  10.843 -1.5634 -0.7445 -0.9899
  162SOPE  H11B18109   5.914   0.299  10.927  0.0091 -1.1060  0.5129
  162SOPE     P18110   5.700   0.022  10.890 -0.0489 -0.1244 -0.1244
  162SOPE   O1318111   5.593   0.114  10.933  0.8373 -0.2458  0.1454
  162SOPE   O1418112   5.705  -0.097  10.984 -0.3723  0.0858  0.1564
  162SOPE   O1218113   5.838   0.100  10.904 -0.0621 -0.1359 -0.4086
  162SOPE   O1118114   5.695  -0.021  10.737  0.4093 -0.5939 -0.0310
  162SOPE    C118115   5.789  -0.111  10.674  0.6434  0.4584 -0.2774
  162SOPE    HA18116   5.767  -0.219  10.694 -0.4533  0.7068 -0.0493
  162SOPE    HB18117   5.889  -0.079  10.708  0.9293  0.4245 -1.0701
  162SOPE    C218118   5.785  -0.096  10.520 -0.1846  0.9442  0.1133
  162SOPE    HS18119   5.773   0.012  10.494 -1.4608  0.8903  0.4167
  162SOPE   O2118120   5.675  -0.173  10.466  0.3403  0.1191 -0.3152
  162SOPE   C2118121   5.616  -0.124  10.359 -0.8435  0.1180  0.6105
  162SOPE   O2218122   5.643  -0.022  10.299  0.3137  0.0812  0.6526
  162SOPE   C2218123   5.516  -0.236  10.311  0.5552  0.2022 -0.1830
  162SOPE   H2R18124   5.455  -0.252  10.402  1.7173  0.7446  0.7232
  162SOPE   H2S18125   5.577  -0.328  10.302  1.6873  0.8829  0.2235
  162SOPE    C318126   5.922  -0.141  10.458 -0.1595 -0.6879  0.4276
  162SOPE    HX18127   5.952  -0.244  10.484  3.2575  0.3495  1.1580
  162SOPE    HY18128   5.999  -0.082  10.514  2.0481 -1.5246 -1.5522
  162SOPE   O3118129   5.933  -0.115  10.312 -0.1737 -0.0518  0.6124
  162SOPE   C3118130   5.977  -0.001  10.267  0.1137  0.5767 -0.1102
  162SOPE   O3218131   6.044   0.077  10.335 -0.4921 -0.4620  1.1490
  162SOPE   C3218132   5.941   0.004  10.124 -0.5499 -0.0777  1.0239
  162SOPE   H2X18133   6.034   0.047  10.080  1.1848 -2.7980  1.8137
  162SOPE   H2Y18134   5.855   0.072  10.105  1.0609  2.1255  1.2035
  162SOPE   C2318135   5.431  -0.213  10.190 -1.0275 -0.7462 -0.0614
  162SOPE   H3R18136   5.362  -0.128  10.202 -0.7748 -0.3437 -1.3168
  162SOPE   H3S18137   5.378  -0.311  10.189 -0.9731 -0.8018  1.2163
  162SOPE   C2418138   5.497  -0.190  10.054 -0.4251 -0.1350  0.9746
  162SOPE   H4R18139   5.518  -0.082  10.035  0.6547 -0.8221 -2.2484
  162SOPE   H4S18140   5.596  -0.239  10.063 -1.0114 -1.9983 -1.6269
  162SOPE   C2518141   5.440  -0.254   9.926  0.2652  0.9996  1.3063
  162SOPE   H5R18142   5.420  -0.363   9.936  1.4726  0.3770 -1.8698
  162SOPE   H5S18143   5.343  -0.206   9.902  0.1581  1.1041  1.9261
  162SOPE   C2618144   5.531  -0.229   9.811  0.8669 -0.0457  0.1632
  162SOPE   H6R18145   5.570  -0.125   9.817 -0.9998  0.5919  2.2656
  162SOPE   H6S18146   5.621  -0.293   9.821  1.6927  0.8487 -1.2055
  162SOPE   C2718147   5.465  -0.257   9.679 -0.3424  0.1309 -0.6426
  162SOPE   H7R18148   5.420  -0.358   9.687 -1.4998  0.7668  3.6390
  162SOPE   H7S18149   5.387  -0.181   9.658 -0.8803  0.1383  1.2173
  162SOPE   C2818150   5.577  -0.259   9.574  0.3249 -0.9901  0.3160
  162SOPE   H8R18151   5.608  -0.155   9.551 -0.3971 -0.2271  2.5513
  162SOPE   H8S18152   5.667  -0.308   9.618  0.4400  0.1735  1.4092
  162SOPE   C2918153   5.523  -0.329   9.452 -0.0407 -0.0643 -0.2237
  162SOPE   H9118154   5.485  -0.429   9.474 -0.3390  0.0149 -0.3677
  162SOPE  C21018155   5.497  -0.277   9.338 -0.4983 -0.5499  0.1514
  162SOPE  H10118156   5.456  -0.341   9.259  2.4211  0.4968 -2.4315
  162SOPE  C21118157   5.510  -0.134   9.292  0.1581  0.4561 -0.5230
  162SOPE  H11R18158   5.542  -0.052   9.361 -1.7236  1.4862 -0.8268
  162SOPE  H11S18159   5.407  -0.108   9.260  0.6412  2.8849 -0.2920
  162SOPE  C21218160   5.604  -0.131   9.171 -0.2301  0.2221 -1.0121
  162SOPE  H12R18161   5.554  -0.201   9.100  0.9141 -1.6174 -0.1008
  162SOPE  H12S18162   5.703  -0.177   9.195 -0.6863 -0.3206 -0.0713
  162SOPE  C21318163   5.605   0.014   9.110  0.2142  0.1462  0.3085
  162SOPE  H13R18164   5.650   0.080   9.187  2.6077 -1.2796  0.1991
  162SOPE  H13S18165   5.497   0.042   9.103  0.3808  0.3597 -2.2832
  162SOPE  C21418166   5.672   0.020   8.973  0.5478 -0.2394 -0.7061
  162SOPE  H14R18167   5.619  -0.055   8.910  0.5103 -0.7632 -0.0664
  162SOPE  H14S18168   5.781   0.001   8.970  0.4201 -1.6326  1.4179
  162SOPE  C21518169   5.641   0.155   8.914  0.2689 -0.5251 -0.7034
  162SOPE  H15R18170   5.710   0.229   8.960  1.2492 -1.0873 -1.2517
  162SOPE  H15S18171   5.537   0.178   8.946 -0.6106 -1.4534 -2.7340
  162SOPE  C21618172   5.665   0.169   8.761  0.6735 -0.1607  0.2111
  162SOPE  H16R18173   5.628   0.079   8.708 -0.7272  0.3575  0.2571
  162SOPE  H16S18174   5.771   0.182   8.732  0.7922 -0.5685  0.4631
  162SOPE  C21718175   5.577   0.284   8.683  0.6271 -0.4545 -0.5539
  162SOPE  H17R18176   5.576   0.280   8.572  1.0025 -0.4816 -0.5547
  162SOPE  H17S18177   5.622   0.382   8.711  0.7988 -1.3463  2.5805
  162SOPE  C21818178   5.429   0.294   8.723  0.5971 -0.1988 -0.8154
  162SOPE  H18R18179   5.376   0.383   8.683  1.8325  1.0049  0.1441
  162SOPE  H18S18180   5.423   0.321   8.830  0.5671  1.1726 -1.1479
  162SOPE  H18T18181   5.371   0.200   8.711 -1.1609  0.8282 -0.6377
  162SOPE   C3318182   5.948  -0.129  10.040 -0.4324 -0.2939 -0.1192
  162SOPE   H3X18183   5.841  -0.157  10.047 -0.1484 -1.0399  1.8157
  162SOPE   H3Y18184   5.996  -0.220  10.081 -1.4720 -1.8567 -2.1850
  162SOPE   C3418185   5.992  -0.108   9.896  0.2068  0.7080 -0.2516
  162SOPE   H4X18186   5.968  -0.201   9.840 -3.9032  1.2563  0.2962
  162SOPE   H4Y18187   6.103  -0.098   9.905  0.4763 -2.2668  1.3107
  162SOPE   C3518188   5.935   0.019   9.824 -0.1342  0.7243 -0.1270
  162SOPE   H5X18189   5.961   0.114   9.875 -0.1356  1.5326 -1.5834
  162SOPE   H5Y18190   5.825   0.009   9.836  0.1479 -0.5284  1.8815
  162SOPE   C3618191   5.958   0.034   9.671  0.1323  0.3853  0.5203
  162SOPE   H6X18192   5.901  -0.050   9.625 -0.2219 -0.5177  2.5158
  162SOPE   H6Y18193   6.067   0.025   9.652 -0.4213 -3.3036 -1.8949
  162SOPE   C3718194   5.897   0.168   9.623 -0.7094 -0.5587 -0.1514
  162SOPE   H7X18195   5.957   0.240   9.682 -1.6971 -0.7709  1.1680
  162SOPE   H7Y18196   5.793   0.180   9.661 -0.7811 -2.9118  0.5462
  162SOPE   C3818197   5.902   0.199   9.470 -0.0644 -0.6092  0.5752
  162SOPE   H8X18198   5.834   0.284   9.448 -0.3559 -0.1016  3.1039
  162SOPE   H8Y18199   5.881   0.121   9.394  0.3824  1.5578 -1.9288
  162SOPE   C3918200   6.040   0.252   9.421  0.0129  0.1126 -0.1624
  162SOPE   H9X18201   6.102   0.161   9.428 -2.0612 -1.2789  0.9733
  162SOPE   H9Y18202   6.074   0.324   9.499  0.1949 -1.2335  1.0312
  162SOPE  C31018203   6.050   0.320   9.282 -0.2651 -0.1811  0.1273
  162SOPE  H10X18204   6.149   0.369   9.275 -0.0031 -0.7623 -0.3356
  162SOPE  H10Y18205   5.964   0.388   9.300 -1.4664 -1.9065  1.2680
  162SOPE  C31118206   6.031   0.232   9.160 -0.2770 -0.5454 -0.0578
  162SOPE  H11X18207   5.934   0.180   9.146 -0.5244  0.3666 -2.1138
  162SOPE  H11Y18208   6.115   0.160   9.165 -0.6793 -0.9479  3.4154
  162SOPE  C31218209   6.018   0.317   9.034  0.3500 -0.1872  0.1401
  162SOPE  H12X18210   6.099   0.390   9.016 -0.3943  0.0687 -2.6864
  162SOPE  H12Y18211   5.922   0.371   9.044 -0.8871 -1.6959 -2.3900
  162SOPE  C31318212   6.022   0.224   8.910 -0.0632 -0.2874  0.4776
  162SOPE  H13X18213   5.936   0.154   8.918  0.8792 -1.3105  2.5613
  162SOPE  H13Y18214   6.117   0.170   8.929  0.9843  2.1802  2.8655
  162SOPE  C31418215   6.033   0.310   8.781  0.0812 -0.5363 -0.4370
  162SOPE  H14X18216   6.038   0.247   8.690  0.4751  1.8360 -2.1424
  162SOPE  H14Y18217   6.129   0.367   8.785  0.0708 -0.3320 -2.2624
  162SOPE  C31518218   5.931   0.423   8.764  0.1973 -0.0681  0.0033
  162SOPE  H15X18219   5.926   0.480   8.860 -1.6434 -1.3457  0.7369
  162SOPE  H15Y18220   5.836   0.373   8.736 -0.3991  1.5331 -1.0006
  162SOPE  C31618221   5.966   0.522   8.653  0.0997 -0.3857 -0.2672
  162SOPE  H16X18222   6.006   0.474   8.562  0.5219  0.0782 -0.3362
  162SOPE  H16Y18223   6.055   0.581   8.687  0.2596 -0.7466 -0.0541
  162SOPE  C31718224   5.857   0.619   8.604 -0.1615  0.3069 -0.6423
  162SOPE  H17X18225   5.762   0.571   8.573 -1.1361  1.4419  0.4610
  162SOPE  H17Y18226   5.899   0.675   8.517  1.6856  0.6728  0.4340
  162SOPE  C31818227   5.814   0.714   8.722  0.6065 -0.1786 -0.8531
  162SOPE  H18X18228   5.747   0.794   8.683 -0.0770 -0.7515 -0.8628
  162SOPE  H18Y18229   5.903   0.762   8.769 -0.6181  0.4265  0.9472
  162SOPE  H18Z18230   5.772   0.654   8.805 -1.1911  2.3418  0.1829
  163SOPE     N18231   0.645   4.315  10.596  0.9489 -0.2358  0.4119
  163SOPE   HN118232   0.731   4.352  10.643 -0.1234  0.1270  2.1777
  163SOPE   HN218233   0.575   4.385  10.626  0.6108  0.3238 -1.5483
  163SOPE   HN318234   0.624   4.215  10.618 -0.6060 -0.1064 -0.3627
  163SOPE   C1218235   0.675   4.334  10.449  0.0270  0.5367  0.5579
  163SOPE  H12A18236   0.602   4.270  10.396  1.5407  0.9656 -2.2278
  163SOPE  H12B18237   0.775   4.286  10.440  0.7605  2.1876 -0.5917
  163SOPE   C1118238   0.674   4.483  10.416  0.6591  0.5036 -0.0841
  163SOPE  H11A18239   0.705   4.506  10.312  2.5863 -0.0074  0.3488
  163SOPE  H11B18240   0.738   4.542  10.485 -1.9160  1.1113  1.9856
  163SOPE     P18241   0.461   4.597  10.536 -0.0226  0.4355 -0.4943
  163SOPE   O1318242   0.516   4.732  10.551  0.3119 -0.3752  0.4467
  163SOPE   O1418243   0.469   4.494  10.649 -0.5023 -1.0893 -0.0877
  163SOPE   O1218244   0.542   4.527  10.422 -0.1590  0.1464 -0.1521
  163SOPE   O1118245   0.308   4.605  10.479  0.0926  0.4474 -0.0875
  163SOPE    C118246   0.279   4.512  10.378 -0.7081  0.9979 -0.4220
  163SOPE    HA18247   0.171   4.489  10.389 -0.5397 -2.6568 -3.8644
  163SOPE    HB18248   0.325   4.412  10.394 -1.5790  0.3767 -1.6198
  163SOPE    C218249   0.317   4.563  10.235 -0.2272  0.0161  0.0071
  163SOPE    HS18250   0.428   4.560  10.225  0.0805 -0.5323  2.7268
  163SOPE   O2118251   0.272   4.697  10.222 -0.1535  0.5592  0.4193
  163SOPE   C2118252   0.369   4.784  10.195 -0.2928  0.1532  0.6785
  163SOPE   O2218253   0.478   4.766  10.164 -0.7134 -0.6682 -0.2519
  163SOPE   C2218254   0.303   4.925  10.183 -0.1207 -0.1487 -0.0799
  163SOPE   H2R18255   0.264   4.945  10.285 -0.5589  0.7075 -0.4072
  163SOPE   H2S18256   0.220   4.920  10.110 -0.6090  1.9904  0.2802
  163SOPE    C318257   0.260   4.465  10.123  0.4555 -0.1088  0.2150
  163SOPE    HX18258   0.153   4.494  10.119  0.7488  1.4572  2.0618
  163SOPE    HY18259   0.265   4.359  10.156 -2.0138 -0.1551  0.6787
  163SOPE   O3118260   0.324   4.488   9.992  0.2461 -0.1082 -0.5993
  163SOPE   C3118261   0.243   4.450   9.893  0.1313 -0.0325 -0.3747
  163SOPE   O3218262   0.125   4.419   9.906 -0.0110  0.0620  0.1563
  163SOPE   C3218263   0.328   4.439   9.766 -0.4737  0.0266  0.2102
  163SOPE   H2X18264   0.392   4.348   9.770  0.7076  0.7687 -0.8831
  163SOPE   H2Y18265   0.398   4.525   9.763 -0.4331  0.1381  2.5496
  163SOPE   C2318266   0.399   5.042  10.143 -0.7312  0.5454 -0.3277
  163SOPE   H3R18267   0.472   5.050  10.226  1.3585  3.3059 -2.2161
  163SOPE   H3S18268   0.339   5.135  10.148 -0.8913  0.3823  1.2232
  163SOPE   C2418269   0.470   5.010  10.011  0.0119 -0.5789 -0.2108
  163SOPE   H4R18270   0.524   5.099   9.973 -2.2282  0.6417 -0.7312
  163SOPE   H4S18271   0.549   4.933  10.029  1.8569  1.3213  0.2040
  163SOPE   C2518272   0.376   4.953   9.906  0.2490  0.3641  0.3746
  163SOPE   H5R18273   0.349   4.850   9.937 -0.3173 -0.0151 -1.2857
  163SOPE   H5S18274   0.277   5.005   9.908 -0.6814 -1.3485  0.4913
  163SOPE   C2618275   0.442   4.946   9.772 -0.4416 -0.4376 -0.4396
  163SOPE   H6R18276   0.465   5.051   9.743  0.6411  0.0154  1.8557
  163SOPE   H6S18277   0.540   4.893   9.775 -0.5518 -0.6504 -0.5521
  163SOPE   C2718278   0.347   4.875   9.678  0.5650 -0.1616 -0.7911
  163SOPE   H7R18279   0.305   4.785   9.728 -0.0046  0.9977  0.9009
  163SOPE   H7S18280   0.261   4.943   9.663 -1.8585 -2.7697  0.3210
  163SOPE   C2818281   0.405   4.835   9.546  0.1639  0.3493 -0.2453
  163SOPE   H8R18282   0.509   4.796   9.549  0.4543  1.0856  2.4805
  163SOPE   H8S18283   0.342   4.760   9.496  1.9315  0.1473 -2.3350
  163SOPE   C2918284   0.428   4.946   9.455 -0.3932  0.0239  0.8828
  163SOPE   H9118285   0.463   5.036   9.508 -2.1642 -0.1426  2.4481
  163SOPE  C21018286   0.402   4.959   9.320  0.6256 -0.6484 -1.1526
  163SOPE  H10118287   0.421   5.052   9.264 -1.8345 -0.2983 -1.5107
  163SOPE  C21118288   0.333   4.864   9.220 -0.7454 -0.4236 -0.2170
  163SOPE  H11R18289   0.226   4.857   9.250 -0.9878  2.4121 -0.0908
  163SOPE  H11S18290   0.372   4.760   9.216 -0.6616 -0.3608 -2.3312
  163SOPE  C21218291   0.326   4.939   9.088  0.2872 -0.1632  0.2634
  163SOPE  H12R18292   0.425   4.966   9.047 -0.3478 -0.3486 -1.4531
  163SOPE  H12S18293   0.265   5.031   9.105  0.2666 -0.0119 -0.6021
  163SOPE  C21318294   0.257   4.857   8.979 -0.0507 -0.0806  0.0586
  163SOPE  H13R18295   0.162   4.816   9.019  0.3732 -2.8086 -1.4738
  163SOPE  H13S18296   0.326   4.773   8.957  1.8695  1.5572 -0.5186
  163SOPE  C21418297   0.220   4.933   8.856 -0.6991  0.2030  0.1347
  163SOPE  H14R18298   0.300   4.999   8.816  0.2089 -3.6746 -5.7063
  163SOPE  H14S18299   0.123   4.988   8.854 -1.1004 -0.4971 -0.8098
  163SOPE  C21518300   0.223   4.839   8.737  0.0044 -0.4682  0.1550
  163SOPE  H15R18301   0.143   4.766   8.761 -0.0772 -0.8547 -1.1933
  163SOPE  H15S18302   0.317   4.780   8.725 -0.6043 -1.2169 -1.1147
  163SOPE  C21618303   0.184   4.910   8.601 -0.0723  0.0447  0.7651
  163SOPE  H16R18304   0.092   4.970   8.618 -1.0405 -1.1334 -0.1035
  163SOPE  H16S18305   0.142   4.833   8.533 -3.0069  1.4411  0.8421
  163SOPE  C21718306   0.290   4.989   8.531  0.1980  0.6672  0.1653
  163SOPE  H17R18307   0.378   4.921   8.525 -0.8183 -0.7563  0.7458
  163SOPE  H17S18308   0.329   5.074   8.590 -1.9585  0.2307  2.3863
  163SOPE  C21818309   0.247   5.043   8.397  0.0989 -0.3553 -0.9487
  163SOPE  H18R18310   0.240   4.958   8.325 -2.2401 -1.4978  0.5256
  163SOPE  H18S18311   0.317   5.116   8.351  1.3316  0.1000  1.4880
  163SOPE  H18T18312   0.146   5.087   8.404  0.4521  0.5699 -1.5343
  163SOPE   C3318313   0.243   4.436   9.645  0.3878  0.7563  0.3425
  163SOPE   H3X18314   0.164   4.513   9.659 -1.5404 -0.5692 -2.1865
  163SOPE   H3Y18315   0.205   4.332   9.638  3.2885 -0.3307 -0.7551
  163SOPE   C3418316   0.308   4.466   9.511  0.1162  0.6818 -0.4198
  163SOPE   H4X18317   0.358   4.369   9.489  3.0148  1.3041  2.6177
  163SOPE   H4Y18318   0.381   4.550   9.513  0.8678  0.0308  0.1829
  163SOPE   C3518319   0.193   4.502   9.408 -0.1599  0.5062 -0.2938
  163SOPE   H5X18320   0.157   4.604   9.432 -0.9735 -0.3177  2.3344
  163SOPE   H5Y18321   0.108   4.437   9.437  0.6194 -0.7493 -0.7205
  163SOPE   C3618322   0.230   4.480   9.261  0.7300  1.2120 -0.3897
  163SOPE   H6X18323   0.243   4.370   9.258 -1.6243  0.6012  3.8913
  163SOPE   H6Y18324   0.328   4.528   9.240  1.4304  0.9802  1.9918
  163SOPE   C3718325   0.133   4.534   9.151 -0.1658 -0.1805  0.2217
  163SOPE   H7X18326   0.141   4.644   9.141 -0.0517 -0.0578  1.4784
  163SOPE   H7Y18327   0.031   4.499   9.176 -0.1002 -0.7023 -0.2196
  163SOPE   C3818328   0.174   4.496   9.008 -0.5075  0.2204  1.0370
  163SOPE   H8X18329   0.260   4.562   8.984  2.0078 -2.7851  1.1456
  163SOPE   H8Y18330   0.089   4.536   8.949 -0.7543 -2.1591 -0.3402
  163SOPE   C3918331   0.201   4.346   8.990 -0.6415 -0.3000 -0.4408
  163SOPE   H9X18332   0.116   4.290   9.033  0.1679 -1.5634 -0.4160
  163SOPE   H9Y18333   0.292   4.320   9.050  1.9687  0.8640 -3.5866
  163SOPE  C31018334   0.247   4.320   8.848  0.1579  0.4624  1.4420
  163SOPE  H10X18335   0.313   4.231   8.842  0.3066  0.6467 -0.0906
  163SOPE  H10Y18336   0.314   4.406   8.829 -1.1322  1.5903  1.8383
  163SOPE  C31118337   0.131   4.309   8.742 -0.7657 -0.5421  0.4373
  163SOPE  H11X18338   0.064   4.394   8.767  1.2943  1.0678  0.7867
  163SOPE  H11Y18339   0.067   4.220   8.758 -0.5210 -0.2510  3.6760
  163SOPE  C31218340   0.177   4.310   8.594  0.3318  0.1125  0.1561
  163SOPE  H12X18341   0.204   4.206   8.563  0.9031  0.2628  0.1378
  163SOPE  H12Y18342   0.277   4.358   8.585  0.3562  0.1024  0.3716
  163SOPE  C31318343   0.076   4.370   8.495 -0.6396 -0.1941 -0.7624
  163SOPE  H13X18344   0.126   4.381   8.397 -0.9935  0.8442 -0.8410
  163SOPE  H13Y18345   0.051   4.467   8.542 -1.4506 -0.9753  0.5160
  163SOPE  C31418346  -0.056   4.303   8.473  0.1887  0.2711 -0.0700
  163SOPE  H14X18347  -0.123   4.326   8.559  1.2821  2.3963  0.2773
  163SOPE  H14Y18348  -0.049   4.192   8.467 -0.1189  0.1051  1.8236
  163SOPE  C31518349  -0.134   4.337   8.343  0.6684  0.2677 -0.6967
  163SOPE  H15X18350  -0.233   4.288   8.353  0.9293 -0.3838 -1.2370
  163SOPE  H15Y18351  -0.084   4.277   8.264  1.1943 -0.7996  0.4330
  163SOPE  C31618352  -0.135   4.482   8.300  0.1277 -0.1641 -0.5991
  163SOPE  H16X18353  -0.033   4.525   8.291  0.1091  0.2047  0.7115
  163SOPE  H16Y18354  -0.192   4.536   8.379 -1.1169  0.4077 -1.8412
  163SOPE  C31718355  -0.202   4.502   8.162 -0.3998 -0.2615  0.9981
  163SOPE  H17X18356  -0.143   4.439   8.092 -1.3456 -1.8417  1.5536
  163SOPE  H17Y18357  -0.194   4.603   8.118  2.4184 -1.0177 -0.4713
  163SOPE  C31818358  -0.353   4.472   8.160  0.5857  0.6148  0.3607
  163SOPE  H18X18359  -0.372   4.362   8.156 -4.7466  1.2387  1.2795
  163SOPE  H18Y18360  -0.397   4.512   8.066  1.5350 -2.5882 -1.6192
  163SOPE  H18Z18361  -0.417   4.523   8.235  0.4492  2.3379 -0.8609
  164SOPE     N18362   3.284   2.384  10.909  0.0134 -0.1725  0.2445
  164SOPE   HN118363   3.346   2.433  10.977  0.6408 -0.7711  0.1077
  164SOPE   HN218364   3.324   2.291  10.886  0.5778 -0.2563  1.5011
  164SOPE   HN318365   3.267   2.432  10.818 -1.7622 -0.9474  0.1336
  164SOPE   C1218366   3.150   2.384  10.961  0.4791  0.6050  0.6077
  164SOPE  H12A18367   3.109   2.487  10.961 -0.9004  0.2648  5.3638
  164SOPE  H12B18368   3.150   2.344  11.064 -4.1523 -1.1837  0.1720
  164SOPE   C1118369   3.057   2.292  10.878 -0.1391  0.4914  0.2599
  164SOPE  H11A18370   2.961   2.271  10.930 -0.8608  1.5765 -0.5834
  164SOPE  H11B18371   3.100   2.192  10.857 -0.7412 -0.1366  1.8717
  164SOPE     P18372   2.891   2.376  10.678  0.3408 -0.7020 -0.2110
  164SOPE   O1318373   2.831   2.506  10.700  0.1005  0.0086  0.1056
  164SOPE   O1418374   2.801   2.260  10.705 -0.3267 -0.0597  0.0510
  164SOPE   O1218375   3.027   2.359  10.757  0.4432  0.5185  0.2632
  164SOPE   O1118376   2.926   2.372  10.523 -0.3743 -0.6805  0.1983
  164SOPE    C118377   3.056   2.389  10.478  0.3512  0.2175  0.3458
  164SOPE    HA18378   3.119   2.308  10.520 -0.3263 -1.6588 -2.0437
  164SOPE    HB18379   3.096   2.485  10.519 -1.3822  1.3218 -0.4344
  164SOPE    C218380   3.064   2.409  10.315  0.6455  0.2904 -0.7769
  164SOPE    HS18381   3.170   2.436  10.295  0.4316  2.8483  1.0553
  164SOPE   O2118382   2.984   2.515  10.259 -0.0157  0.2845  0.5014
  164SOPE   C2118383   3.032   2.637  10.292 -0.2668 -0.3062  0.0364
  164SOPE   O2218384   3.138   2.663  10.346 -0.3441  0.3508  0.0385
  164SOPE   C2218385   2.920   2.738  10.271  0.2972  0.3226 -0.2887
  164SOPE   H2R18386   2.861   2.738  10.365  1.5260  0.0412  0.5079
  164SOPE   H2S18387   2.864   2.719  10.177 -0.2539  2.6129 -0.4803
  164SOPE    C318388   3.017   2.277  10.251  0.5657 -0.2615  0.3375
  164SOPE    HX18389   2.923   2.241  10.297 -0.2702  0.0545 -1.0480
  164SOPE    HY18390   3.088   2.193  10.266  0.3122 -0.6795 -0.6763
  164SOPE   O3118391   2.996   2.286  10.108  0.0533 -0.4009 -0.6582
  164SOPE   C3118392   2.873   2.278  10.057  0.1101  1.0349  0.3777
  164SOPE   O3218393   2.769   2.275  10.121 -0.4091  0.0403 -0.2309
  164SOPE   C3218394   2.880   2.252   9.901 -0.4325 -0.2103  0.2720
  164SOPE   H2X18395   2.935   2.157   9.883  0.4776  0.8061 -2.8658
  164SOPE   H2Y18396   2.934   2.339   9.860 -0.8382 -0.7422 -1.4588
  164SOPE   C2318397   2.970   2.885  10.272  0.3723  0.5314 -0.0312
  164SOPE   H3R18398   3.059   2.901  10.337 -0.0894  1.8072  0.3060
  164SOPE   H3S18399   2.890   2.950  10.314 -1.0792 -1.2537  0.0998
  164SOPE   C2418400   3.013   2.941  10.129 -0.3789  0.4908  0.5557
  164SOPE   H4R18401   3.093   3.018  10.140  0.6357 -0.7519  2.5709
  164SOPE   H4S18402   3.069   2.859  10.081 -0.8586 -1.0681  2.5131
  164SOPE   C2518403   2.901   2.986  10.036  0.3836 -0.3546  0.8524
  164SOPE   H5R18404   2.815   2.916  10.029  0.8029 -0.6998 -1.8763
  164SOPE   H5S18405   2.864   3.077  10.087  0.2859 -0.3574  0.7870
  164SOPE   C2618406   2.945   3.024   9.894 -0.0745  0.4869 -1.0659
  164SOPE   H6R18407   2.860   3.083   9.854 -0.9693  1.7857  2.3667
  164SOPE   H6S18408   3.042   3.075   9.912 -0.7789  0.7814  2.7794
  164SOPE   C2718409   2.970   2.901   9.803  0.3308 -0.2952  0.0266
  164SOPE   H7R18410   3.067   2.853   9.828 -1.8041 -3.5469  2.9545
  164SOPE   H7S18411   2.893   2.829   9.836 -0.4283  1.4470  2.3677
  164SOPE   C2818412   2.960   2.945   9.656 -0.4166  0.3635  0.7726
  164SOPE   H8R18413   3.016   3.039   9.633  0.2032 -0.5858 -1.9642
  164SOPE   H8S18414   3.018   2.863   9.611  1.6552  0.6349  2.7666
  164SOPE   C2918415   2.821   2.959   9.600  0.2698 -0.1239  0.0150
  164SOPE   H9118416   2.741   2.915   9.663  0.8506  0.0757  0.9064
  164SOPE  C21018417   2.785   3.018   9.492 -0.4145 -0.5679  0.2989
  164SOPE  H10118418   2.682   3.010   9.453 -0.5080  2.3314 -0.2981
  164SOPE  C21118419   2.884   3.077   9.387  0.2192  0.6259 -0.1452
  164SOPE  H11R18420   2.990   3.070   9.420  0.2296  1.2648 -0.0337
  164SOPE  H11S18421   2.876   3.186   9.367  3.9136  1.0702  0.1223
  164SOPE  C21218422   2.863   3.013   9.254 -0.6793  0.0538 -0.6687
  164SOPE  H12R18423   2.917   3.069   9.174 -2.2643  1.9776 -0.4400
  164SOPE  H12S18424   2.755   3.028   9.234 -0.4967  1.0730 -0.9238
  164SOPE  C21318425   2.895   2.859   9.240 -0.6105  0.1104 -0.5052
  164SOPE  H13R18426   2.867   2.798   9.328  4.4594  1.0697  2.1309
  164SOPE  H13S18427   3.004   2.844   9.248 -0.8100 -0.2468  4.0246
  164SOPE  C21418428   2.837   2.791   9.122  0.8635  0.1239 -0.1309
  164SOPE  H14R18429   2.733   2.827   9.109  0.8851 -0.0946 -0.9244
  164SOPE  H14S18430   2.818   2.683   9.143 -0.6187  0.2477 -0.7311
  164SOPE  C21518431   2.916   2.809   8.995  0.0265  0.0966 -0.5563
  164SOPE  H15R18432   3.010   2.749   8.997  0.2857  0.5311  0.8390
  164SOPE  H15S18433   2.943   2.916   8.982  2.2163 -0.1088  1.5533
  164SOPE  C21618434   2.823   2.749   8.885  1.0203  0.6058 -0.0141
  164SOPE  H16R18435   2.718   2.784   8.895  1.2168  1.2575 -0.2529
  164SOPE  H16S18436   2.822   2.640   8.908  2.2863  0.1383 -1.9869
  164SOPE  C21718437   2.860   2.758   8.739 -0.8608 -0.0284 -0.0277
  164SOPE  H17R18438   2.971   2.748   8.740 -0.5933  2.3092  0.6934
  164SOPE  H17S18439   2.825   2.860   8.714  0.4837  0.4498 -0.0355
  164SOPE  C21818440   2.791   2.651   8.661  0.2758  0.1421  0.3378
  164SOPE  H18R18441   2.815   2.673   8.555  0.1231  0.6461  0.4051
  164SOPE  H18S18442   2.683   2.653   8.687  0.8205 -1.0973  3.1297
  164SOPE  H18T18443   2.834   2.551   8.681 -0.0411 -0.2341 -0.8387
  164SOPE   C3318444   2.740   2.246   9.843 -1.0261  0.3105  0.1946
  164SOPE   H3X18445   2.677   2.177   9.903 -2.3175  0.8464 -0.5087
  164SOPE   H3Y18446   2.748   2.209   9.738 -1.0404 -0.3423  0.4252
  164SOPE   C3418447   2.682   2.392   9.825 -0.1463 -0.0348  0.1801
  164SOPE   H4X18448   2.746   2.456   9.890 -1.6761  1.4037  0.3285
  164SOPE   H4Y18449   2.583   2.394   9.875 -0.1294  1.4797  0.2088
  164SOPE   C3518450   2.663   2.443   9.678  0.2764 -0.6397  0.7937
  164SOPE   H5X18451   2.588   2.387   9.618  0.4108  2.5336 -2.7264
  164SOPE   H5Y18452   2.750   2.444   9.610 -0.0110 -3.2915  0.2931
  164SOPE   C3618453   2.620   2.590   9.668  0.1097 -0.7189  0.3908
  164SOPE   H6X18454   2.693   2.657   9.718 -0.9127  1.9214 -1.3763
  164SOPE   H6Y18455   2.517   2.604   9.709 -0.0489  2.0259 -0.6725
  164SOPE   C3718456   2.602   2.638   9.514 -0.5508  0.4218 -0.2433
  164SOPE   H7X18457   2.682   2.587   9.456  2.5258  1.3153  2.8685
  164SOPE   H7Y18458   2.621   2.747   9.509 -2.1955  0.6743 -2.4040
  164SOPE   C3818459   2.455   2.611   9.467 -0.2419 -0.6651 -0.2910
  164SOPE   H8X18460   2.393   2.660   9.546  1.4323  2.2555 -0.6365
  164SOPE   H8Y18461   2.435   2.502   9.461  0.6968 -0.9720  1.4545
  164SOPE   C3918462   2.411   2.679   9.339  0.2067  0.3362  0.3505
  164SOPE   H9X18463   2.425   2.789   9.335  3.6837  0.1188  2.5296
  164SOPE   H9Y18464   2.304   2.658   9.319 -0.3167  2.6169  0.4479
  164SOPE  C31018465   2.494   2.632   9.222  0.4744  0.2007 -0.1500
  164SOPE  H10X18466   2.540   2.533   9.247  0.0426  0.0443  0.0325
  164SOPE  H10Y18467   2.574   2.706   9.202 -0.2349  1.2110  0.6350
  164SOPE  C31118468   2.422   2.615   9.087  0.3818  0.1955  0.2377
  164SOPE  H11X18469   2.380   2.712   9.052 -1.5092 -0.4777  0.5612
  164SOPE  H11Y18470   2.333   2.550   9.102  0.3983 -0.0877 -0.8339
  164SOPE  C31218471   2.510   2.551   8.975  0.2403 -0.0707  0.1459
  164SOPE  H12X18472   2.560   2.455   8.998 -0.6483 -1.4189 -3.1103
  164SOPE  H12Y18473   2.596   2.616   8.951 -0.2724 -0.4488 -3.1559
  164SOPE  C31318474   2.430   2.532   8.843  0.3180  0.3013  0.1482
  164SOPE  H13X18475   2.365   2.443   8.858 -0.6899 -0.0439 -4.6000
  164SOPE  H13Y18476   2.513   2.502   8.775  0.3793  2.3017 -0.7447
  164SOPE  C31418477   2.356   2.654   8.791 -0.1877 -0.3817 -0.3233
  164SOPE  H14X18478   2.433   2.734   8.799 -0.5766  0.2499 -2.2648
  164SOPE  H14Y18479   2.275   2.672   8.865  0.6520 -0.5820  0.6690
  164SOPE  C31518480   2.290   2.651   8.653 -0.0983 -0.4077  0.0853
  164SOPE  H15X18481   2.241   2.552   8.644 -0.1389 -0.4573  0.8575
  164SOPE  H15Y18482   2.369   2.670   8.576 -0.2167 -0.6918 -0.1060
  164SOPE  C31618483   2.168   2.749   8.654 -0.4168  0.3987 -0.5303
  164SOPE  H16X18484   2.202   2.849   8.690 -0.1516  0.2900 -0.4747
  164SOPE  H16Y18485   2.099   2.718   8.735 -0.4347 -0.5797 -0.9083
  164SOPE  C31718486   2.085   2.751   8.522  0.0216 -0.0046 -0.6494
  164SOPE  H17X18487   2.010   2.833   8.527  0.3530  0.3543 -1.4237
  164SOPE  H17Y18488   2.032   2.654   8.511 -0.1144  0.1255 -1.1757
  164SOPE  C31818489   2.163   2.778   8.395  0.3204  0.0826 -0.7200
  164SOPE  H18X18490   2.254   2.714   8.401  2.5974  3.1521 -0.0093
  164SOPE  H18Y18491   2.210   2.878   8.383 -0.6522  0.4626 -1.4456
  164SOPE  H18Z18492   2.105   2.751   8.304 -0.1945  1.7641 -0.9254
  165SOPE     N18493   1.882   4.242  10.665 -0.2650  0.2711  0.3864
  165SOPE   HN118494   1.944   4.316  10.626  1.3349 -1.2312  0.0186
  165SOPE   HN218495   1.793   4.294  10.682 -0.2231 -0.1672  2.0817
  165SOPE   HN318496   1.913   4.214  10.760 -0.6078  2.2561  1.1351
  165SOPE   C1218497   1.879   4.130  10.563  0.1845 -0.0251 -0.0800
  165SOPE  H12A18498   1.830   4.045  10.615 -2.7272 -0.7076 -3.5046
  165SOPE  H12B18499   1.982   4.092  10.548 -0.5688 -2.4849  0.4637
  165SOPE   C1118500   1.804   4.160  10.435 -0.4492  0.7510 -0.8926
  165SOPE  H11A18501   1.798   4.067  10.375 -0.8362 -0.3041  0.7056
  165SOPE  H11B18502   1.868   4.232  10.380  3.4052 -0.7575  1.2231
  165SOPE     P18503   1.550   4.107  10.458  0.2333 -0.0926  0.9093
  165SOPE   O1318504   1.434   4.193  10.480 -0.1122 -0.1318 -0.7693
  165SOPE   O1418505   1.572   3.998  10.557  0.4382 -0.6237  0.0577
  165SOPE   O1218506   1.671   4.211  10.460 -0.8050  0.5561  0.0069
  165SOPE   O1118507   1.534   4.034  10.312  0.0772  0.2336 -0.1421
  165SOPE    C118508   1.523   3.893  10.282  0.7228 -0.1004 -0.2678
  165SOPE    HA18509   1.423   3.866  10.322  0.5363  0.7738 -0.1173
  165SOPE    HB18510   1.602   3.840  10.340 -0.6565  0.8764  2.6825
  165SOPE    C218511   1.535   3.867  10.133 -0.2673  0.0166 -0.2981
  165SOPE    HS18512   1.506   3.761  10.118  3.8874 -1.1807 -0.9649
  165SOPE   O2118513   1.665   3.887  10.073 -0.2501 -0.5191  0.7072
  165SOPE   C2118514   1.691   3.802   9.968  0.5099 -0.3207 -0.1909
  165SOPE   O2218515   1.632   3.704   9.932  0.0944 -0.1926  0.4506
  165SOPE   C2218516   1.822   3.848   9.898 -0.0544  0.0580 -0.7583
  165SOPE   H2R18517   1.904   3.802   9.957  0.5668  0.5644 -1.2002
  165SOPE   H2S18518   1.828   3.959   9.906  0.2600 -0.0376  0.5790
  165SOPE    C318519   1.432   3.960  10.053  0.1602  0.8424  0.2433
  165SOPE    HX18520   1.473   4.063  10.058  0.1958  0.7719  2.0106
  165SOPE    HY18521   1.339   3.949  10.114  1.0150 -3.8100  1.0708
  165SOPE   O3118522   1.418   3.917   9.914 -0.3683  0.1054 -0.5182
  165SOPE   C3118523   1.303   3.959   9.861 -0.3135 -0.0163  0.2753
  165SOPE   O3218524   1.221   4.023   9.918 -0.0235 -0.4037  0.0101
  165SOPE   C3218525   1.308   3.945   9.704  0.3285 -0.4927  0.0613
  165SOPE   H2X18526   1.288   3.839   9.676  0.4469  0.0626 -2.3702
  165SOPE   H2Y18527   1.416   3.950   9.675  0.6163 -3.0673  0.3895
  165SOPE   C2318528   1.829   3.795   9.753  0.2201  0.6807 -0.8525
  165SOPE   H3R18529   1.733   3.831   9.711 -0.4369  1.6236  1.2959
  165SOPE   H3S18530   1.835   3.684   9.743 -1.6765  0.3322  1.0695
  165SOPE   C2418531   1.954   3.846   9.683  0.2067 -0.2694 -0.3556
  165SOPE   H4R18532   1.944   3.956   9.683  0.0541 -0.2687  1.1242
  165SOPE   H4S18533   2.039   3.817   9.749  0.0908 -1.2840 -0.6331
  165SOPE   C2518534   1.982   3.785   9.547 -0.0496 -0.3792 -0.2137
  165SOPE   H5R18535   1.972   3.674   9.551 -0.7033 -0.3688 -1.1405
  165SOPE   H5S18536   1.904   3.819   9.476  0.9181  1.0580 -0.6391
  165SOPE   C2618537   2.116   3.830   9.490 -0.1266 -0.0885 -0.0106
  165SOPE   H6R18538   2.113   3.939   9.473 -0.1134 -0.1883 -0.6872
  165SOPE   H6S18539   2.198   3.812   9.563  0.1923  0.7881 -0.1362
  165SOPE   C2718540   2.150   3.752   9.365  0.4483 -0.0131 -0.0331
  165SOPE   H7R18541   2.135   3.645   9.391 -3.0953  0.3872 -0.0613
  165SOPE   H7S18542   2.062   3.771   9.301 -1.7136 -2.2309  2.0988
  165SOPE   C2818543   2.283   3.790   9.307  0.5303 -0.0067 -0.0213
  165SOPE   H8R18544   2.363   3.742   9.369  0.1237  0.5854  0.9799
  165SOPE   H8S18545   2.287   3.756   9.202  0.5721  1.7537 -0.6167
  165SOPE   C2918546   2.315   3.938   9.280  0.4570 -0.6562 -0.4069
  165SOPE   H9118547   2.340   3.987   9.375 -0.3288 -1.6156  0.3245
  165SOPE  C21018548   2.338   4.005   9.164 -0.4013 -0.2852  0.5848
  165SOPE  H10118549   2.364   4.112   9.166  1.7544 -0.7370 -0.1633
  165SOPE  C21118550   2.325   3.945   9.022 -0.0550 -0.3088 -0.9948
  165SOPE  H11R18551   2.270   4.020   8.961  0.5006  0.3311 -0.7226
  165SOPE  H11S18552   2.259   3.855   9.021  1.4068 -1.4538  0.4600
  165SOPE  C21218553   2.465   3.927   8.961  1.0371 -0.0686  0.0110
  165SOPE  H12R18554   2.525   3.865   9.031  2.6840  0.1470 -1.1474
  165SOPE  H12S18555   2.517   4.023   8.944  3.5261 -0.8052  2.6104
  165SOPE  C21318556   2.464   3.852   8.824 -0.4334  0.2516  0.3805
  165SOPE  H13R18557   2.571   3.838   8.797 -0.6845  0.1637 -0.6119
  165SOPE  H13S18558   2.419   3.922   8.750 -1.5016  1.0041  1.6805
  165SOPE  C21418559   2.383   3.719   8.815 -0.7416 -0.5448 -0.9307
  165SOPE  H14R18560   2.276   3.745   8.812 -0.1528  2.1934 -0.6358
  165SOPE  H14S18561   2.408   3.662   8.907 -0.1088 -0.3010 -0.9463
  165SOPE  C21518562   2.417   3.641   8.690 -0.6127  0.3024 -0.9679
  165SOPE  H15R18563   2.522   3.608   8.703 -0.7732  0.3163  0.5428
  165SOPE  H15S18564   2.414   3.707   8.600  1.0596  0.4993 -0.9176
  165SOPE  C21618565   2.314   3.532   8.670  0.0547 -0.3994 -0.1034
  165SOPE  H16R18566   2.311   3.490   8.567 -3.3622 -0.1156 -0.2369
  165SOPE  H16S18567   2.221   3.592   8.684  0.5924  0.3899  0.1483
  165SOPE  C21718568   2.318   3.422   8.765  0.0561  0.8864 -0.4820
  165SOPE  H17R18569   2.330   3.458   8.870 -0.8896  0.4571 -0.2253
  165SOPE  H17S18570   2.413   3.370   8.739  1.0586  3.0608 -1.4932
  165SOPE  C21818571   2.197   3.323   8.762  0.1847 -0.2859  0.2224
  165SOPE  H18R18572   2.210   3.250   8.679 -0.3499  2.6646 -2.6774
  165SOPE  H18S18573   2.110   3.387   8.736  0.2411 -0.9977 -1.9255
  165SOPE  H18T18574   2.173   3.271   8.857  2.6845  0.7085  1.4960
  165SOPE   C3318575   1.220   4.037   9.620 -0.3001  0.1161  0.2067
  165SOPE   H3X18576   1.114   4.019   9.651 -0.2991  0.1878  0.2522
  165SOPE   H3Y18577   1.219   4.003   9.514  0.2073  0.4148  0.1032
  165SOPE   C3418578   1.242   4.187   9.641  0.2017  0.7112 -0.2476
  165SOPE   H4X18579   1.350   4.202   9.617  0.8791 -2.1805  0.6921
  165SOPE   H4Y18580   1.218   4.204   9.748 -1.1004 -0.0010 -0.4091
  165SOPE   C3518581   1.165   4.278   9.545 -0.4301  0.2769 -0.2568
  165SOPE   H5X18582   1.159   4.384   9.577 -0.0352  0.4737 -0.8119
  165SOPE   H5Y18583   1.061   4.238   9.546  0.1950 -1.4109  1.2235
  165SOPE   C3618584   1.215   4.282   9.400  0.1551 -0.9096  0.0880
  165SOPE   H6X18585   1.205   4.185   9.348 -0.6208 -1.1052  0.5870
  165SOPE   H6Y18586   1.325   4.297   9.402 -0.1223  1.5198  0.7634
  165SOPE   C3718587   1.161   4.388   9.307  0.7099  0.0822 -0.1278
  165SOPE   H7X18588   1.185   4.486   9.354  1.7043 -1.3765  2.6073
  165SOPE   H7Y18589   1.050   4.379   9.301  0.6308  0.7213  0.2758
  165SOPE   C3818590   1.206   4.378   9.166  0.1983 -0.4559  0.7543
  165SOPE   H8X18591   1.141   4.297   9.128  0.0048 -1.2076  2.6126
  165SOPE   H8Y18592   1.313   4.351   9.158 -0.3742 -2.2869 -3.4811
  165SOPE   C3918593   1.170   4.502   9.088  0.3987  0.1311  0.1882
  165SOPE   H9X18594   1.219   4.591   9.132 -0.6463  0.4074  0.8204
  165SOPE   H9Y18595   1.060   4.514   9.093  0.5975  1.4975  2.2825
  165SOPE  C31018596   1.209   4.511   8.941  0.0218 -0.3676  0.2273
  165SOPE  H10X18597   1.170   4.421   8.889  0.3518 -0.1355 -0.4361
  165SOPE  H10Y18598   1.320   4.508   8.942  0.0353 -3.5786  1.3900
  165SOPE  C31118599   1.148   4.637   8.877 -0.2546 -0.4851 -0.2057
  165SOPE  H11X18600   1.177   4.728   8.935  1.7994  0.7429 -2.9006
  165SOPE  H11Y18601   1.039   4.621   8.891  0.1758 -0.9660  3.5579
  165SOPE  C31218602   1.207   4.663   8.737 -0.1002  0.3046  0.2447
  165SOPE  H12X18603   1.160   4.581   8.678 -1.8102  1.1372  0.3791
  165SOPE  H12Y18604   1.315   4.645   8.753  0.2247  1.8072 -0.1085
  165SOPE  C31318605   1.184   4.807   8.688 -0.0076 -0.8845 -0.1698
  165SOPE  H13X18606   1.219   4.810   8.582  3.9290 -2.5354  0.8931
  165SOPE  H13Y18607   1.238   4.880   8.752 -0.4888  0.2496 -1.0306
  165SOPE  C31418608   1.031   4.858   8.691 -0.7960  0.7044 -0.1961
  165SOPE  H14X18609   1.021   4.965   8.665 -0.0428  1.6977  3.1944
  165SOPE  H14Y18610   0.991   4.851   8.794 -1.6300  0.3996 -0.5353
  165SOPE  C31518611   0.948   4.773   8.597 -0.7556 -0.1252 -0.3030
  165SOPE  H15X18612   0.932   4.676   8.647  2.2525  0.2233  1.5448
  165SOPE  H15Y18613   1.007   4.747   8.507 -0.9067 -1.2900 -0.0729
  165SOPE  C31618614   0.816   4.835   8.556 -0.1457 -0.1839 -0.3279
  165SOPE  H16X18615   0.766   4.867   8.650 -0.6340 -0.6151 -0.4401
  165SOPE  H16Y18616   0.753   4.756   8.509  1.5521 -1.7706 -0.0699
  165SOPE  C31718617   0.836   4.949   8.456 -0.0936  0.3783  0.1680
  165SOPE  H17X18618   0.879   4.904   8.364 -0.8593  0.0670 -0.0406
  165SOPE  H17Y18619   0.911   5.019   8.500  0.9597 -0.7928  0.2988
  165SOPE  C31818620   0.704   5.024   8.430 -0.0491 -0.1663  0.6654
  165SOPE  H18X18621   0.626   4.946   8.443 -0.7355  0.2818 -0.5773
  165SOPE  H18Y18622   0.697   5.059   8.325 -2.0861  0.5793  1.0047
  165SOPE  H18Z18623   0.684   5.105   8.503  0.4945  1.9444 -1.4089
  166SOPE     N18624   5.117   3.606  10.912  0.3660  0.0279  0.0078
  166SOPE   HN118625   5.132   3.688  10.975 -0.6446 -1.0395  1.7050
  166SOPE   HN218626   5.195   3.596  10.844  1.5593  0.2064  1.3034
  166SOPE   HN318627   5.027   3.617  10.860 -1.3993  0.1210  2.8505
  166SOPE   C1218628   5.110   3.474  10.996 -0.4191 -0.4377 -0.6092
  166SOPE  H12A18629   5.016   3.462  11.055 -0.1495 -0.3806 -0.1674
  166SOPE  H12B18630   5.195   3.499  11.063 -1.0727 -0.6444  0.3287
  166SOPE   C1118631   5.145   3.370  10.899 -0.4097  0.2054 -0.4365
  166SOPE  H11A18632   5.156   3.271  10.948 -1.4636 -0.6482 -1.8678
  166SOPE  H11B18633   5.248   3.392  10.862  0.3096 -0.5292  1.0326
  166SOPE     P18634   5.026   3.237  10.710 -0.0969  0.2174 -0.1112
  166SOPE   O1318635   4.915   3.261  10.610 -0.5470 -0.0478  0.3209
  166SOPE   O1418636   5.005   3.128  10.809 -0.0346 -0.4216 -0.1806
  166SOPE   O1218637   5.054   3.370  10.796 -0.3949 -0.2288  0.4715
  166SOPE   O1118638   5.167   3.214  10.650  0.3330 -0.2800 -0.4684
  166SOPE    C118639   5.197   3.123  10.545  0.0299 -0.4128  0.3890
  166SOPE    HA18640   5.135   3.031  10.542  1.5815 -1.4855 -0.4585
  166SOPE    HB18641   5.303   3.091  10.554  0.9106  1.4882 -2.0791
  166SOPE    C218642   5.182   3.207  10.414  0.3369 -0.4609  0.4391
  166SOPE    HS18643   5.075   3.232  10.401  0.2811 -1.8222 -2.7452
  166SOPE   O2118644   5.227   3.131  10.295  0.0306  0.0737 -0.5983
  166SOPE   C2118645   5.141   3.038  10.254 -0.4281  0.2282  0.3145
  166SOPE   O2218646   5.032   3.018  10.305 -0.6763 -0.9712  0.1308
  166SOPE   C2218647   5.192   2.992  10.113  0.1131 -0.4587 -0.3699
  166SOPE   H2R18648   5.149   2.895  10.081  2.2524 -1.2549 -1.0025
  166SOPE   H2S18649   5.300   2.970  10.127  0.1511  0.2591  0.5526
  166SOPE    C318650   5.269   3.344  10.424  0.1445 -0.0594 -0.2314
  166SOPE    HX18651   5.374   3.317  10.444  0.4524  0.8667 -0.5452
  166SOPE    HY18652   5.233   3.397  10.515  1.3466  1.5797 -0.6749
  166SOPE   O3118653   5.250   3.414  10.304 -0.2289  0.2295  0.6898
  166SOPE   C3118654   5.148   3.493  10.299  0.1013  0.4265 -0.6310
  166SOPE   O3218655   5.080   3.533  10.394 -0.0900 -0.0693 -0.2612
  166SOPE   C3218656   5.124   3.519  10.151 -0.6912  0.3803 -0.5072
  166SOPE   H2X18657   5.013   3.533  10.150 -0.7460  0.1744  0.7296
  166SOPE   H2Y18658   5.160   3.422  10.111  4.3845  1.7646  0.0474
  166SOPE   C2318659   5.174   3.093  10.002  0.9608 -0.2372 -0.3179
  166SOPE   H3R18660   5.174   3.198  10.038 -0.7577  0.1749 -1.3680
  166SOPE   H3S18661   5.074   3.069   9.959  1.0933  0.3214 -0.9508
  166SOPE   C2418662   5.279   3.076   9.892  0.3744  0.0056 -0.3549
  166SOPE   H4R18663   5.366   3.137   9.925  0.2591  1.0426 -1.8609
  166SOPE   H4S18664   5.309   2.971   9.872  0.3507 -0.1794  0.5748
  166SOPE   C2518665   5.228   3.143   9.769  0.3301 -0.1006 -0.3546
  166SOPE   H5R18666   5.125   3.110   9.743  0.1816 -0.5838  0.8013
  166SOPE   H5S18667   5.217   3.253   9.782 -1.6487 -0.1048 -1.5292
  166SOPE   C2618668   5.326   3.126   9.644 -0.7157  0.2196  0.2419
  166SOPE   H6R18669   5.419   3.180   9.672 -1.1295  0.7314  0.6679
  166SOPE   H6S18670   5.343   3.017   9.637  0.1670  0.4216 -1.0677
  166SOPE   C2718671   5.260   3.176   9.511 -0.3956  0.3357 -0.2406
  166SOPE   H7R18672   5.149   3.174   9.517 -0.4035 -1.1669 -0.6529
  166SOPE   H7S18673   5.292   3.282   9.500  0.8530 -0.1067 -1.1191
  166SOPE   C2818674   5.304   3.091   9.384  0.4990  0.2001  0.1110
  166SOPE   H8R18675   5.283   2.985   9.409  1.3054 -0.9450 -3.4931
  166SOPE   H8S18676   5.226   3.128   9.314 -1.8312 -2.4605  1.1002
  166SOPE   C2918677   5.448   3.101   9.342 -0.1063 -0.2650 -0.0026
  166SOPE   H9118678   5.512   3.132   9.426  0.5656 -0.9199 -0.2593
  166SOPE  C21018679   5.497   3.094   9.222  0.4935  0.1874  0.4345
  166SOPE  H10118680   5.602   3.122   9.209  0.5838 -0.1453  0.4451
  166SOPE  C21118681   5.421   3.056   9.096  0.3144 -0.3612 -0.0539
  166SOPE  H11R18682   5.317   3.023   9.116  0.5259 -0.1405  1.5925
  166SOPE  H11S18683   5.473   2.980   9.034 -1.6952 -0.7142 -1.3866
  166SOPE  C21218684   5.406   3.179   8.996  0.5338  0.5503  0.2426
  166SOPE  H12R18685   5.366   3.138   8.901  1.4529  1.0618 -0.3882
  166SOPE  H12S18686   5.507   3.226   8.986  0.3534  0.8781 -0.0234
  166SOPE  C21318687   5.323   3.304   9.036 -0.1931  0.5282 -0.2565
  166SOPE  H13R18688   5.387   3.362   9.105  0.8710 -0.0970 -0.6842
  166SOPE  H13S18689   5.231   3.265   9.085 -1.6829  4.1393  0.1430
  166SOPE  C21418690   5.268   3.380   8.909 -0.1127  0.1303 -0.1063
  166SOPE  H14R18691   5.181   3.444   8.935 -1.1020 -0.2552 -2.2865
  166SOPE  H14S18692   5.229   3.299   8.844  0.0352 -0.2341  0.2540
  166SOPE  C21518693   5.372   3.467   8.836 -0.7768 -0.5422  0.0571
  166SOPE  H15R18694   5.453   3.391   8.820 -0.9515 -0.9148  0.9021
  166SOPE  H15S18695   5.402   3.553   8.899 -0.4135 -0.4533 -0.2332
  166SOPE  C21618696   5.320   3.516   8.704  0.7783 -0.3051 -0.7700
  166SOPE  H16R18697   5.251   3.601   8.726  1.0502 -0.0125 -1.0352
  166SOPE  H16S18698   5.281   3.429   8.647  0.8909 -0.8544 -0.0259
  166SOPE  C21718699   5.437   3.586   8.635  0.2181 -0.1751 -0.2016
  166SOPE  H17R18700   5.480   3.659   8.708 -0.8481  0.4527 -0.1818
  166SOPE  H17S18701   5.394   3.638   8.547  0.6034  0.8465  0.1895
  166SOPE  C21818702   5.545   3.488   8.601 -0.2602  0.5237 -0.6471
  166SOPE  H18R18703   5.633   3.537   8.555 -1.2126  1.0913 -1.8901
  166SOPE  H18S18704   5.498   3.416   8.531 -1.3433  0.6570 -0.0943
  166SOPE  H18T18705   5.587   3.419   8.678  0.1755 -0.5183 -1.7865
  166SOPE   C3318706   5.207   3.628  10.088  0.0589 -0.1184  0.1509
  166SOPE   H3X18707   5.294   3.657  10.151 -1.3387  3.8247  0.5279
  166SOPE   H3Y18708   5.152   3.723  10.071  0.2322  0.2125  1.3023
  166SOPE   C3418709   5.258   3.578   9.955 -0.1359  0.6488  0.3083
  166SOPE   H4X18710   5.317   3.483   9.961 -3.1786 -1.3369  1.0858
  166SOPE   H4Y18711   5.326   3.658   9.920  1.5541 -1.0586 -0.4927
  166SOPE   C3518712   5.148   3.552   9.863 -0.2202 -0.8769  0.0841
  166SOPE   H5X18713   5.085   3.643   9.863  0.5672 -0.3051  1.4771
  166SOPE   H5Y18714   5.082   3.473   9.906  0.5187 -0.0947  2.8743
  166SOPE   C3618715   5.187   3.514   9.722 -0.2985 -0.8036  0.6296
  166SOPE   H6X18716   5.128   3.427   9.683  0.6715 -0.3486 -2.0924
  166SOPE   H6Y18717   5.294   3.488   9.712 -0.3749 -0.8312 -0.2601
  166SOPE   C3718718   5.167   3.633   9.624 -0.4161 -0.3947 -0.2659
  166SOPE   H7X18719   5.234   3.715   9.656 -1.1397 -0.2604  0.9526
  166SOPE   H7Y18720   5.060   3.665   9.625 -0.2657  0.1778 -1.4509
  166SOPE   C3818721   5.212   3.581   9.486  0.6460  1.1300 -0.6438
  166SOPE   H8X18722   5.170   3.479   9.471  0.4794  1.4052 -2.2854
  166SOPE   H8Y18723   5.323   3.577   9.489  0.6115  0.7561  0.3520
  166SOPE   C3918724   5.179   3.663   9.365  0.3851 -0.1254  0.2168
  166SOPE   H9X18725   5.207   3.769   9.387  0.1828  0.2490 -1.2143
  166SOPE   H9Y18726   5.071   3.680   9.346 -0.4715 -1.4538  3.2563
  166SOPE  C31018727   5.249   3.613   9.240 -0.4945  0.4236  0.4928
  166SOPE  H10X18728   5.211   3.515   9.206 -1.3009  0.8079  0.2763
  166SOPE  H10Y18729   5.353   3.596   9.277 -0.6096  0.3925  0.8080
  166SOPE  C31118730   5.232   3.717   9.135  0.6358  0.1060  0.3433
  166SOPE  H11X18731   5.310   3.709   9.056  2.4628 -0.1618  2.1101
  166SOPE  H11Y18732   5.234   3.813   9.189 -2.2508  0.1684  0.5209
  166SOPE  C31218733   5.095   3.692   9.072 -0.3817 -0.0230  0.5520
  166SOPE  H12X18734   5.015   3.709   9.147 -1.0152  1.0924 -0.3509
  166SOPE  H12Y18735   5.099   3.588   9.032 -0.1878  0.8271 -1.7914
  166SOPE  C31318736   5.072   3.782   8.947 -0.4784 -0.8170  0.1314
  166SOPE  H13X18737   5.167   3.767   8.891 -0.7484 -1.1431 -0.2427
  166SOPE  H13Y18738   5.070   3.889   8.976  2.9334 -0.1252 -1.6557
  166SOPE  C31418739   4.954   3.738   8.865 -0.3559 -0.1478  0.4040
  166SOPE  H14X18740   4.883   3.688   8.934 -1.0698  0.5475  0.1832
  166SOPE  H14Y18741   4.985   3.670   8.783 -0.2896  1.9218 -1.3778
  166SOPE  C31518742   4.878   3.850   8.794  0.9556 -0.9246 -0.3399
  166SOPE  H15X18743   4.857   3.938   8.860 -0.7352 -0.9316 -0.8307
  166SOPE  H15Y18744   4.785   3.805   8.754  1.5337 -0.5230 -2.2134
  166SOPE  C31618745   4.946   3.904   8.662  1.1688  0.0279  0.2035
  166SOPE  H16X18746   5.008   3.822   8.620  1.3949  0.2407  0.1201
  166SOPE  H16Y18747   5.001   3.995   8.693 -1.9769  2.3182 -0.4179
  166SOPE  C31718748   4.830   3.962   8.574  0.0987  0.0520  0.5040
  166SOPE  H17X18749   4.764   4.026   8.636  0.0696  0.2746  0.2467
  166SOPE  H17Y18750   4.770   3.874   8.542 -1.1638  0.8551  0.6122
  166SOPE  C31818751   4.876   4.024   8.442 -0.1732 -0.0481  0.0687
  166SOPE  H18X18752   4.795   4.086   8.397  0.2074  1.8919  1.9192
  166SOPE  H18Y18753   4.898   3.946   8.367  2.7915  0.6954  0.0485
  166SOPE  H18Z18754   4.970   4.080   8.459 -0.5848  0.3372  1.1753
  167SOPE     N18755   0.032   3.631   6.218  0.2149  0.1705 -0.1907
  167SOPE   HN118756   0.006   3.680   6.130  0.9318  0.2118 -0.3842
  167SOPE   HN218757  -0.042   3.566   6.252 -0.9209  1.6425  0.3259
  167SOPE   HN318758   0.033   3.703   6.293  0.1300  0.0592 -0.0834
  167SOPE   C1218759   0.169   3.578   6.228  0.8162 -0.2349 -0.3907
  167SOPE  H12A18760   0.189   3.557   6.336  1.8155  0.9379 -0.3299
  167SOPE  H12B18761   0.246   3.651   6.196  2.4111 -1.4304  0.5436
  167SOPE   C1118762   0.180   3.453   6.137 -0.4822 -0.7823  0.3392
  167SOPE  H11A18763   0.276   3.407   6.167  0.6283  1.3980  0.3714
  167SOPE  H11B18764   0.199   3.474   6.029 -0.0423 -0.8651  0.3996
  167SOPE     P18765   0.075   3.227   6.075  0.2146 -0.4437  0.1561
  167SOPE   O1318766   0.200   3.156   6.094  0.2472  0.5158  0.2483
  167SOPE   O1418767   0.036   3.265   5.937  0.4272 -0.0334  0.4720
  167SOPE   O1218768   0.075   3.369   6.153 -0.3705  0.3395 -0.0037
  167SOPE   O1118769  -0.046   3.153   6.149  0.2280 -0.9113 -0.2021
  167SOPE    C118770  -0.161   3.226   6.190  0.2879 -0.1310  0.0679
  167SOPE    HA18771  -0.252   3.170   6.159  0.9202 -0.0351 -2.1518
  167SOPE    HB18772  -0.162   3.334   6.163  1.4446 -0.2158 -0.3555
  167SOPE    C218773  -0.177   3.228   6.350  0.5515  0.0347  0.5533
  167SOPE    HS18774  -0.123   3.313   6.397  0.7473 -0.9945  2.2700
  167SOPE   O2118775  -0.139   3.107   6.417  0.1139 -0.4209 -0.2613
  167SOPE   C2118776  -0.020   3.115   6.473 -0.1056 -0.6483 -1.0040
  167SOPE   O2218777   0.045   3.213   6.482 -0.4522 -0.5271  0.5575
  167SOPE   C2218778   0.020   2.985   6.535  1.0609  0.0464  0.5270
  167SOPE   H2R18779   0.125   2.992   6.572  0.9540  1.3224  0.6348
  167SOPE   H2S18780   0.008   2.909   6.455 -1.1156 -1.0870  1.8372
  167SOPE    C318781  -0.336   3.249   6.374 -0.1605 -1.0306  0.5675
  167SOPE    HX18782  -0.386   3.163   6.323 -0.8400 -0.1791 -0.2444
  167SOPE    HY18783  -0.369   3.339   6.319  1.9617  0.4649  1.6033
  167SOPE   O3118784  -0.378   3.253   6.508 -0.0980 -0.2934 -0.0751
  167SOPE   C3118785  -0.351   3.362   6.571 -0.0168  0.6790 -0.1033
  167SOPE   O3218786  -0.315   3.466   6.515 -0.0481 -0.2302 -0.3251
  167SOPE   C3218787  -0.361   3.346   6.718  0.0294 -0.0767 -0.2628
  167SOPE   H2X18788  -0.313   3.248   6.738  1.5233  0.4374 -1.1596
  167SOPE   H2Y18789  -0.469   3.346   6.744  0.2248 -0.6398  0.5823
  167SOPE   C2318790  -0.080   2.954   6.647 -0.3783  0.2719 -0.0083
  167SOPE   H3R18791  -0.081   2.846   6.675  1.0164  0.6233  1.6087
  167SOPE   H3S18792  -0.183   2.963   6.608 -1.1466 -1.2788  1.5077
  167SOPE   C2418793  -0.059   3.039   6.775 -0.0664 -0.3180  0.2996
  167SOPE   H4R18794  -0.024   3.139   6.743 -2.5088 -0.1957 -2.3865
  167SOPE   H4S18795  -0.154   3.060   6.830 -0.2402  2.1989 -0.8479
  167SOPE   C2518796   0.054   2.976   6.866  1.0837  0.2917  0.5886
  167SOPE   H5R18797   0.010   2.882   6.906  0.5467 -0.3373 -1.3489
  167SOPE   H5S18798   0.147   2.946   6.813  0.2511 -0.6499 -0.3986
  167SOPE   C2618799   0.082   3.069   6.980 -0.6027  0.0248 -0.7378
  167SOPE   H6R18800   0.171   3.018   7.023  0.8008 -0.4147 -3.9208
  167SOPE   H6S18801   0.123   3.164   6.941 -0.4182  0.3254  0.1610
  167SOPE   C2718802  -0.029   3.098   7.073  0.4667 -0.0100  0.5338
  167SOPE   H7R18803  -0.116   3.153   7.031 -0.3330 -2.3689 -1.0441
  167SOPE   H7S18804  -0.075   3.001   7.102  0.2227  0.8284  3.3057
  167SOPE   C2818805   0.007   3.172   7.201 -0.4797  0.4704 -0.1569
  167SOPE   H8R18806   0.044   3.272   7.169  0.0224  1.3176  2.6894
  167SOPE   H8S18807  -0.081   3.194   7.265 -1.0123 -0.2322 -0.6514
  167SOPE   C2918808   0.111   3.098   7.272 -0.4447  0.0814  0.1788
  167SOPE   H9118809   0.215   3.108   7.237  0.8141  2.9920  3.9494
  167SOPE  C21018810   0.092   3.027   7.384 -0.4939 -0.5709  0.0573
  167SOPE  H10118811   0.174   2.961   7.417 -1.1377 -1.7370 -0.6138
  167SOPE  C21118812  -0.034   3.011   7.461  0.1750 -0.1544  0.0534
  167SOPE  H11R18813  -0.051   2.901   7.460  0.9120 -0.2815  0.5347
  167SOPE  H11S18814  -0.124   3.062   7.419 -0.4519 -0.3222  1.1624
  167SOPE  C21218815  -0.014   3.061   7.602 -0.1320  0.8961  0.1458
  167SOPE  H12R18816   0.054   2.988   7.651 -2.7812 -0.5682  1.9142
  167SOPE  H12S18817  -0.110   3.043   7.654  0.5830 -1.4546  0.7836
  167SOPE  C21318818   0.010   3.211   7.613  0.1505  0.1893  0.2295
  167SOPE  H13R18819  -0.059   3.270   7.550  2.8765  2.0904 -1.1686
  167SOPE  H13S18820   0.107   3.232   7.562 -0.2097  0.1037 -0.5019
  167SOPE  C21418821   0.003   3.268   7.753  0.1968  0.0537 -0.3585
  167SOPE  H14R18822  -0.092   3.225   7.790  0.6524  0.9673  2.0938
  167SOPE  H14S18823   0.003   3.379   7.751  0.4687  0.0884  0.8455
  167SOPE  C21518824   0.119   3.217   7.846  1.0810 -0.0907  0.2349
  167SOPE  H15R18825   0.211   3.272   7.817 -1.3256  3.0579 -2.2284
  167SOPE  H15S18826   0.134   3.107   7.848  0.9396 -0.1312 -0.7331
  167SOPE  C21618827   0.092   3.271   7.992  1.1494  0.6223  0.3030
  167SOPE  H16R18828   0.006   3.217   8.037 -0.1064  0.3364 -2.2445
  167SOPE  H16S18829   0.062   3.378   7.982 -0.8504 -0.0014 -1.2625
  167SOPE  C21718830   0.209   3.260   8.078 -0.5314  0.3239  0.3524
  167SOPE  H17R18831   0.273   3.173   8.051  0.5069  1.2755 -0.3504
  167SOPE  H17S18832   0.167   3.258   8.180 -1.0909 -0.5255  0.1141
  167SOPE  C21818833   0.291   3.391   8.076  0.6551  0.0200 -0.7018
  167SOPE  H18R18834   0.304   3.432   7.973  0.4409 -1.2898 -1.2699
  167SOPE  H18S18835   0.387   3.377   8.130  0.4915 -1.2920 -0.7287
  167SOPE  H18T18836   0.235   3.469   8.132  1.2765  0.0872 -0.1657
  167SOPE   C3318837  -0.298   3.475   6.793 -0.5099  0.2163 -0.6007
  167SOPE   H3X18838  -0.363   3.559   6.761 -0.6231  0.2629 -0.2576
  167SOPE   H3Y18839  -0.197   3.497   6.752  0.3820  0.0886  1.4189
  167SOPE   C3418840  -0.289   3.448   6.944 -0.2978  0.3885 -0.3188
  167SOPE   H4X18841  -0.194   3.394   6.966  0.1418  1.6415  1.0511
  167SOPE   H4Y18842  -0.377   3.395   6.985 -0.1416  1.4811  1.5295
  167SOPE   C3518843  -0.285   3.575   7.034 -0.0664 -0.2052 -0.6774
  167SOPE   H5X18844  -0.383   3.624   7.013  0.0828  0.2737 -0.2649
  167SOPE   H5Y18845  -0.201   3.644   7.012 -0.9660  2.5413  3.4768
  167SOPE   C3618846  -0.295   3.533   7.183  0.1235  0.3165 -0.1882
  167SOPE   H6X18847  -0.343   3.433   7.192  1.5515 -0.4501 -0.8224
  167SOPE   H6Y18848  -0.346   3.613   7.241 -1.0622 -0.5560  0.0169
  167SOPE   C3718849  -0.150   3.523   7.241 -1.0129  0.0527 -0.3846
  167SOPE   H7X18850  -0.103   3.623   7.242 -1.2520  0.2358  3.0765
  167SOPE   H7Y18851  -0.084   3.451   7.186  1.3375  1.1200  0.8879
  167SOPE   C3818852  -0.139   3.481   7.391 -0.6390  0.6203 -0.4512
  167SOPE   H8X18853  -0.034   3.470   7.425 -0.4795 -0.2961 -1.2171
  167SOPE   H8Y18854  -0.175   3.377   7.406  4.0379 -1.2700 -0.7745
  167SOPE   C3918855  -0.205   3.580   7.481 -0.2995  0.3752 -0.2035
  167SOPE   H9X18856  -0.316   3.568   7.487 -0.0980 -1.2542  1.0243
  167SOPE   H9Y18857  -0.191   3.682   7.438 -2.7569  0.0796 -1.9443
  167SOPE  C31018858  -0.138   3.577   7.620  0.3464 -0.8243  0.1944
  167SOPE  H10X18859  -0.029   3.553   7.613  0.8164 -0.1280  3.4465
  167SOPE  H10Y18860  -0.189   3.489   7.665 -0.0989  0.2977  1.9764
  167SOPE  C31118861  -0.164   3.709   7.703 -0.4615  0.6976 -0.0572
  167SOPE  H11X18862  -0.274   3.721   7.714 -0.6569 -1.4920  0.7745
  167SOPE  H11Y18863  -0.130   3.789   7.634 -1.2913 -1.9446 -3.9001
  167SOPE  C31218864  -0.094   3.705   7.839 -0.4720 -0.1510  0.0881
  167SOPE  H12X18865  -0.104   3.803   7.889  4.3325  0.4625  0.3686
  167SOPE  H12Y18866   0.016   3.701   7.823 -0.2298  1.9229  0.9159
  167SOPE  C31318867  -0.144   3.602   7.945 -0.2892 -0.2666 -0.4906
  167SOPE  H13X18868  -0.125   3.495   7.922 -0.2782 -0.0758 -1.4342
  167SOPE  H13Y18869  -0.254   3.612   7.959 -0.3346 -2.2772  1.0009
  167SOPE  C31418870  -0.078   3.638   8.080 -0.5965 -0.1718  0.0225
  167SOPE  H14X18871  -0.090   3.747   8.096  2.2181  0.1460  0.4146
  167SOPE  H14Y18872   0.032   3.629   8.066 -0.5218 -2.4088  1.4925
  167SOPE  C31518873  -0.113   3.556   8.208  0.6820 -0.0841 -0.5906
  167SOPE  H15X18874  -0.083   3.450   8.188 -1.7021 -0.8714 -0.2497
  167SOPE  H15Y18875  -0.222   3.553   8.227  0.3347 -0.3122 -2.5043
  167SOPE  C31618876  -0.056   3.609   8.344 -0.3685 -0.2874  0.4009
  167SOPE  H16X18877  -0.092   3.713   8.355  1.4762  0.2406  1.9581
  167SOPE  H16Y18878   0.054   3.629   8.337 -0.4678  0.2990  0.4970
  167SOPE  C31718879  -0.073   3.516   8.469 -0.9800 -0.2270  0.1633
  167SOPE  H17X18880  -0.039   3.576   8.556 -3.0785 -0.5336  1.2539
  167SOPE  H17Y18881  -0.007   3.426   8.471 -0.4471  0.1578  0.2942
  167SOPE  C31818882  -0.210   3.471   8.511  0.2339 -0.5979  0.2030
  167SOPE  H18X18883  -0.199   3.412   8.605 -1.3701 -1.8825 -0.3490
  167SOPE  H18Y18884  -0.261   3.404   8.437 -0.9921  0.3759  0.1345
  167SOPE  H18Z18885  -0.275   3.560   8.519  0.4116 -0.4312 -0.1893
  168SOPE     N18886   5.646   1.237   6.292  0.2108  0.0329  0.8108
  168SOPE   HN118887   5.644   1.280   6.197 -0.3604 -0.6792  0.4847
  168SOPE   HN218888   5.586   1.152   6.287 -0.1553  0.3568 -0.7447
  168SOPE   HN318889   5.600   1.309   6.351  1.5928 -0.1400  2.1645
  168SOPE   C1218890   5.792   1.213   6.313 -0.1412  0.2009 -0.9064
  168SOPE  H12A18891   5.811   1.155   6.406  1.2609  1.8502 -0.1183
  168SOPE  H12B18892   5.838   1.313   6.327 -0.9602  0.8047 -2.2957
  168SOPE   C1118893   5.850   1.133   6.195  0.4119  0.2915 -0.0781
  168SOPE  H11A18894   5.960   1.124   6.197  0.3829 -1.1039 -1.7699
  168SOPE  H11B18895   5.827   1.188   6.101  2.2218  1.6898  0.2467
  168SOPE     P18896   5.866   0.877   6.257 -0.1739 -0.0517 -0.3370
  168SOPE   O1318897   5.972   0.829   6.170  0.0452  0.1471 -0.0896
  168SOPE   O1418898   5.760   0.779   6.274  0.3681 -0.4832  0.2953
  168SOPE   O1218899   5.792   0.999   6.191  0.3166 -0.3647  0.5041
  168SOPE   O1118900   5.918   0.935   6.394  0.1590  0.2307  0.5055
  168SOPE    C118901   6.034   0.875   6.460  0.2970 -0.0192 -0.2149
  168SOPE    HA18902   6.128   0.912   6.413 -0.1322  0.8174 -0.4248
  168SOPE    HB18903   6.044   0.766   6.441 -0.9710 -0.3741  0.9970
  168SOPE    C218904   6.036   0.906   6.607 -0.2549  0.1654 -0.0673
  168SOPE    HS18905   5.982   0.830   6.668 -1.8700  0.2131 -1.4008
  168SOPE   O2118906   5.983   1.037   6.635  0.6270 -0.6808  0.5050
  168SOPE   C2118907   5.859   1.035   6.675 -0.0692 -0.2535 -1.4217
  168SOPE   O2218908   5.781   0.944   6.676 -0.2298 -0.1573 -0.1314
  168SOPE   C2218909   5.824   1.187   6.700 -0.8995 -0.0169 -0.9358
  168SOPE   H2R18910   5.822   1.231   6.598  1.0831  0.1678 -0.9373
  168SOPE   H2S18911   5.915   1.233   6.746 -0.6841 -1.3403  0.0210
  168SOPE    C318912   6.180   0.905   6.675  0.5264  0.1759  0.4517
  168SOPE    HX18913   6.237   0.993   6.637  2.1118 -1.0020  0.0235
  168SOPE    HY18914   6.243   0.820   6.642  2.5831  1.4437  0.9465
  168SOPE   O3118915   6.175   0.908   6.818 -0.3823 -0.2090 -0.2375
  168SOPE   C3118916   6.164   0.784   6.872  0.2537 -0.5930  0.0607
  168SOPE   O3218917   6.168   0.679   6.808  0.0566  0.0740  0.2880
  168SOPE   C3218918   6.135   0.794   7.028 -0.1534  0.6553  0.1916
  168SOPE   H2X18919   6.220   0.830   7.090 -2.3446  1.6650  2.7905
  168SOPE   H2Y18920   6.105   0.689   7.048  0.2644  0.4047 -0.4759
  168SOPE   C2318921   5.700   1.192   6.795  0.2813  0.5476  0.2755
  168SOPE   H3R18922   5.613   1.147   6.742  1.0406 -2.3540  1.3006
  168SOPE   H3S18923   5.669   1.295   6.823 -1.4145  0.2093 -0.2471
  168SOPE   C2418924   5.715   1.115   6.930  0.4072  0.4041  0.4527
  168SOPE   H4R18925   5.710   1.006   6.911 -1.9877  0.6384 -0.6879
  168SOPE   H4S18926   5.813   1.150   6.969  1.2791 -0.7935 -0.5891
  168SOPE   C2518927   5.606   1.159   7.026  0.9202 -0.4886  0.7367
  168SOPE   H5R18928   5.609   1.270   7.032  2.5001 -0.2506 -2.4381
  168SOPE   H5S18929   5.509   1.120   6.988  0.8019  0.4087  0.0897
  168SOPE   C2618930   5.615   1.090   7.162  0.0395 -0.1492  0.2596
  168SOPE   H6R18931   5.594   0.982   7.145 -3.3281  0.4963 -0.4769
  168SOPE   H6S18932   5.715   1.106   7.207  0.2587  0.8552 -0.5430
  168SOPE   C2718933   5.505   1.134   7.251 -0.2080  0.1315  0.0737
  168SOPE   H7R18934   5.515   1.241   7.279 -1.6243  0.6560 -1.2381
  168SOPE   H7S18935   5.408   1.135   7.197  0.4352  0.7682 -1.0959
  168SOPE   C2818936   5.492   1.056   7.380 -0.0787 -0.5108  0.7958
  168SOPE   H8R18937   5.463   0.957   7.338 -4.3155  1.0643 -0.5260
  168SOPE   H8S18938   5.594   1.053   7.424  0.4642  3.7226  0.1521
  168SOPE   C2918939   5.398   1.128   7.472  0.4004  0.1951 -0.2646
  168SOPE   H9118940   5.405   1.238   7.471 -1.2381  0.3205  0.1897
  168SOPE  C21018941   5.297   1.072   7.547  0.0263 -0.3066  0.0245
  168SOPE  H10118942   5.235   1.135   7.612 -1.3504 -3.1004  1.6006
  168SOPE  C21118943   5.265   0.929   7.558  0.8399 -0.0413 -0.1769
  168SOPE  H11R18944   5.343   0.850   7.559 -1.4590 -2.4580 -0.6573
  168SOPE  H11S18945   5.188   0.896   7.485 -0.4867  0.4839  0.9249
  168SOPE  C21218946   5.190   0.908   7.697  0.5153 -0.0475  0.6676
  168SOPE  H12R18947   5.151   0.804   7.699  0.6773 -0.1047  1.0727
  168SOPE  H12S18948   5.100   0.973   7.690  3.1918  3.9860  0.3120
  168SOPE  C21318949   5.283   0.939   7.812 -0.8323  0.0971 -0.5502
  168SOPE  H13R18950   5.222   0.985   7.893  1.1385  0.7051  0.6596
  168SOPE  H13S18951   5.352   1.022   7.786 -0.2116  1.1454  3.7640
  168SOPE  C21418952   5.366   0.821   7.874 -0.4366  0.5077 -0.2032
  168SOPE  H14R18953   5.437   0.794   7.794 -2.2415 -1.2520 -1.3044
  168SOPE  H14S18954   5.306   0.728   7.887  1.8168 -1.1987 -1.2664
  168SOPE  C21518955   5.431   0.866   8.006 -0.5655  0.1367 -0.6100
  168SOPE  H15R18956   5.348   0.918   8.060 -0.1616  0.9477 -0.7433
  168SOPE  H15S18957   5.500   0.951   7.985  1.2630 -1.4423 -1.2256
  168SOPE  C21618958   5.497   0.754   8.080  0.2862  0.0347  0.1707
  168SOPE  H16R18959   5.580   0.702   8.029  1.6758  0.5352  1.8019
  168SOPE  H16S18960   5.416   0.681   8.100 -0.2928  0.9219  1.2273
  168SOPE  C21718961   5.559   0.784   8.220  0.4263 -0.3694 -0.2576
  168SOPE  H17R18962   5.475   0.830   8.275  0.9850  1.5274 -0.9273
  168SOPE  H17S18963   5.638   0.857   8.196  0.9800 -0.6737  0.5968
  168SOPE  C21818964   5.623   0.674   8.297  0.6123 -0.7830  0.2275
  168SOPE  H18R18965   5.658   0.716   8.393  0.3920  0.7266 -0.3129
  168SOPE  H18S18966   5.713   0.626   8.253  0.4570 -1.6336  0.8151
  168SOPE  H18T18967   5.546   0.595   8.311 -1.6784  1.3611  0.3769
  168SOPE   C3318968   5.997   0.857   7.056 -0.2885 -0.2682  0.3625
  168SOPE   H3X18969   5.925   0.830   6.976  1.9252  2.1685 -2.7165
  168SOPE   H3Y18970   5.996   0.968   7.051  2.0662 -0.1935  0.3294
  168SOPE   C3418971   5.935   0.813   7.188  0.7611  0.4397  0.2147
  168SOPE   H4X18972   5.939   0.704   7.209  1.9427  0.9963  3.2844
  168SOPE   H4Y18973   5.833   0.856   7.193  1.0258  0.9095  1.9279
  168SOPE   C3518974   6.007   0.879   7.305  0.0120 -0.4266  0.0281
  168SOPE   H5X18975   6.031   0.987   7.294 -0.4326 -0.2270  0.9654
  168SOPE   H5Y18976   6.106   0.830   7.317  0.7304  1.4185  2.3211
  168SOPE   C3618977   5.923   0.864   7.429  0.0292 -1.2260 -0.7271
  168SOPE   H6X18978   5.874   0.766   7.443  0.3961 -1.5817 -1.7997
  168SOPE   H6Y18979   5.833   0.928   7.439 -0.6236 -2.2622  0.2479
  168SOPE   C3718980   5.996   0.910   7.550 -0.9087 -0.4161  0.0847
  168SOPE   H7X18981   6.049   1.004   7.521  0.6681 -2.2648 -3.7138
  168SOPE   H7Y18982   6.086   0.846   7.559  0.4570  1.2752 -0.8442
  168SOPE   C3818983   5.911   0.932   7.674 -0.1355 -0.5331 -0.2288
  168SOPE   H8X18984   5.973   0.916   7.765 -0.3183 -1.9489 -0.3370
  168SOPE   H8Y18985   5.841   0.846   7.667  0.7801 -1.1473 -3.7584
  168SOPE   C3918986   5.829   1.054   7.683 -0.0872  0.1311  0.6177
  168SOPE   H9X18987   5.743   1.034   7.615 -2.1072  0.1830  3.0339
  168SOPE   H9Y18988   5.876   1.147   7.645 -2.5084  1.2954  0.2151
  168SOPE  C31018989   5.774   1.091   7.818  0.3376  0.3674  0.0262
  168SOPE  H10X18990   5.777   1.006   7.890 -0.0166  0.8647  0.6415
  168SOPE  H10Y18991   5.669   1.120   7.796  1.2890  1.0458 -4.5141
  168SOPE  C31118992   5.851   1.208   7.886  0.3079  0.3787  0.1304
  168SOPE  H11X18993   5.842   1.294   7.815 -0.2800 -0.5252 -0.9228
  168SOPE  H11Y18994   5.957   1.179   7.905  0.0845  0.0108  0.8043
  168SOPE  C31218995   5.784   1.240   8.019  0.0645 -0.6328 -0.6836
  168SOPE  H12X18996   5.815   1.155   8.084  1.2210  0.0837 -0.2721
  168SOPE  H12Y18997   5.676   1.229   7.995  0.1709 -2.9364 -0.2973
  168SOPE  C31318998   5.813   1.375   8.088 -0.1915 -0.2268 -0.0245
  168SOPE  H13X18999   5.773   1.464   8.035 -0.7415 -0.4408  0.0232
  168SOPE  H13Y19000   5.923   1.392   8.090 -0.6219  3.4982 -0.3860
  168SOPE  C31419001   5.777   1.372   8.234  0.7628 -0.6310 -0.1090
  168SOPE  H14X19002   5.816   1.287   8.295 -1.5538 -0.1409  2.2694
  168SOPE  H14Y19003   5.666   1.369   8.239  0.5466  0.7038 -2.6109
  168SOPE  C31519004   5.819   1.520   8.293  0.4953  0.0746  0.1320
  168SOPE  H15X19005   5.786   1.538   8.397  5.5688  4.0776  1.4758
  168SOPE  H15Y19006   5.773   1.593   8.223  0.8101 -2.3075 -2.7914
  168SOPE  C31619007   5.975   1.541   8.300  0.6480 -0.2969  0.8483
  168SOPE  H16X19008   6.011   1.541   8.195  0.8465 -1.1779  0.9050
  168SOPE  H16Y19009   6.012   1.446   8.344  0.8602 -0.1155  1.0559
  168SOPE  C31719010   6.014   1.676   8.360  0.2405  0.0624  0.4903
  168SOPE  H17X19011   5.934   1.748   8.333 -0.1215  0.7762  3.1588
  168SOPE  H17Y19012   6.113   1.707   8.318  0.0848  2.3836  1.6435
  168SOPE  C31819013   6.033   1.670   8.513 -0.4383  0.2040 -0.0194
  168SOPE  H18X19014   5.954   1.610   8.563  1.2833 -0.8752  1.5202
  168SOPE  H18Y19015   6.025   1.770   8.561 -0.2283 -0.4309  1.4040
  168SOPE  H18Z19016   6.130   1.624   8.541 -1.9105 -3.0782  0.1410
  169SOPE     N19017   1.520   0.448   6.231 -0.1256  0.0048  0.6908
  169SOPE   HN119018   1.558   0.359   6.192 -0.7852  0.6058 -1.4620
  169SOPE   HN219019   1.589   0.486   6.300 -0.7798 -0.1688  1.4527
  169SOPE   HN319020   1.429   0.428   6.276 -0.2999 -2.0165 -0.4351
  169SOPE   C1219021   1.488   0.554   6.121 -0.1584  0.5824 -0.6475
  169SOPE  H12A19022   1.461   0.500   6.028  1.8963  1.5177 -1.8437
  169SOPE  H12B19023   1.578   0.612   6.091  1.4830 -2.0725 -1.1492
  169SOPE   C1119024   1.364   0.640   6.156  0.4541  0.2556  0.1490
  169SOPE  H11A19025   1.288   0.575   6.205  3.0533 -1.9350  1.5383
  169SOPE  H11B19026   1.316   0.691   6.069  2.5153 -0.7201 -1.6327
  169SOPE     P19027   1.294   0.820   6.342 -0.1174  0.2490 -0.1779
  169SOPE   O1319028   1.162   0.761   6.331 -0.0020  0.5276 -0.0735
  169SOPE   O1419029   1.305   0.965   6.318 -0.1966 -0.0678 -0.6931
  169SOPE   O1219030   1.400   0.742   6.246 -0.4951  0.1376  0.4553
  169SOPE   O1119031   1.355   0.790   6.484  0.7952  0.4412  0.1554
  169SOPE    C119032   1.358   0.650   6.530 -0.4844 -0.9195  0.0100
  169SOPE    HA19033   1.451   0.639   6.590 -0.3093  1.4745  0.2546
  169SOPE    HB19034   1.362   0.579   6.444 -1.4782 -0.7474 -0.1857
  169SOPE    C219035   1.240   0.616   6.625  0.0883 -1.0610 -0.8083
  169SOPE    HS19036   1.147   0.627   6.565  0.6744 -0.1742 -1.5789
  169SOPE   O2119037   1.244   0.705   6.743 -0.3167  0.7239 -0.4025
  169SOPE   C2119038   1.128   0.705   6.809 -0.3198  0.4425  0.6043
  169SOPE   O2219039   1.020   0.663   6.772 -0.0770  0.2612  0.0199
  169SOPE   C2219040   1.149   0.793   6.937 -1.0337 -0.0713 -0.3057
  169SOPE   H2R19041   1.109   0.892   6.908 -1.4557 -0.7000 -1.9561
  169SOPE   H2S19042   1.257   0.804   6.957 -0.7459  0.3075 -1.9605
  169SOPE    C319043   1.271   0.476   6.666 -0.4127  0.1724  0.5738
  169SOPE    HX19044   1.352   0.482   6.742 -0.3049 -0.6009  0.5321
  169SOPE    HY19045   1.310   0.424   6.576 -1.6102  0.3863 -0.0873
  169SOPE   O3119046   1.161   0.410   6.732  0.5683  0.6345  0.5698
  169SOPE   C3119047   1.072   0.369   6.641  0.4914 -0.1189  0.5425
  169SOPE   O3219048   1.084   0.387   6.521 -0.1171 -0.0831 -0.7520
  169SOPE   C3219049   0.960   0.285   6.704  0.6414 -0.1390  0.7980
  169SOPE   H2X19050   1.011   0.210   6.768 -0.2638 -1.4119  0.0552
  169SOPE   H2Y19051   0.893   0.238   6.629  1.0271 -0.2561  0.5209
  169SOPE   C2319052   1.087   0.713   7.049 -0.1305  0.8625  0.0917
  169SOPE   H3R19053   1.125   0.608   7.053 -1.7363  0.2123 -0.8459
  169SOPE   H3S19054   0.979   0.703   7.028 -0.1079  0.9157 -0.0547
  169SOPE   C2419055   1.098   0.787   7.182 -0.0766 -0.3392  0.4385
  169SOPE   H4R19056   1.207   0.784   7.206 -0.1579  0.6096  0.9911
  169SOPE   H4S19057   1.070   0.894   7.168  3.0300  0.3847 -1.3228
  169SOPE   C2519058   1.031   0.716   7.305 -0.0875 -0.0188  0.2891
  169SOPE   H5R19059   0.922   0.705   7.281  0.0692  0.8606 -0.9362
  169SOPE   H5S19060   1.076   0.616   7.324  3.1680  0.8812 -1.9183
  169SOPE   C2619061   1.057   0.790   7.433  0.3752 -0.1276  0.6635
  169SOPE   H6R19062   1.165   0.814   7.441 -0.1506  3.0128 -0.0398
  169SOPE   H6S19063   1.003   0.887   7.420 -0.2938 -0.6072 -0.3572
  169SOPE   C2719064   1.004   0.716   7.553 -0.3540 -0.2036 -0.1727
  169SOPE   H7R19065   0.893   0.724   7.550 -0.4962 -1.7247  0.2172
  169SOPE   H7S19066   1.025   0.607   7.546 -3.5382 -1.0963  2.0748
  169SOPE   C2819067   1.041   0.772   7.694 -0.7857 -0.5832  0.2220
  169SOPE   H8R19068   1.152   0.770   7.696 -0.7605 -1.9517 -0.8485
  169SOPE   H8S19069   1.006   0.877   7.703 -1.2724 -0.5431 -1.5955
  169SOPE   C2919070   0.975   0.696   7.805  0.3362  0.2498 -0.4652
  169SOPE   H9119071   0.865   0.697   7.799 -0.0414 -1.6071  3.0444
  169SOPE  C21019072   1.036   0.631   7.906 -0.0488  0.3932 -0.4613
  169SOPE  H10119073   0.978   0.570   7.976  2.7112 -3.0703 -0.8991
  169SOPE  C21119074   1.183   0.622   7.932  0.1180 -0.0712 -0.2848
  169SOPE  H11R19075   1.236   0.706   7.881  0.8676 -0.4265 -0.1065
  169SOPE  H11S19076   1.222   0.527   7.889 -0.9671  0.3379 -2.3255
  169SOPE  C21219077   1.234   0.643   8.078 -0.6471  0.2681 -0.0884
  169SOPE  H12R19078   1.236   0.752   8.098 -2.3962  0.3656 -0.2610
  169SOPE  H12S19079   1.340   0.612   8.089 -0.0543  2.6375  1.7870
  169SOPE  C21319080   1.154   0.568   8.191 -0.0973 -0.1514  0.0998
  169SOPE  H13R19081   1.147   0.462   8.159 -0.8090 -0.6796  1.8949
  169SOPE  H13S19082   1.047   0.596   8.198 -0.1274  0.0600 -1.1385
  169SOPE  C21419083   1.212   0.575   8.336 -0.3588 -0.3967  0.3952
  169SOPE  H14R19084   1.213   0.683   8.363  1.0251 -0.1609 -0.5444
  169SOPE  H14S19085   1.313   0.530   8.333  0.2684  0.9934 -1.4527
  169SOPE  C21519086   1.122   0.503   8.439  0.3863 -0.1861  0.3454
  169SOPE  H15R19087   1.095   0.399   8.413 -0.9271 -0.4057  2.3620
  169SOPE  H15S19088   1.024   0.554   8.434  1.0027  1.0138 -0.1609
  169SOPE  C21619089   1.183   0.489   8.574  0.8230 -0.1260  0.3388
  169SOPE  H16R19090   1.207   0.591   8.613  0.1314  1.2680 -2.5974
  169SOPE  H16S19091   1.280   0.438   8.562  0.8138  0.0581 -0.5380
  169SOPE  C21719092   1.089   0.411   8.663 -0.3397  0.1034 -0.5567
  169SOPE  H17R19093   1.072   0.307   8.628  0.3470 -0.4367  0.6268
  169SOPE  H17S19094   0.985   0.448   8.668  0.1394  1.6280 -1.3579
  169SOPE  C21819095   1.152   0.409   8.803  0.2896 -0.4013 -0.1328
  169SOPE  H18R19096   1.258   0.375   8.810  1.1196  1.9480 -0.3593
  169SOPE  H18S19097   1.097   0.339   8.869  1.3775 -1.5617 -0.4084
  169SOPE  H18T19098   1.156   0.506   8.857  0.0432 -0.3153 -0.2688
  169SOPE   C3319099   0.872   0.371   6.800  0.0293 -0.5306  0.8878
  169SOPE   H3X19100   0.766   0.348   6.776 -0.3156  1.6095  0.1815
  169SOPE   H3Y19101   0.880   0.476   6.766 -0.4412 -1.1517 -1.2748
  169SOPE   C3419102   0.914   0.343   6.951 -0.4945 -0.0559  0.5785
  169SOPE   H4X19103   1.022   0.368   6.959 -0.4104 -0.0712 -0.3535
  169SOPE   H4Y19104   0.907   0.236   6.981  0.4407  0.2430  1.9337
  169SOPE   C3519105   0.833   0.429   7.047 -0.3337  0.2479 -0.1864
  169SOPE   H5X19106   0.725   0.408   7.033 -0.0463 -0.8568 -0.9117
  169SOPE   H5Y19107   0.854   0.535   7.024  1.0497 -0.6801 -3.9122
  169SOPE   C3619108   0.865   0.383   7.189 -1.0361  0.2079 -0.1923
  169SOPE   H6X19109   0.970   0.409   7.213 -0.6477 -0.3716 -1.1836
  169SOPE   H6Y19110   0.861   0.272   7.199 -0.0407  0.3908  3.0901
  169SOPE   C3719111   0.773   0.438   7.298  0.3261 -0.3107 -0.2150
  169SOPE   H7X19112   0.665   0.410   7.306  0.3417  0.2048  3.2126
  169SOPE   H7Y19113   0.767   0.545   7.272  0.2045 -0.0085  0.9683
  169SOPE   C3819114   0.835   0.423   7.443 -0.0074 -0.6787 -0.1436
  169SOPE   H8X19115   0.944   0.418   7.425  0.2144  0.0600  0.8943
  169SOPE   H8Y19116   0.835   0.521   7.496 -0.2342  0.6357 -2.4020
  169SOPE   C3919117   0.771   0.305   7.514 -0.0172  0.1593  0.7470
  169SOPE   H9X19118   0.786   0.213   7.453 -0.8879 -0.3883  1.3518
  169SOPE   H9Y19119   0.664   0.331   7.520  0.1528  1.5801 -1.3180
  169SOPE  C31019120   0.842   0.292   7.647 -0.4417  0.4720 -0.0767
  169SOPE  H10X19121   0.923   0.367   7.651 -3.2001  3.7867 -1.3201
  169SOPE  H10Y19122   0.875   0.187   7.661 -0.8432  0.2344 -0.8508
  169SOPE  C31119123   0.753   0.312   7.770  0.2286 -0.1837 -0.6696
  169SOPE  H11X19124   0.683   0.226   7.768  2.0706 -1.7714 -0.4876
  169SOPE  H11Y19125   0.680   0.396   7.776 -1.7675 -1.9440  2.4386
  169SOPE  C31219126   0.826   0.303   7.904 -0.1756  0.9510 -0.3798
  169SOPE  H12X19127   0.913   0.370   7.892  0.6145 -0.3630 -2.4030
  169SOPE  H12Y19128   0.866   0.201   7.922  1.7056  1.6233 -0.5664
  169SOPE  C31319129   0.729   0.344   8.017 -0.5562 -0.4724  0.2955
  169SOPE  H13X19130   0.643   0.275   8.011  0.9397 -2.6600  2.1442
  169SOPE  H13Y19131   0.702   0.451   8.002  1.1459 -0.2030 -1.1320
  169SOPE  C31419132   0.792   0.323   8.155  0.1720  0.4442  0.5512
  169SOPE  H14X19133   0.890   0.374   8.153 -0.2618  1.3200 -1.4823
  169SOPE  H14Y19134   0.809   0.215   8.176  0.0310  0.1276 -0.8381
  169SOPE  C31519135   0.707   0.364   8.271  0.5955  0.1122  0.3979
  169SOPE  H15X19136   0.698   0.475   8.269  1.3408  0.1707 -0.6089
  169SOPE  H15Y19137   0.765   0.341   8.363 -2.2190 -1.0758  1.9941
  169SOPE  C31619138   0.572   0.295   8.279  0.6870  0.1103 -0.6562
  169SOPE  H16X19139   0.589   0.189   8.307  0.7533  0.3651  0.2907
  169SOPE  H16Y19140   0.509   0.301   8.188 -0.7564  1.9644  0.3857
  169SOPE  C31719141   0.505   0.350   8.407  0.2158  0.1356 -0.5160
  169SOPE  H17X19142   0.493   0.459   8.391  1.5360  0.4083  0.2267
  169SOPE  H17Y19143   0.584   0.328   8.481  0.5284 -0.4806 -1.0207
  169SOPE  C31819144   0.372   0.290   8.460 -0.8309  0.0204  0.2648
  169SOPE  H18X19145   0.332   0.245   8.367 -1.1091  1.1091 -0.1534
  169SOPE  H18Y19146   0.307   0.368   8.506 -0.4600  0.3586  0.2238
  169SOPE  H18Z19147   0.396   0.219   8.542 -0.4476  0.6458  0.7039
  170SOPE     N19148   1.485   6.115   6.459  0.2699 -0.0961 -0.3643
  170SOPE   HN119149   1.416   6.149   6.529  0.2638  0.5297 -0.6734
  170SOPE   HN219150   1.441   6.106   6.366  0.3639  0.8279 -0.5094
  170SOPE   HN319151   1.513   6.017   6.479  0.1220 -0.0212  0.2404
  170SOPE   C1219152   1.614   6.186   6.446 -0.1116 -0.3199 -0.4927
  170SOPE  H12A19153   1.682   6.135   6.518 -2.1094 -0.0740  1.6877
  170SOPE  H12B19154   1.609   6.293   6.476 -1.1949 -0.7443  0.9558
  170SOPE   C1119155   1.680   6.158   6.306  1.0359 -0.1132  0.1560
  170SOPE  H11A19156   1.660   6.055   6.268  1.4044 -0.5724  1.1673
  170SOPE  H11B19157   1.788   6.172   6.326  0.4683 -0.0483  3.9942
  170SOPE     P19158   1.717   6.393   6.189  0.2421 -0.3252 -0.1718
  170SOPE   O1319159   1.683   6.440   6.054 -0.4407 -0.4144  0.1408
  170SOPE   O1419160   1.860   6.374   6.219 -0.3905 -0.2659 -0.2505
  170SOPE   O1219161   1.634   6.255   6.207  0.5561 -0.3630 -0.2382
  170SOPE   O1119162   1.650   6.491   6.289 -0.0983  0.6010 -0.6592
  170SOPE    C119163   1.538   6.577   6.253  0.7836 -1.2705 -0.0958
  170SOPE    HA19164   1.513   6.574   6.145  0.7339  1.8160 -0.2514
  170SOPE    HB19165   1.576   6.677   6.281 -0.9956 -0.9076  1.1705
  170SOPE    C219166   1.404   6.556   6.324  0.0668 -0.2269  0.2597
  170SOPE    HS19167   1.340   6.644   6.302  0.9628  0.0979 -1.1947
  170SOPE   O2119168   1.419   6.521   6.454  0.0646  0.0544 -0.6768
  170SOPE   C2119169   1.457   6.615   6.533  0.4944  0.0345 -0.4019
  170SOPE   O2219170   1.465   6.736   6.504 -0.3791 -0.4586  0.0357
  170SOPE   C2219171   1.486   6.576   6.671 -0.2838  0.7021  0.2267
  170SOPE   H2R19172   1.578   6.513   6.672 -0.0402  1.0569  0.3281
  170SOPE   H2S19173   1.401   6.513   6.704  0.6323 -0.8056 -0.1775
  170SOPE    C319174   1.333   6.439   6.246  0.7581  0.9259  0.0405
  170SOPE    HX19175   1.393   6.346   6.252 -0.8481 -0.2137 -0.8979
  170SOPE    HY19176   1.330   6.471   6.139 -1.7222 -0.8467 -0.5024
  170SOPE   O3119177   1.202   6.415   6.298 -0.4341 -0.0764 -0.1993
  170SOPE   C3119178   1.179   6.339   6.403 -0.2993 -0.1097 -0.3631
  170SOPE   O3219179   1.262   6.282   6.471  0.0223 -0.6525 -0.3147
  170SOPE   C3219180   1.024   6.328   6.421 -0.7945  1.5319  0.0084
  170SOPE   H2X19181   0.990   6.223   6.418  1.1006  0.6078  4.1032
  170SOPE   H2Y19182   0.977   6.380   6.335  1.1626  2.3646 -0.6245
  170SOPE   C2319183   1.509   6.692   6.776 -0.2376 -0.3126 -0.2952
  170SOPE   H3R19184   1.431   6.771   6.770  0.9897  0.8766 -1.1063
  170SOPE   H3S19185   1.604   6.740   6.742 -0.0882  0.5723  1.2859
  170SOPE   C2419186   1.529   6.634   6.917 -0.5861 -0.0610 -1.3420
  170SOPE   H4R19187   1.445   6.568   6.949  0.9203 -1.0349  0.9125
  170SOPE   H4S19188   1.625   6.578   6.927  1.0003  2.8365  1.4047
  170SOPE   C2519189   1.529   6.750   7.020  0.4292 -0.0091  0.0237
  170SOPE   H5R19190   1.619   6.813   6.997  0.3133  0.2514  0.2751
  170SOPE   H5S19191   1.454   6.825   6.986  2.9401  2.6595 -0.0214
  170SOPE   C2619192   1.529   6.701   7.163 -0.0780  0.0127 -1.0992
  170SOPE   H6R19193   1.431   6.650   7.171 -0.1782 -0.0749 -2.6662
  170SOPE   H6S19194   1.604   6.618   7.163  0.2879  0.2631  1.4128
  170SOPE   C2719195   1.551   6.815   7.264 -0.6082 -0.5835 -0.7576
  170SOPE   H7R19196   1.657   6.845   7.253 -0.0242 -0.5045  3.4487
  170SOPE   H7S19197   1.480   6.900   7.256  1.9856  1.6564 -1.6849
  170SOPE   C2819198   1.554   6.765   7.408 -0.7710  0.5842 -0.8071
  170SOPE   H8R19199   1.639   6.693   7.416  0.3348  1.8873 -0.5663
  170SOPE   H8S19200   1.590   6.853   7.466 -0.3726 -0.4253  0.5557
  170SOPE   C2919201   1.430   6.716   7.483 -0.2244 -0.0558  0.1593
  170SOPE   H9119202   1.352   6.681   7.415  0.8581 -0.5330 -0.8752
  170SOPE  C21019203   1.417   6.694   7.619 -0.3589 -0.3355  0.6581
  170SOPE  H10119204   1.320   6.656   7.653 -1.2141  0.9310 -0.2869
  170SOPE  C21119205   1.516   6.727   7.722 -0.6697 -0.1451  0.4986
  170SOPE  H11R19206   1.470   6.800   7.792  1.4883 -0.7863  2.7201
  170SOPE  H11S19207   1.606   6.781   7.687  0.2626 -1.5413  0.6353
  170SOPE  C21219208   1.546   6.610   7.811  0.0078 -0.0540 -0.1657
  170SOPE  H12R19209   1.623   6.551   7.757  0.9984 -1.4230  2.5344
  170SOPE  H12S19210   1.462   6.538   7.825 -1.2343  1.4735  0.4772
  170SOPE  C21319211   1.607   6.664   7.945 -0.1668 -0.6789  0.1439
  170SOPE  H13R19212   1.537   6.729   8.001  0.4273  0.1316 -0.0436
  170SOPE  H13S19213   1.689   6.732   7.916 -0.0577 -1.8125 -2.4953
  170SOPE  C21419214   1.650   6.556   8.048 -0.6306  0.5892  0.7525
  170SOPE  H14R19215   1.733   6.496   8.006  0.2300  2.6808 -0.7465
  170SOPE  H14S19216   1.561   6.491   8.061 -0.1064 -1.1566 -2.9791
  170SOPE  C21519217   1.684   6.621   8.179  0.4036 -0.4460  0.5497
  170SOPE  H15R19218   1.693   6.547   8.262  1.2591 -0.5188  0.4039
  170SOPE  H15S19219   1.599   6.686   8.207  0.2867 -0.8328  1.1078
  170SOPE  C21619220   1.812   6.709   8.173  0.3296 -0.1299 -0.1486
  170SOPE  H16R19221   1.775   6.807   8.136 -1.2938 -0.0800  1.4668
  170SOPE  H16S19222   1.886   6.679   8.096  2.0685  0.5192  1.2072
  170SOPE  C21719223   1.895   6.734   8.302  0.1528 -0.5042 -0.0782
  170SOPE  H17R19224   1.846   6.788   8.385  2.1275  0.8781  0.2640
  170SOPE  H17S19225   1.972   6.807   8.271  0.4376 -2.0232 -3.4387
  170SOPE  C21819226   1.961   6.604   8.350  0.2582  0.5563 -0.0190
  170SOPE  H18R19227   2.048   6.632   8.414 -1.2950  1.0824  1.9656
  170SOPE  H18S19228   1.995   6.547   8.261 -1.4173 -0.5507  0.0273
  170SOPE  H18T19229   1.887   6.550   8.412 -0.6953  2.7417  0.8566
  170SOPE   C3319230   0.971   6.383   6.557 -0.6373  0.0304  0.8312
  170SOPE   H3X19231   0.977   6.493   6.559 -0.1751  0.0869 -1.1804
  170SOPE   H3Y19232   1.021   6.320   6.634 -1.1642 -1.4385  0.0196
  170SOPE   C3419233   0.824   6.350   6.562 -0.6885  0.6848 -0.3936
  170SOPE   H4X19234   0.817   6.245   6.525 -1.4156  0.9309 -0.9756
  170SOPE   H4Y19235   0.755   6.397   6.488 -0.9196  1.8439  0.5340
  170SOPE   C3519236   0.771   6.342   6.705  0.5312 -0.7991 -0.1763
  170SOPE   H5X19237   0.840   6.300   6.782  0.5436  0.3222  0.4510
  170SOPE   H5Y19238   0.675   6.287   6.707 -1.3310  2.2073  1.6804
  170SOPE   C3619239   0.755   6.485   6.765 -0.4343  0.0665  1.0864
  170SOPE   H6X19240   0.677   6.542   6.709  0.3453 -0.6852 -0.8428
  170SOPE   H6Y19241   0.850   6.530   6.731  0.0538 -3.0982 -2.3847
  170SOPE   C3719242   0.734   6.475   6.914  0.4134 -1.0529 -0.1241
  170SOPE   H7X19243   0.717   6.576   6.958  1.9431 -0.6010 -0.5199
  170SOPE   H7Y19244   0.831   6.436   6.951  1.5542 -0.7182 -2.5977
  170SOPE   C3819245   0.624   6.378   6.960 -0.1101 -0.2008  0.1932
  170SOPE   H8X19246   0.663   6.278   6.988 -0.7662 -0.0592  1.6877
  170SOPE   H8Y19247   0.551   6.363   6.878 -2.5713 -0.6476  2.3499
  170SOPE   C3919248   0.542   6.439   7.075  0.2766 -0.6029 -0.0781
  170SOPE   H9X19249   0.460   6.367   7.096  0.4322 -1.1773 -1.3658
  170SOPE   H9Y19250   0.489   6.532   7.048 -0.4270 -0.9286  0.1375
  170SOPE  C31019251   0.630   6.474   7.192  1.4256 -0.2437  0.3257
  170SOPE  H10X19252   0.664   6.578   7.173 -1.4214  0.2692 -2.8698
  170SOPE  H10Y19253   0.713   6.399   7.186  0.2389 -1.6300  0.6662
  170SOPE  C31119254   0.553   6.467   7.322 -0.4443  0.0803 -0.5625
  170SOPE  H11X19255   0.497   6.372   7.328 -1.7557  0.7297 -1.9311
  170SOPE  H11Y19256   0.478   6.549   7.322  0.0921  0.5991  0.4518
  170SOPE  C31219257   0.654   6.474   7.443  0.3586  0.1974  0.0197
  170SOPE  H12X19258   0.596   6.513   7.529  4.4901  0.2024  3.0657
  170SOPE  H12Y19259   0.733   6.545   7.413 -0.0764  0.6511 -0.0669
  170SOPE  C31319260   0.725   6.339   7.479  0.1414 -0.1375 -0.8936
  170SOPE  H13X19261   0.808   6.325   7.407  0.7662  0.5947 -0.3370
  170SOPE  H13Y19262   0.655   6.254   7.465 -2.3046  1.9996 -2.5708
  170SOPE  C31419263   0.782   6.359   7.618  0.5726  0.6005  0.0128
  170SOPE  H14X19264   0.714   6.420   7.679 -0.6665 -1.2331  0.5552
  170SOPE  H14Y19265   0.880   6.411   7.609  1.2394 -0.9192 -3.9812
  170SOPE  C31519266   0.796   6.231   7.702 -0.2571  0.4602  0.0527
  170SOPE  H15X19267   0.854   6.148   7.656 -1.1970 -0.5048  0.5538
  170SOPE  H15Y19268   0.701   6.180   7.731  0.7247 -0.2476  2.1875
  170SOPE  C31619269   0.863   6.256   7.843  0.6240 -0.4309  0.1543
  170SOPE  H16X19270   0.813   6.341   7.895  0.8415 -0.7728  0.9431
  170SOPE  H16Y19271   0.968   6.286   7.819 -0.4550  1.4018 -2.7774
  170SOPE  C31719272   0.869   6.123   7.914 -0.0221 -0.7290  0.2358
  170SOPE  H17X19273   0.922   6.045   7.855  0.2998 -0.2906 -0.0582
  170SOPE  H17Y19274   0.773   6.086   7.955  0.0709 -2.2007 -0.7787
  170SOPE  C31819275   0.957   6.145   8.036  0.0037  0.2524  0.5740
  170SOPE  H18X19276   0.942   6.238   8.095 -0.3398 -0.1296  1.1048
  170SOPE  H18Y19277   1.064   6.140   8.007 -0.2254  2.0918 -0.7418
  170SOPE  H18Z19278   0.948   6.055   8.101  0.6118 -0.5669 -0.4287
  171SOPE     N19279   1.916   3.749   6.343  0.4439 -0.5640  0.3747
  171SOPE   HN119280   1.893   3.667   6.283 -0.4144  0.8701 -1.3753
  171SOPE   HN219281   2.017   3.760   6.367  1.4552 -1.6680 -2.8072
  171SOPE   HN319282   1.858   3.723   6.425  0.1966  0.6736  0.6142
  171SOPE   C1219283   1.863   3.866   6.263  0.2488 -0.2636  0.2048
  171SOPE  H12A19284   1.938   3.877   6.182  0.7368 -0.7249  0.5844
  171SOPE  H12B19285   1.876   3.959   6.323  0.1220 -1.3374  1.9640
  171SOPE   C1119286   1.716   3.841   6.215 -0.4539  0.5635  0.0487
  171SOPE  H11A19287   1.708   3.806   6.110 -1.2711 -3.4402  1.2522
  171SOPE  H11B19288   1.655   3.933   6.219 -3.2816 -1.1429 -0.7281
  171SOPE     P19289   1.514   3.759   6.383  0.1583  0.1925 -0.3277
  171SOPE   O1319290   1.402   3.735   6.289  0.3028 -0.0815 -0.3093
  171SOPE   O1419291   1.517   3.886   6.452 -0.7718  0.2074 -0.1238
  171SOPE   O1219292   1.651   3.739   6.300 -0.2163 -0.0376  0.0519
  171SOPE   O1119293   1.525   3.639   6.493  0.4818 -0.6464  0.4771
  171SOPE    C119294   1.408   3.580   6.550 -0.9042 -0.4544  0.3964
  171SOPE    HA19295   1.410   3.469   6.540  0.2766 -0.3924 -0.2442
  171SOPE    HB19296   1.319   3.615   6.492 -0.0872  1.5130  0.2632
  171SOPE    C219297   1.401   3.609   6.699  0.5686  0.0332 -0.1584
  171SOPE    HS19298   1.386   3.717   6.718  1.1631 -0.2246  1.9510
  171SOPE   O2119299   1.511   3.557   6.761 -0.4102  0.7882 -0.2055
  171SOPE   C2119300   1.603   3.644   6.809  0.8963 -0.5004  0.1802
  171SOPE   O2219301   1.593   3.769   6.791 -0.6302 -0.4958  0.0877
  171SOPE   C2219302   1.702   3.571   6.887 -0.5254  0.1289 -0.1897
  171SOPE   H2R19303   1.737   3.493   6.815  2.0417  0.5478  0.4948
  171SOPE   H2S19304   1.659   3.510   6.970 -2.5369  2.3735  0.5433
  171SOPE    C319305   1.272   3.542   6.750  0.3631  0.4864  0.0544
  171SOPE    HX19306   1.258   3.434   6.727  1.8856 -0.2021  2.0834
  171SOPE    HY19307   1.186   3.594   6.703 -0.5564  0.6464  1.8307
  171SOPE   O3119308   1.255   3.554   6.895  0.2244 -0.6361 -0.0395
  171SOPE   C3119309   1.328   3.467   6.973  0.4150 -0.0562  0.2631
  171SOPE   O3219310   1.389   3.369   6.926  0.2648  0.0600 -0.1683
  171SOPE   C3219311   1.308   3.490   7.118 -0.5265  0.3242 -0.4049
  171SOPE   H2X19312   1.201   3.480   7.142 -0.8241  2.1836 -0.7783
  171SOPE   H2Y19313   1.344   3.592   7.143  0.8354 -0.8161  2.8593
  171SOPE   C2319314   1.825   3.665   6.936  0.3619  0.3116 -0.6896
  171SOPE   H3R19315   1.777   3.765   6.933 -0.9128 -0.2434  0.1497
  171SOPE   H3S19316   1.905   3.660   6.859 -0.7439 -0.0914 -1.8573
  171SOPE   C2419317   1.883   3.636   7.072  0.7612  0.5026 -0.0247
  171SOPE   H4R19318   1.926   3.533   7.077 -0.1072  0.0539 -1.3052
  171SOPE   H4S19319   1.965   3.708   7.089 -0.8651  2.1583  1.2930
  171SOPE   C2519320   1.783   3.663   7.185 -0.1578  0.2941  0.1416
  171SOPE   H5R19321   1.733   3.757   7.153  0.7913  1.1617  1.1161
  171SOPE   H5S19322   1.712   3.579   7.201 -2.4243  1.9825 -0.4579
  171SOPE   C2619323   1.835   3.686   7.332  0.1022  0.9487 -0.5662
  171SOPE   H6R19324   1.873   3.590   7.373  0.6832  1.9997  1.4906
  171SOPE   H6S19325   1.923   3.754   7.322  0.6395  0.2743 -0.4535
  171SOPE   C2719326   1.726   3.732   7.425  0.0149  0.0191  0.3280
  171SOPE   H7R19327   1.702   3.829   7.376  1.6121  0.9514  1.3178
  171SOPE   H7S19328   1.638   3.665   7.418 -0.1891  0.1253  1.6176
  171SOPE   C2819329   1.771   3.752   7.567 -0.2724  0.2538  0.0520
  171SOPE   H8R19330   1.848   3.676   7.594  0.5357  1.8230  2.4979
  171SOPE   H8S19331   1.823   3.850   7.565 -3.9394  2.3753 -0.3800
  171SOPE   C2919332   1.667   3.770   7.674  0.3681 -0.1465 -0.0183
  171SOPE   H9119333   1.629   3.873   7.673 -1.1017 -0.6629 -0.5610
  171SOPE  C21019334   1.620   3.668   7.743  0.3855  0.5481  0.1730
  171SOPE  H10119335   1.554   3.700   7.825 -0.2070  1.7849 -0.7529
  171SOPE  C21119336   1.662   3.523   7.726 -0.0039 -0.5776 -0.1593
  171SOPE  H11R19337   1.771   3.511   7.744 -0.3528 -1.6583  1.5398
  171SOPE  H11S19338   1.624   3.493   7.626 -1.7980 -2.1641  0.9331
  171SOPE  C21219339   1.583   3.444   7.837  0.2068 -0.4767  0.1933
  171SOPE  H12R19340   1.598   3.335   7.818 -2.2922 -0.8480  0.0974
  171SOPE  H12S19341   1.475   3.467   7.828  0.0949 -0.7549  0.7945
  171SOPE  C21319342   1.633   3.472   7.980 -0.5789  0.3109 -0.1955
  171SOPE  H13R19343   1.639   3.576   8.021 -2.2452  0.3143  0.1370
  171SOPE  H13S19344   1.739   3.440   7.978 -0.1571  1.6886 -1.8112
  171SOPE  C21419345   1.551   3.395   8.081  0.2118 -0.8237 -0.2809
  171SOPE  H14R19346   1.551   3.284   8.081 -1.1377 -0.8394  0.4785
  171SOPE  H14S19347   1.444   3.424   8.083 -0.0920 -1.9241  1.2199
  171SOPE  C21519348   1.601   3.435   8.223 -0.2960  0.0830 -1.1172
  171SOPE  H15R19349   1.526   3.405   8.300  0.2522  3.0075  0.7191
  171SOPE  H15S19350   1.598   3.546   8.226 -3.3046  0.0856 -1.4256
  171SOPE  C21619351   1.736   3.374   8.264 -0.1264 -0.5246  0.8389
  171SOPE  H16R19352   1.817   3.407   8.196 -1.5971 -1.1602 -1.3165
  171SOPE  H16S19353   1.727   3.265   8.242  0.8966 -0.2340 -1.2196
  171SOPE  C21719354   1.774   3.393   8.415 -0.0958  0.0583 -0.0154
  171SOPE  H17R19355   1.698   3.339   8.475  0.4474  0.5334  1.1174
  171SOPE  H17S19356   1.754   3.498   8.442 -1.6402  0.4277 -2.2843
  171SOPE  C21819357   1.926   3.359   8.441 -0.0859 -0.2937  0.2694
  171SOPE  H18R19358   1.933   3.251   8.466 -0.9975  0.0960  2.4559
  171SOPE  H18S19359   1.956   3.414   8.532 -2.2326  1.5748 -0.0608
  171SOPE  H18T19360   1.986   3.388   8.352 -0.7766  0.4573  0.0361
  171SOPE   C3319361   1.401   3.384   7.190 -0.2579 -0.2549  1.2548
  171SOPE   H3X19362   1.505   3.377   7.150 -0.7025  1.1101 -0.2862
  171SOPE   H3Y19363   1.361   3.282   7.177 -0.8045  0.0582  0.3525
  171SOPE   C3419364   1.416   3.404   7.337  0.3956 -0.1235 -0.5833
  171SOPE   H4X19365   1.467   3.498   7.369  0.1308 -0.4458  0.8594
  171SOPE   H4Y19366   1.487   3.335   7.387  1.1783  1.7149  0.9680
  171SOPE   C3519367   1.282   3.403   7.415 -0.2870 -0.5258 -0.9351
  171SOPE   H5X19368   1.230   3.308   7.394 -0.1633 -0.2336 -2.7318
  171SOPE   H5Y19369   1.207   3.482   7.395 -0.0679  0.8760  2.8767
  171SOPE   C3619370   1.304   3.400   7.566  0.8040 -0.0684 -0.0202
  171SOPE   H6X19371   1.374   3.481   7.594  0.4272  0.1494  0.2978
  171SOPE   H6Y19372   1.352   3.302   7.589 -1.2777 -1.2445 -0.4206
  171SOPE   C3719373   1.172   3.416   7.645 -0.2091  0.9709 -0.1966
  171SOPE   H7X19374   1.098   3.347   7.599  0.8200  0.0939 -0.5811
  171SOPE   H7Y19375   1.138   3.519   7.621  0.2070  0.8878 -1.2278
  171SOPE   C3819376   1.173   3.415   7.792 -0.0453  0.0872 -0.4181
  171SOPE   H8X19377   1.080   3.459   7.834  0.0636 -0.5723  0.5516
  171SOPE   H8Y19378   1.270   3.461   7.822  0.4298 -1.9459  1.3845
  171SOPE   C3919379   1.174   3.275   7.848 -0.1877  0.9644 -0.0909
  171SOPE   H9X19380   1.270   3.231   7.814 -0.6112  1.1983 -1.6874
  171SOPE   H9Y19381   1.100   3.210   7.796  0.5094 -0.9315  1.1939
  171SOPE  C31019382   1.143   3.280   7.993 -0.3631 -0.1522  0.0731
  171SOPE  H10X19383   1.043   3.328   8.005  0.1278  0.6235  1.1325
  171SOPE  H10Y19384   1.207   3.356   8.041  2.2495 -3.4279  2.2422
  171SOPE  C31119385   1.141   3.153   8.077 -0.5840 -0.3437  0.5784
  171SOPE  H11X19386   1.240   3.104   8.069  0.1622  0.8556  1.9608
  171SOPE  H11Y19387   1.068   3.080   8.036  0.3111 -0.5665 -0.6781
  171SOPE  C31219388   1.106   3.181   8.225  0.8258 -0.2296  0.4575
  171SOPE  H12X19389   1.008   3.231   8.240  1.1651  1.2827 -1.9723
  171SOPE  H12Y19390   1.182   3.256   8.256 -0.3207  0.9013  0.5926
  171SOPE  C31319391   1.124   3.070   8.320 -0.3066 -0.1068 -0.2635
  171SOPE  H13X19392   1.224   3.029   8.293  0.4855  1.0591  0.7702
  171SOPE  H13Y19393   1.050   2.988   8.319 -1.0715  0.3682 -4.7301
  171SOPE  C31419394   1.138   3.103   8.473  0.9107  0.0623 -0.1623
  171SOPE  H14X19395   1.210   3.181   8.505 -1.2734  1.6050  1.2131
  171SOPE  H14Y19396   1.170   3.010   8.526  0.6529 -2.5274 -4.0891
  171SOPE  C31519397   1.009   3.149   8.544  0.3053  0.1472  0.0722
  171SOPE  H15X19398   0.922   3.082   8.529 -0.0908  0.8902 -1.0531
  171SOPE  H15Y19399   0.983   3.256   8.526 -0.0906  0.2586  1.1696
  171SOPE  C31619400   1.027   3.143   8.697  0.1702  0.1091  1.1579
  171SOPE  H16X19401   1.050   3.036   8.716 -1.0313 -0.3201  0.2755
  171SOPE  H16Y19402   0.929   3.168   8.743 -1.7769 -1.2299 -1.9431
  171SOPE  C31719403   1.134   3.223   8.759  0.4559 -0.9417  0.1279
  171SOPE  H17X19404   1.110   3.328   8.731  2.2499 -0.7934 -0.9380
  171SOPE  H17Y19405   1.234   3.208   8.714  1.4179 -0.8135  2.1136
  171SOPE  C31819406   1.133   3.209   8.916  0.3611 -0.5375 -0.1467
  171SOPE  H18X19407   1.207   3.284   8.951  0.3322  0.1642 -1.4986
  171SOPE  H18Y19408   1.161   3.109   8.954 -3.6152 -0.2281  4.5013
  171SOPE  H18Z19409   1.033   3.236   8.955  1.0711  1.6619  0.2961
  172SOPE     N19410   3.578   3.819   6.076  0.0849  0.2071 -0.2031
  172SOPE   HN119411   3.548   3.895   6.012  2.0625  0.1971 -1.2309
  172SOPE   HN219412   3.592   3.734   6.016  1.2210 -0.8023  1.4036
  172SOPE   HN319413   3.509   3.804   6.152 -0.6815  2.3686 -0.4191
  172SOPE   C1219414   3.715   3.859   6.133  0.9196  0.1243 -0.0708
  172SOPE  H12A19415   3.716   3.968   6.156 -2.4937 -0.1370  2.0199
  172SOPE  H12B19416   3.792   3.842   6.056  0.5894  0.9605 -0.5975
  172SOPE   C1119417   3.752   3.769   6.258 -0.1783  0.7006 -0.5149
  172SOPE  H11A19418   3.852   3.794   6.300 -0.5945  0.2501  0.8035
  172SOPE  H11B19419   3.754   3.666   6.218  4.4843 -0.7589  2.6999
  172SOPE     P19420   3.682   3.860   6.489  0.2273 -0.4812 -0.2804
  172SOPE   O1319421   3.564   3.866   6.574  0.4454 -0.1057 -0.5771
  172SOPE   O1419422   3.742   3.994   6.453 -0.0734 -0.5727  0.3735
  172SOPE   O1219423   3.649   3.776   6.358 -0.8696  0.1845 -0.2794
  172SOPE   O1119424   3.802   3.777   6.565 -0.1735  0.2449  0.4114
  172SOPE    C119425   3.761   3.645   6.607  0.2239 -0.3433  0.4814
  172SOPE    HA19426   3.834   3.570   6.569  1.5474  1.1345 -0.0624
  172SOPE    HB19427   3.665   3.619   6.559  0.6291  1.1675 -1.2860
  172SOPE    C219428   3.757   3.638   6.759  0.4211  0.2784 -0.0691
  172SOPE    HS19429   3.699   3.725   6.795  0.5000  0.2059  0.2302
  172SOPE   O2119430   3.894   3.637   6.814 -0.0572 -0.2405 -0.0031
  172SOPE   C2119431   3.933   3.753   6.851 -0.2580  0.4969 -0.9338
  172SOPE   O2219432   3.871   3.858   6.856  0.5965 -0.3386  0.3237
  172SOPE   C2219433   4.080   3.745   6.892 -0.8896  0.2331 -0.6958
  172SOPE   H2R19434   4.142   3.799   6.818 -1.0927  1.3910 -0.0355
  172SOPE   H2S19435   4.117   3.640   6.889  1.3777  0.9889 -1.0750
  172SOPE    C319436   3.688   3.504   6.813  0.2487 -0.2663 -0.9657
  172SOPE    HX19437   3.751   3.420   6.775 -3.7964 -4.2294  0.1409
  172SOPE    HY19438   3.591   3.480   6.764  0.0803 -0.2092 -0.6615
  172SOPE   O3119439   3.682   3.490   6.959  0.1442  0.5404 -1.3689
  172SOPE   C3119440   3.605   3.581   7.020 -0.1901  0.1441  1.4595
  172SOPE   O3219441   3.538   3.664   6.956  0.9867  0.3047 -0.3164
  172SOPE   C3219442   3.605   3.573   7.174  0.2638  0.1629 -0.7629
  172SOPE   H2X19443   3.693   3.507   7.184  0.5292  0.4995 -0.8663
  172SOPE   H2Y19444   3.512   3.527   7.213  0.4383  0.6381  0.2493
  172SOPE   C2319445   4.114   3.809   7.030 -0.4017 -0.5445  0.3481
  172SOPE   H3R19446   4.088   3.917   7.025 -0.0986 -0.5269 -1.9206
  172SOPE   H3S19447   4.224   3.808   7.039 -0.3553  1.1217  0.4382
  172SOPE   C2419448   4.035   3.741   7.142 -1.1101 -0.4563  0.4755
  172SOPE   H4R19449   3.927   3.733   7.121 -0.9792  0.2150 -0.5567
  172SOPE   H4S19450   4.068   3.635   7.148 -1.1246 -0.4342  0.9518
  172SOPE   C2519451   4.062   3.791   7.282  0.6334  0.2469  0.3115
  172SOPE   H5R19452   4.171   3.811   7.286  1.1285 -1.8318 -0.9512
  172SOPE   H5S19453   4.008   3.886   7.300 -0.5167 -0.6398  1.7888
  172SOPE   C2619454   4.024   3.708   7.401  0.4497 -0.3663 -0.3290
  172SOPE   H6R19455   3.915   3.688   7.410  0.4125 -1.1542 -2.2044
  172SOPE   H6S19456   4.088   3.617   7.396 -0.3893 -1.3600  3.5152
  172SOPE   C2719457   4.064   3.785   7.525  0.6965  0.0776 -0.7785
  172SOPE   H7R19458   4.166   3.828   7.509  0.6493  1.4018  1.9649
  172SOPE   H7S19459   3.989   3.867   7.528 -0.8363 -1.2329 -1.7500
  172SOPE   C2819460   4.062   3.706   7.656 -0.1840 -0.1025  0.0490
  172SOPE   H8R19461   3.958   3.669   7.672 -0.8584  1.5918 -0.1863
  172SOPE   H8S19462   4.125   3.616   7.666 -0.9352 -0.7973 -1.1928
  172SOPE   C2919463   4.091   3.808   7.768  0.0843  0.3149 -0.1364
  172SOPE   H9119464   4.192   3.850   7.768 -0.1982  1.0038 -0.0538
  172SOPE  C21019465   4.003   3.848   7.869  0.1060  0.4772  0.5021
  172SOPE  H10119466   4.047   3.914   7.946  0.9148  0.2813  0.2129
  172SOPE  C21119467   3.863   3.796   7.890  0.3773 -0.3879  0.1141
  172SOPE  H11R19468   3.832   3.708   7.830 -0.8169  0.2612 -0.2504
  172SOPE  H11S19469   3.795   3.880   7.864  1.5786  0.3838 -0.6441
  172SOPE  C21219470   3.824   3.760   8.036  0.3097 -0.0916 -0.3787
  172SOPE  H12R19471   3.884   3.668   8.052 -0.9753 -1.2008 -1.6777
  172SOPE  H12S19472   3.714   3.743   8.032  0.2442  0.3695 -0.5487
  172SOPE  C21319473   3.853   3.881   8.130 -0.0753  0.4470  0.2553
  172SOPE  H13R19474   3.782   3.961   8.101 -0.6334  0.0874  0.6226
  172SOPE  H13S19475   3.962   3.904   8.121 -0.0965  0.1200 -1.1556
  172SOPE  C21419476   3.824   3.850   8.273  0.0341  0.0402  0.8862
  172SOPE  H14R19477   3.718   3.820   8.284 -0.2850  1.0530  0.6265
  172SOPE  H14S19478   3.839   3.951   8.318  0.1514  0.0033  0.9316
  172SOPE  C21519479   3.918   3.758   8.352  0.0593  0.0377 -0.1693
  172SOPE  H15R19480   4.025   3.787   8.354  0.9838 -2.8815 -1.6484
  172SOPE  H15S19481   3.913   3.662   8.296  0.9819 -0.6012  0.8077
  172SOPE  C21619482   3.868   3.736   8.490  0.5543 -0.5731 -1.2014
  172SOPE  H16R19483   3.773   3.680   8.477 -0.0715 -0.2091  1.2970
  172SOPE  H16S19484   3.835   3.829   8.542  1.2724 -1.5708  1.1666
  172SOPE  C21719485   3.964   3.688   8.595 -0.6748 -0.0644  0.0791
  172SOPE  H17R19486   4.040   3.769   8.594 -0.0199 -0.5391 -3.3891
  172SOPE  H17S19487   3.995   3.586   8.563 -1.0443  0.1401 -0.9899
  172SOPE  C21819488   3.918   3.687   8.738 -0.1759  0.3613 -0.0294
  172SOPE  H18R19489   3.898   3.791   8.771 -0.7430  0.3138 -0.2092
  172SOPE  H18S19490   3.985   3.637   8.811  1.4314  0.3325 -1.4531
  172SOPE  H18T19491   3.822   3.631   8.740  0.5352 -0.9235 -0.7065
  172SOPE   C3319492   3.603   3.714   7.251  0.5123 -0.3112  0.3580
  172SOPE   H3X19493   3.526   3.782   7.209 -0.5368 -0.6584  1.6387
  172SOPE   H3Y19494   3.696   3.774   7.246 -1.5796  3.1514 -0.0999
  172SOPE   C3419495   3.562   3.687   7.398 -0.3496 -0.5646  0.1428
  172SOPE   H4X19496   3.656   3.629   7.411  0.5319  0.5343 -1.0378
  172SOPE   H4Y19497   3.477   3.618   7.412 -0.4863 -0.1492  1.4816
  172SOPE   C3519498   3.559   3.799   7.496  0.3715 -0.1842  0.0575
  172SOPE   H5X19499   3.478   3.870   7.469 -1.6628 -2.0957  0.8678
  172SOPE   H5Y19500   3.656   3.854   7.499  2.1624 -3.0623 -0.5607
  172SOPE   C3619501   3.530   3.759   7.640  0.1612 -0.2318 -0.5876
  172SOPE   H6X19502   3.618   3.719   7.696  0.9666 -0.2203 -1.7973
  172SOPE   H6Y19503   3.452   3.680   7.637  0.0401 -0.0779 -1.8662
  172SOPE   C3719504   3.482   3.874   7.728 -0.0494  0.1447  0.3870
  172SOPE   H7X19505   3.409   3.943   7.681  0.6903  0.8209  0.2112
  172SOPE   H7Y19506   3.565   3.945   7.749 -0.2535  0.2414  0.8925
  172SOPE   C3819507   3.426   3.823   7.868 -0.5622 -0.3527  0.4265
  172SOPE   H8X19508   3.493   3.747   7.914  0.7139 -0.4560 -1.5104
  172SOPE   H8Y19509   3.331   3.768   7.848  0.2841 -1.4380 -0.7181
  172SOPE   C3919510   3.398   3.935   7.966  0.0864 -0.7079 -0.5056
  172SOPE   H9X19511   3.332   4.001   7.906  1.9175 -0.4394 -2.3327
  172SOPE   H9Y19512   3.492   3.992   7.980 -1.1554  1.4959 -0.6306
  172SOPE  C31019513   3.323   3.894   8.093 -0.2280 -0.2106  0.1446
  172SOPE  H10X19514   3.388   3.841   8.166  0.2730  3.1939  2.4033
  172SOPE  H10Y19515   3.242   3.824   8.064 -0.0333  0.1653 -1.4250
  172SOPE  C31119516   3.250   4.004   8.168  0.6159 -0.1219  0.2074
  172SOPE  H11X19517   3.198   4.066   8.091 -2.6953 -1.4727  1.2041
  172SOPE  H11Y19518   3.335   4.064   8.207  0.6881  0.1417 -0.3331
  172SOPE  C31219519   3.149   3.961   8.270 -0.8352 -0.1645 -0.2036
  172SOPE  H12X19520   3.191   3.898   8.351  0.0438 -0.8579 -1.1761
  172SOPE  H12Y19521   3.069   3.897   8.225 -0.7036  0.2993 -1.1036
  172SOPE  C31319522   3.084   4.085   8.340 -1.2486 -0.2006 -0.3651
  172SOPE  H13X19523   3.014   4.129   8.265 -0.8056  0.9501 -0.1341
  172SOPE  H13Y19524   3.157   4.162   8.373 -0.5635 -0.4841 -1.1900
  172SOPE  C31419525   3.009   4.054   8.464  0.3256 -0.6092 -0.0902
  172SOPE  H14X19526   2.931   3.975   8.453  1.5670 -1.8617 -0.0652
  172SOPE  H14Y19527   2.945   4.143   8.483  1.6995  0.3570  0.1337
  172SOPE  C31519528   3.099   4.029   8.587 -0.2403  0.0018  0.1190
  172SOPE  H15X19529   3.178   4.107   8.581 -0.6617  0.3291 -1.8139
  172SOPE  H15Y19530   3.146   3.929   8.587 -2.3773 -1.0707  0.0585
  172SOPE  C31619531   3.023   4.045   8.722  0.0509 -0.2588  0.6139
  172SOPE  H16X19532   2.991   4.151   8.721 -0.8560 -0.5278 -0.5496
  172SOPE  H16Y19533   3.103   4.043   8.799  1.6726  0.9459 -0.9601
  172SOPE  C31719534   2.908   3.961   8.753  0.0758  0.2632  0.1232
  172SOPE  H17X19535   2.954   3.863   8.777  0.6613  0.9816  2.0833
  172SOPE  H17Y19536   2.836   3.941   8.671  0.2282 -1.0943  0.2911
  172SOPE  C31819537   2.843   4.024   8.876  0.9019  0.4346  1.0685
  172SOPE  H18X19538   2.789   4.117   8.846 -1.3248 -0.6364  1.5709
  172SOPE  H18Y19539   2.923   4.042   8.951  0.6807 -1.7190  1.8924
  172SOPE  H18Z19540   2.770   3.953   8.919  1.3917 -0.1056  1.0276
  173SAPI   C1219541   6.797   3.658  10.685  0.0296 -0.2557 -0.3249
  173SAPI    H219542   6.721   3.709  10.623 -2.5153 -1.3634  1.6719
  173SAPI    O219543   6.837   3.534  10.625 -0.1421  0.5379  0.2612
  173SAPI   HO219544   6.756   3.492  10.596  0.8649  0.5300 -2.9321
  173SAPI   C1319545   6.916   3.757  10.686 -0.9130 -0.2859 -0.2003
  173SAPI    H319546   6.867   3.854  10.709 -0.7609 -0.1326 -0.5178
  173SAPI    O319547   6.981   3.769  10.560  0.2237 -0.6664  0.2493
  173SAPI   HO319548   7.071   3.734  10.562 -0.0066 -1.3101 -0.1887
  173SAPI   C1419549   7.009   3.719  10.791  0.1415  0.7182  1.0981
  173SAPI    H419550   7.056   3.622  10.764  0.7214 -0.0002  4.1843
  173SAPI    O419551   7.113   3.816  10.792 -0.1844  0.2769 -0.1891
  173SAPI   HO419552   7.197   3.772  10.807 -0.9120 -0.8695  0.7377
  173SAPI   C1519553   6.945   3.709  10.924  0.8194  0.4366  0.4106
  173SAPI    H519554   6.906   3.811  10.942 -0.8943  0.9818 -4.7364
  173SAPI    O519555   7.035   3.678  11.031  0.5304  0.0644 -0.3949
  173SAPI   HO519556   6.986   3.634  11.100  0.5741 -0.3493 -0.6267
  173SAPI   C1619557   6.836   3.607  10.922  0.4054  0.1235  0.3152
  173SAPI    H619558   6.874   3.507  10.891  1.0106  0.1745  0.8599
  173SAPI    O619559   6.771   3.588  11.049 -0.1933  0.2996  0.2443
  173SAPI   HO619560   6.714   3.513  11.032 -3.6407  2.6193  0.4205
  173SAPI   C1119561   6.727   3.656  10.817  0.6153 -0.5702  0.0546
  173SAPI    H119562   6.686   3.754  10.849 -1.8401 -2.0030  1.6083
  173SAPI     P19563   6.465   3.601  10.750  0.0657  0.0994  0.1463
  173SAPI   O1319564   6.409   3.715  10.822  0.5889 -0.6589 -0.3074
  173SAPI   O1419565   6.403   3.470  10.753  0.4117  0.0252 -0.1604
  173SAPI   O1219566   6.616   3.567  10.813  0.1620  0.2404 -0.1584
  173SAPI   O1119567   6.489   3.641  10.599  0.2386 -0.2741 -0.4729
  173SAPI    C119568   6.397   3.634  10.490  0.8506  0.2324 -0.1106
  173SAPI    HA19569   6.300   3.683  10.515  1.0251  1.5062 -1.8261
  173SAPI    HB19570   6.447   3.680  10.403  3.9882 -1.3112  0.7328
  173SAPI    C219571   6.376   3.488  10.434 -0.3197  0.3528 -0.2385
  173SAPI    HS19572   6.389   3.422  10.522  0.4141 -1.2581 -1.5026
  173SAPI   O2119573   6.466   3.466  10.330  0.0576  0.1548 -1.0398
  173SAPI   C2119574   6.603   3.462  10.357  0.0651  0.3401  0.5400
  173SAPI   O2219575   6.656   3.438  10.464  0.0189 -0.3711 -0.3900
  173SAPI   C2219576   6.669   3.494  10.225  0.7343  0.8461  0.1115
  173SAPI   H2R19577   6.725   3.401  10.199  0.2689  0.2110  1.2942
  173SAPI   H2S19578   6.595   3.507  10.144  0.0533 -0.6319  0.4554
  173SAPI    C319579   6.241   3.460  10.377 -0.1293 -0.5644  0.1230
  173SAPI    HX19580   6.162   3.481  10.451 -0.2288  1.4088 -0.4582
  173SAPI    HY19581   6.237   3.351  10.361  0.7855 -0.5637 -0.2132
  173SAPI   O3119582   6.212   3.529  10.247 -0.4790  0.3291  0.3729
  173SAPI   C3119583   6.096   3.502  10.201 -0.3893 -0.0909  0.1307
  173SAPI   O3219584   6.019   3.427  10.256  0.5533 -0.6053 -0.4595
  173SAPI   C3219585   6.070   3.558  10.063  0.1449  0.3475 -0.2489
  173SAPI   H2X19586   6.129   3.508   9.983  2.9698  0.5477  1.5435
  173SAPI   H2Y19587   6.108   3.663  10.066  2.2744 -0.3648  2.5099
  173SAPI   C2319588   6.764   3.618  10.242  0.5845  0.6072  0.2995
  173SAPI   H3R19589   6.852   3.591  10.304  0.2089 -0.9138  0.2126
  173SAPI   H3S19590   6.715   3.693  10.309  2.2326  0.8406  1.2894
  173SAPI   C2419591   6.804   3.662  10.108 -0.8387  0.4964 -0.5136
  173SAPI   H4R19592   6.813   3.574  10.041 -1.4653  1.5291 -2.0135
  173SAPI   H4S19593   6.903   3.710  10.121  1.1741 -3.5166  0.6702
  173SAPI   C2519594   6.706   3.753  10.035 -0.1937 -0.5901  0.0022
  173SAPI   H5R19595   6.682   3.842  10.094  0.7182  0.3452 -0.9954
  173SAPI   C2619596   6.647   3.749   9.916 -0.4370  0.4970  0.2782
  173SAPI   H6R19597   6.603   3.840   9.874 -0.5412  0.2132 -0.2374
  173SAPI   C2719598   6.681   3.636   9.815  0.2237 -0.2536 -0.4850
  173SAPI   H7R19599   6.716   3.544   9.865  1.0754  0.7035  0.7310
  173SAPI   H7S19600   6.764   3.679   9.754  0.0231 -0.2203 -0.7373
  173SAPI   C2819601   6.571   3.587   9.731  0.5365 -0.2772  0.0551
  173SAPI   H8R19602   6.521   3.497   9.770  1.7288 -0.1774  1.8846
  173SAPI   C2919603   6.483   3.655   9.650 -0.2772  0.6937 -0.7105
  173SAPI   H9R19604   6.404   3.595   9.603 -0.7762  1.5357 -0.9572
  173SAPI  C21019605   6.476   3.804   9.633  0.2868  0.2011 -0.2072
  173SAPI  H10R19606   6.582   3.835   9.643  0.0356  0.4759  2.0861
  173SAPI  H10S19607   6.434   3.855   9.722 -3.8642 -1.7058 -0.8309
  173SAPI  C21119608   6.419   3.854   9.515 -0.4147  0.0445  0.7652
  173SAPI  H11R19609   6.419   3.790   9.426 -3.1756 -0.8106  1.2843
  173SAPI  C21219610   6.338   3.962   9.511 -0.0904 -0.3334 -0.1610
  173SAPI  H12R19611   6.305   3.988   9.409  2.0530  0.4038 -0.7270
  173SAPI  C21319612   6.303   4.054   9.628  0.4308 -0.1163  0.3621
  173SAPI  H13R19613   6.399   4.079   9.678  0.4044 -0.9512  0.8624
  173SAPI  H13S19614   6.243   3.995   9.701 -1.8719 -0.2858 -1.5683
  173SAPI  C21419615   6.228   4.180   9.594  0.3242  0.1269  0.3056
  173SAPI  H14R19616   6.273   4.249   9.521 -3.8079  2.9224  0.0761
  173SAPI  C21519617   6.103   4.220   9.639 -0.1613 -0.5662  0.3021
  173SAPI  H15R19618   6.075   4.324   9.615 -1.9949 -1.4718 -1.9829
  173SAPI  C21619619   6.010   4.150   9.731 -0.1736  0.0335  0.1142
  173SAPI  H16R19620   6.021   4.185   9.836 -0.3866  2.5796 -0.6558
  173SAPI  H16S19621   6.029   4.041   9.746 -0.6439  0.2380  2.6808
  173SAPI  C21719622   5.859   4.172   9.704  0.0369 -0.1888  0.2479
  173SAPI  H17R19623   5.815   4.124   9.795  1.9746 -0.3802  1.1275
  173SAPI  H17S19624   5.826   4.129   9.607  0.0649 -0.3798  0.3228
  173SAPI  C21819625   5.815   4.319   9.705  0.2492 -0.5024  0.7280
  173SAPI  H18R19626   5.716   4.327   9.657  1.7698  0.4635 -2.4781
  173SAPI  H18S19627   5.870   4.386   9.636 -2.1172  2.3094  1.3552
  173SAPI  C21919628   5.817   4.374   9.846 -0.0958 -0.2132  0.2243
  173SAPI  H19R19629   5.920   4.362   9.887 -0.0117  2.7538  1.1372
  173SAPI  H19S19630   5.744   4.332   9.918 -0.8634  0.7979  0.0716
  173SAPI  C22019631   5.789   4.525   9.837  0.3156  0.0856  0.1688
  173SAPI  H20R19632   5.685   4.540   9.801 -0.5278  1.8767  3.0361
  173SAPI  H20S19633   5.860   4.573   9.766  0.7303  1.3744  1.3977
  173SAPI  H20T19634   5.814   4.577   9.932  0.0416  0.0319  0.2711
  173SAPI   C3319635   5.929   3.585  10.016  0.4584 -0.3859  0.2823
  173SAPI   H3X19636   5.870   3.624  10.102 -1.3837 -0.8965 -0.6841
  173SAPI   H3Y19637   5.879   3.489   9.988  1.8342 -0.8067 -0.8055
  173SAPI   C3419638   5.918   3.687   9.905  0.6144  0.1113  0.4924
  173SAPI   H4X19639   5.953   3.789   9.934  2.7179 -0.3734 -0.1351
  173SAPI   H4Y19640   5.812   3.714   9.884  0.1960 -1.1605  0.8967
  173SAPI   C3519641   5.976   3.642   9.767  0.6715 -0.1925 -0.7314
  173SAPI   H5X19642   5.940   3.539   9.745  0.5978 -0.0819 -1.1342
  173SAPI   H5Y19643   6.087   3.640   9.767  0.6806 -1.4669 -1.5862
  173SAPI   C3619644   5.928   3.744   9.657  0.0880  0.4687 -0.5748
  173SAPI   H6X19645   5.958   3.843   9.698  0.7495 -0.2100  0.6192
  173SAPI   H6Y19646   5.820   3.743   9.633  0.4899  1.4573 -2.6563
  173SAPI   C3719647   6.000   3.707   9.532  0.1947 -0.2704  0.9175
  173SAPI   H7X19648   6.000   3.598   9.512  0.8032  0.1185 -1.5030
  173SAPI   H7Y19649   6.110   3.714   9.546  0.8099 -4.0772 -0.8814
  173SAPI   C3819650   5.954   3.786   9.405  0.5815 -0.1068 -0.5049
  173SAPI   H8X19651   5.947   3.891   9.438  2.5525  0.3691 -1.4725
  173SAPI   H8Y19652   5.849   3.754   9.383  0.3927 -0.5081  0.8875
  173SAPI   C3919653   6.052   3.766   9.294 -0.1540  0.5415 -0.4679
  173SAPI   H9X19654   6.071   3.657   9.284  0.0303  0.4385  0.8871
  173SAPI   H9Y19655   6.153   3.807   9.314  0.8286 -1.6904 -0.5294
  173SAPI  C31019656   6.003   3.825   9.160 -1.1364 -0.4658  0.4873
  173SAPI  H10X19657   5.893   3.822   9.146 -1.2856  1.4305  0.9637
  173SAPI  H10Y19658   6.049   3.770   9.075  1.4164  1.5784  0.4188
  173SAPI  C31119659   6.049   3.969   9.125 -0.9519 -0.2219  0.3433
  173SAPI  H11X19660   5.996   4.040   9.191 -0.8168  1.0871 -0.8884
  173SAPI  H11Y19661   6.009   4.008   9.029 -0.8581  2.4144  1.3048
  173SAPI  C31219662   6.203   3.990   9.111  0.6464  0.1993 -0.5081
  173SAPI  H12X19663   6.254   3.944   9.198 -0.1721 -1.2833 -0.7724
  173SAPI  H12Y19664   6.223   4.099   9.117  0.2959  0.3814 -2.0223
  173SAPI  C31319665   6.270   3.929   8.989  0.2752 -0.1605  0.0912
  173SAPI  H13X19666   6.239   3.978   8.894 -1.1002 -1.0783  0.0384
  173SAPI  H13Y19667   6.251   3.821   8.975  0.2581 -0.0496 -0.7809
  173SAPI  C31419668   6.418   3.938   8.999  0.2748  0.2533  0.3297
  173SAPI  H14X19669   6.452   3.878   9.086 -2.3587  0.2267  1.4534
  173SAPI  H14Y19670   6.449   4.042   9.019 -1.7885  0.7228  1.3208
  173SAPI  C31519671   6.495   3.876   8.874  0.0848 -0.2746 -0.4522
  173SAPI  H15X19672   6.455   3.904   8.774  1.6707 -0.8865 -1.2938
  173SAPI  H15Y19673   6.476   3.767   8.885 -3.2431  0.2268 -0.2783
  173SAPI  C31619674   6.645   3.904   8.883 -0.1402 -0.0396 -0.3019
  173SAPI  H16X19675   6.692   3.864   8.975  2.9282  1.4130 -1.1095
  173SAPI  H16Y19676   6.660   4.014   8.885  1.5295 -0.2387 -0.2711
  173SAPI  C31719677   6.708   3.831   8.766 -0.3441  0.8510  0.3780
  173SAPI  H17X19678   6.664   3.861   8.669  0.5425 -1.0993 -0.6912
  173SAPI  H17Y19679   6.695   3.720   8.768 -0.4945  0.8455 -0.5669
  173SAPI  C31819680   6.858   3.859   8.759  0.2546 -0.4308  0.2011
  173SAPI  H18X19681   6.859   3.959   8.711  1.8934 -1.0962 -1.2644
  173SAPI  H18Y19682   6.916   3.787   8.697 -1.5799 -1.4177 -0.4157
  173SAPI  H18Z19683   6.902   3.863   8.861 -0.9620  1.7343  0.7046
  174SAPI   C1219684   2.344   2.787  10.797  0.1335  0.2829 -0.4274
  174SAPI    H219685   2.311   2.803  10.902  1.0081  1.5686 -0.3265
  174SAPI    O219686   2.310   2.913  10.736 -0.5214  0.4514 -0.7385
  174SAPI   HO219687   2.215   2.921  10.748 -0.4863 -0.9192  0.8416
  174SAPI   C1319688   2.491   2.763  10.803 -0.5307 -0.1533 -0.6323
  174SAPI    H319689   2.522   2.668  10.852  2.9800  0.7532 -0.8328
  174SAPI    O319690   2.547   2.858  10.888  0.2915  0.1708 -0.0336
  174SAPI   HO319691   2.642   2.844  10.881  0.2055  0.1988 -1.5482
  174SAPI   C1419692   2.542   2.762  10.661  0.1981 -0.4369  1.1397
  174SAPI    H419693   2.533   2.867  10.625  0.7930 -0.1446  1.8279
  174SAPI    O419694   2.685   2.741  10.673 -0.4092  0.3722  0.0902
  174SAPI   HO419695   2.702   2.648  10.691  0.4924  0.3081 -0.9736
  174SAPI   C1519696   2.479   2.662  10.577  0.7689  0.5165 -0.4755
  174SAPI    H519697   2.504   2.563  10.619  1.6227  1.7213  2.0078
  174SAPI    O519698   2.514   2.675  10.432 -0.4189  0.9091  0.0959
  174SAPI   HO519699   2.570   2.606  10.395  0.4517  0.6858  1.7082
  174SAPI   C1619700   2.324   2.656  10.587  0.1994 -0.6454 -0.7169
  174SAPI    H619701   2.286   2.744  10.530  2.8084 -0.9069 -3.0815
  174SAPI    O619702   2.274   2.534  10.530 -0.4547  0.1677  0.0885
  174SAPI   HO619703   2.179   2.547  10.539 -0.4264  1.3526 -1.0758
  174SAPI   C1119704   2.283   2.668  10.737 -0.0897 -0.0246  0.3172
  174SAPI    H119705   2.323   2.584  10.797 -1.5654 -0.5236  0.6471
  174SAPI     P19706   2.054   2.539  10.799 -0.2580  0.2132  0.2179
  174SAPI   O1319707   1.939   2.576  10.881 -0.3015  0.5915 -0.0338
  174SAPI   O1419708   2.136   2.422  10.839 -0.0334  0.2329 -0.6130
  174SAPI   O1219709   2.146   2.673  10.765  0.5051 -0.0638 -0.8139
  174SAPI   O1119710   1.999   2.510  10.650  0.1681  0.0418  0.8198
  174SAPI    C119711   1.930   2.599  10.571  0.3666  0.5431 -0.3404
  174SAPI    HA19712   1.827   2.610  10.611 -0.1706  0.3991 -1.6352
  174SAPI    HB19713   1.974   2.701  10.579  2.2777 -0.3192  1.0163
  174SAPI    C219714   1.929   2.567  10.423  0.3318 -0.0961 -0.6387
  174SAPI    HS19715   1.907   2.459  10.409 -0.3319 -0.2775  1.4119
  174SAPI   O2119716   2.052   2.591  10.374  0.7413 -0.2665  0.5032
  174SAPI   C2119717   2.077   2.543  10.257 -0.7518  0.1577 -0.0261
  174SAPI   O2219718   2.034   2.441  10.207 -0.0883  0.0649  0.7411
  174SAPI   C2219719   2.188   2.630  10.198 -0.3563 -0.1665  0.5138
  174SAPI   H2R19720   2.152   2.735  10.194  0.1453  0.2634  4.2301
  174SAPI   H2S19721   2.268   2.625  10.274  0.3947  1.7244 -0.0877
  174SAPI    C319722   1.817   2.647  10.352 -0.0898 -0.1588  0.5893
  174SAPI    HX19723   1.837   2.756  10.344 -0.5287 -0.1392 -0.3700
  174SAPI    HY19724   1.721   2.640  10.408 -0.2583  0.7392  0.4240
  174SAPI   O3119725   1.797   2.605  10.214 -0.6742 -0.6623  0.0447
  174SAPI   C3119726   1.731   2.492  10.185  0.0843 -0.6730 -0.8302
  174SAPI   O3219727   1.669   2.427  10.267  0.4218 -0.6549  0.2186
  174SAPI   C3219728   1.747   2.456  10.042 -0.0829  0.5744  0.1590
  174SAPI   H2X19729   1.739   2.346  10.036  6.5804 -0.4656  2.0370
  174SAPI   H2Y19730   1.849   2.479  10.002 -0.1261  0.1937 -0.1785
  174SAPI   C2319731   2.250   2.575  10.064  0.5623 -0.0053  0.2806
  174SAPI   H3R19732   2.174   2.552   9.986  1.1188  2.5700 -1.1497
  174SAPI   H3S19733   2.306   2.481  10.083  1.1821 -0.1512 -1.9653
  174SAPI   C2419734   2.343   2.675   9.981  0.3928  0.2705  0.0140
  174SAPI   H4R19735   2.295   2.773   9.960  1.7750  0.9057 -0.2487
  174SAPI   H4S19736   2.362   2.620   9.886 -0.6143 -0.1389  0.0362
  174SAPI   C2519737   2.476   2.695  10.043  0.0405 -0.5139 -0.2383
  174SAPI   H5R19738   2.502   2.627  10.125  2.8706  0.1830 -0.4557
  174SAPI   C2619739   2.565   2.785  10.005  0.1197 -1.0623  0.3814
  174SAPI   H6R19740   2.666   2.783  10.049  0.6729  1.8973 -0.5740
  174SAPI   C2719741   2.553   2.878   9.887  0.3539  0.0384  0.5149
  174SAPI   H7R19742   2.508   2.819   9.805  5.1329 -1.0950 -1.6293
  174SAPI   H7S19743   2.655   2.893   9.846  0.7641  0.4910  1.6612
  174SAPI   C2819744   2.484   3.010   9.919  0.3433 -0.1688  0.2651
  174SAPI   H8R19745   2.502   3.054  10.017  1.8212 -1.1121  0.4389
  174SAPI   C2919746   2.394   3.079   9.845  0.5164 -0.0575  0.3170
  174SAPI   H9R19747   2.346   3.171   9.881  1.7011  0.0619  1.6487
  174SAPI  C21019748   2.341   3.030   9.705 -0.4155 -0.2344 -0.1012
  174SAPI  H10R19749   2.413   2.967   9.649  0.2381 -1.4515  2.0062
  174SAPI  H10S19750   2.313   3.124   9.652  0.0191  0.7527  1.3661
  174SAPI  C21119751   2.219   2.946   9.723  0.5227 -0.2060  0.1271
  174SAPI  H11R19752   2.218   2.865   9.798 -1.3973 -0.5790 -0.2470
  174SAPI  C21219753   2.097   2.955   9.662 -0.5420  0.2425  0.0432
  174SAPI  H12R19754   2.013   2.888   9.686  0.8179 -1.2511  0.8317
  174SAPI  C21319755   2.077   3.057   9.548  0.8793  0.5015 -0.3972
  174SAPI  H13R19756   2.171   3.067   9.489  0.0684  1.4268 -1.5903
  174SAPI  H13S19757   2.058   3.154   9.599  0.2557 -0.7379  1.8517
  174SAPI  C21419758   1.957   3.027   9.462 -0.0486 -0.7063  0.2801
  174SAPI  H14R19759   1.868   3.007   9.524  1.1758  0.9001  2.7521
  174SAPI  C21519760   1.942   3.048   9.329 -0.7085  0.0855  0.6764
  174SAPI  H15R19761   1.847   3.029   9.277  0.7607 -1.1197 -1.7760
  174SAPI  C21619762   2.050   3.097   9.240  0.4494 -0.6945 -0.1050
  174SAPI  H16R19763   2.142   3.107   9.302 -0.3374 -0.5717  1.0820
  174SAPI  H16S19764   2.013   3.201   9.224  1.4719 -0.0731  1.3264
  174SAPI  C21719765   2.073   3.027   9.110  0.0940 -0.0024  0.8658
  174SAPI  H17R19766   2.125   2.932   9.133  1.3561 -0.1151 -2.0253
  174SAPI  H17S19767   2.153   3.078   9.052 -0.4887 -1.7443 -1.6341
  174SAPI  C21819768   1.947   3.017   9.029 -0.9892  0.4616  0.8316
  174SAPI  H18R19769   1.914   3.119   9.002  0.0177  0.3267 -1.1047
  174SAPI  H18S19770   1.875   2.951   9.082  0.4689 -0.8677  1.2386
  174SAPI  C21919771   1.985   2.956   8.895  0.2558  0.9895  0.3994
  174SAPI  H19R19772   2.027   2.853   8.903  0.2107  0.7045 -2.1293
  174SAPI  H19S19773   2.064   3.015   8.843 -0.7841  2.0393 -0.0260
  174SAPI  C22019774   1.867   2.962   8.792  0.6759 -0.5077 -0.9534
  174SAPI  H20R19775   1.777   2.908   8.828 -0.3053  1.0421 -0.9910
  174SAPI  H20S19776   1.893   2.935   8.687  1.4733 -2.5016 -0.2901
  174SAPI  H20T19777   1.828   3.065   8.775  1.8758  0.1492  0.0737
  174SAPI   C3319778   1.646   2.533   9.951  0.0537 -0.0227 -0.5711
  174SAPI   H3X19779   1.671   2.639   9.972 -1.5780 -0.1570  2.6749
  174SAPI   H3Y19780   1.544   2.540   9.994 -0.3075 -0.4158 -1.3607
  174SAPI   C3419781   1.652   2.498   9.806 -0.4296 -0.4112  0.1695
  174SAPI   H4X19782   1.572   2.554   9.752  0.7493  1.9980  0.7650
  174SAPI   H4Y19783   1.623   2.391   9.799  2.3748 -1.3804  2.1034
  174SAPI   C3519784   1.778   2.533   9.730  0.0941 -0.4670  0.7197
  174SAPI   H5X19785   1.857   2.456   9.745 -0.4523 -1.3345 -0.6837
  174SAPI   H5Y19786   1.814   2.633   9.764  4.2359 -1.6810  0.5323
  174SAPI   C3619787   1.763   2.542   9.580  0.4911  0.0252  1.3079
  174SAPI   H6X19788   1.710   2.628   9.535  2.0037 -0.0520 -0.7614
  174SAPI   H6Y19789   1.711   2.450   9.544  0.2410  1.2364 -1.6893
  174SAPI   C3719790   1.892   2.559   9.501  0.4540 -0.3030  0.5297
  174SAPI   H7X19791   1.965   2.496   9.556 -1.5946 -2.8055  0.6042
  174SAPI   H7Y19792   1.918   2.666   9.514 -0.4252 -0.1605  1.2322
  174SAPI   C3819793   1.881   2.537   9.347 -0.2664  0.9349 -0.6869
  174SAPI   H8X19794   1.804   2.599   9.296 -0.5513 -0.5537 -2.1410
  174SAPI   H8Y19795   1.868   2.430   9.321 -0.6564 -0.0483  2.9949
  174SAPI   C3919796   2.012   2.576   9.277 -0.1020  0.3017 -0.5068
  174SAPI   H9X19797   2.081   2.520   9.344 -1.8353 -2.0793 -0.5932
  174SAPI   H9Y19798   2.030   2.685   9.289  0.3236 -0.0848  4.3992
  174SAPI  C31019799   2.010   2.525   9.128 -0.0289  0.8955  0.1144
  174SAPI  H10X19800   1.979   2.419   9.135 -2.6794  1.6194  0.4503
  174SAPI  H10Y19801   2.112   2.542   9.089 -0.0932  1.3604  0.1477
  174SAPI  C31119802   1.909   2.581   9.030 -0.2035 -0.5084 -0.1200
  174SAPI  H11X19803   1.943   2.685   9.013 -0.9708  1.0807  5.8517
  174SAPI  H11Y19804   1.816   2.592   9.090 -0.6590  1.5170 -1.1277
  174SAPI  C31219805   1.877   2.508   8.898 -0.0980  0.3806  0.6081
  174SAPI  H12X19806   1.853   2.404   8.928  1.8439  0.1059  1.3818
  174SAPI  H12Y19807   1.966   2.501   8.832  0.2039 -0.1390  1.0650
  174SAPI  C31319808   1.766   2.576   8.815  0.2894  0.4808  0.5192
  174SAPI  H13X19809   1.809   2.670   8.773 -0.4799 -0.3198 -2.3231
  174SAPI  H13Y19810   1.688   2.609   8.887  0.6631  1.7252  0.3858
  174SAPI  C31419811   1.704   2.493   8.695 -0.8083 -0.6657  0.4650
  174SAPI  H14X19812   1.604   2.535   8.672 -0.0361  1.1294  0.1874
  174SAPI  H14Y19813   1.685   2.387   8.722 -1.6575 -0.2360  1.6040
  174SAPI  C31519814   1.805   2.497   8.581  0.3421  0.1971 -0.1733
  174SAPI  H15X19815   1.906   2.472   8.622 -0.4128 -0.7739  1.1657
  174SAPI  H15Y19816   1.811   2.600   8.540 -0.8958  0.8185  1.1332
  174SAPI  C31619817   1.777   2.395   8.477 -0.1240  0.1848  0.4480
  174SAPI  H16X19818   1.671   2.392   8.443  0.8355 -2.2169 -2.9580
  174SAPI  H16Y19819   1.791   2.291   8.514 -1.5387 -0.4600 -0.7269
  174SAPI  C31719820   1.865   2.414   8.350 -0.7311  0.9919  0.3659
  174SAPI  H17X19821   1.966   2.431   8.391  0.0413 -1.4762 -0.3824
  174SAPI  H17Y19822   1.826   2.500   8.290 -1.1919  0.6399  0.1529
  174SAPI  C31819823   1.862   2.291   8.262  0.0833 -0.5688  0.7396
  174SAPI  H18X19824   1.902   2.202   8.315 -1.0287 -0.8701  1.0864
  174SAPI  H18Y19825   1.914   2.307   8.165 -1.6163  2.2938  0.1731
  174SAPI  H18Z19826   1.756   2.271   8.237  0.4396 -0.3194 -1.1507
  175SAPI   C1219827   3.702   1.882   6.471  0.6915  0.3369 -0.1835
  175SAPI    H219828   3.628   1.847   6.547  0.8692  0.0633 -0.1362
  175SAPI    O219829   3.744   2.018   6.507 -0.0805 -0.2706  0.4931
  175SAPI   HO219830   3.690   2.078   6.455 -0.3901 -1.1547 -0.2233
  175SAPI   C1319831   3.809   1.783   6.462 -0.2770  0.4048  0.6006
  175SAPI    H319832   3.763   1.683   6.443  1.3000  0.0278 -1.7565
  175SAPI    O319833   3.880   1.771   6.586  0.6211 -0.2902  0.3288
  175SAPI   HO319834   3.881   1.854   6.635 -0.1782  0.7076 -1.2560
  175SAPI   C1419835   3.902   1.814   6.343 -0.0154 -0.1620  0.0171
  175SAPI    H419836   3.949   1.912   6.363 -0.7035  0.1166  0.2744
  175SAPI    O419837   4.016   1.721   6.343 -0.4033 -0.3847 -0.0471
  175SAPI   HO419838   4.047   1.720   6.434 -2.2552 -0.5790  0.6368
  175SAPI   C1519839   3.828   1.830   6.213  0.2246 -0.2411  0.9322
  175SAPI    H519840   3.783   1.733   6.185 -0.6712  0.5131 -0.3322
  175SAPI    O519841   3.919   1.863   6.106  0.1655 -0.1616  0.1394
  175SAPI   HO519842   3.963   1.947   6.124 -0.4009  0.2026 -0.1451
  175SAPI   C1619843   3.705   1.926   6.228 -0.2245  0.1606 -0.3834
  175SAPI    H619844   3.770   2.013   6.252  3.8803 -2.9488  1.0224
  175SAPI    O619845   3.634   1.950   6.106 -0.1681 -0.8273 -0.3918
  175SAPI   HO619846   3.560   1.889   6.102  0.5950 -1.8639  0.6412
  175SAPI   C1119847   3.617   1.880   6.344 -0.5528 -0.5151  0.0381
  175SAPI    H119848   3.583   1.776   6.321 -2.9345  0.7834 -3.0807
  175SAPI     P19849   3.357   1.900   6.399 -0.2736  0.8732 -0.4269
  175SAPI   O1319850   3.330   1.784   6.310  0.3046  0.3068 -0.1032
  175SAPI   O1419851   3.258   2.008   6.382 -0.1768 -0.3021 -0.3136
  175SAPI   O1219852   3.500   1.961   6.352  0.1452  0.0136 -0.2686
  175SAPI   O1119853   3.379   1.852   6.552  1.1096 -0.1732  0.3786
  175SAPI    C119854   3.264   1.824   6.634 -0.4602 -0.1334  0.5290
  175SAPI    HA19855   3.191   1.908   6.639 -0.2405 -0.0163  2.6266
  175SAPI    HB19856   3.222   1.729   6.596 -0.5873  0.3143 -0.4952
  175SAPI    C219857   3.317   1.795   6.774 -0.4639 -0.0131 -0.4037
  175SAPI    HS19858   3.365   1.882   6.825  1.5198 -0.6442 -1.1111
  175SAPI   O2119859   3.390   1.668   6.779 -0.4306 -0.7296 -0.3181
  175SAPI   C2119860   3.526   1.692   6.783 -0.0560  0.4270 -0.7654
  175SAPI   O2219861   3.585   1.797   6.791  0.8182  0.3850 -0.4755
  175SAPI   C2219862   3.589   1.558   6.814  0.7604  0.3088 -0.0840
  175SAPI   H2R19863   3.519   1.488   6.764 -0.8231  2.6191 -1.3147
  175SAPI   H2S19864   3.678   1.556   6.748  1.8746 -3.1967  1.3151
  175SAPI    C319865   3.196   1.754   6.863 -0.2650 -0.0366  0.5591
  175SAPI    HX19866   3.153   1.656   6.833  3.9495 -1.6373 -0.9875
  175SAPI    HY19867   3.115   1.830   6.855  0.7809  1.6129  3.8957
  175SAPI   O3119868   3.237   1.742   7.002 -0.3133  0.1908 -0.7024
  175SAPI   C3119869   3.192   1.843   7.085  0.3070  0.0955 -0.5233
  175SAPI   O3219870   3.149   1.948   7.048 -0.3451 -0.8928  0.2743
  175SAPI   C3219871   3.240   1.817   7.218  1.0401 -0.1271 -0.6699
  175SAPI   H2X19872   3.237   1.709   7.242  2.5636 -0.1035 -0.2902
  175SAPI   H2Y19873   3.195   1.877   7.300  0.2153  0.2920 -1.4209
  175SAPI   C2319874   3.633   1.518   6.956 -0.4090 -0.2548 -0.1376
  175SAPI   H3R19875   3.704   1.595   6.992 -0.7745  0.2198 -0.4217
  175SAPI   H3S19876   3.683   1.419   6.963 -0.1433 -0.0318  1.6145
  175SAPI   C2419877   3.515   1.512   7.050  0.9084 -0.2776 -0.1173
  175SAPI   H4R19878   3.478   1.616   7.060 -0.3241 -0.6497 -0.5877
  175SAPI   H4S19879   3.545   1.484   7.153  1.5762  0.5400 -0.0773
  175SAPI   C2519880   3.399   1.431   6.993 -0.8097 -0.2332  0.1728
  175SAPI   H5R19881   3.341   1.491   6.921  0.6234  1.5733  0.4546
  175SAPI   C2619882   3.346   1.316   7.036 -0.0415  0.3232 -0.4536
  175SAPI   H6R19883   3.256   1.271   6.993 -0.1867 -0.7692  0.9367
  175SAPI   C2719884   3.393   1.237   7.157 -0.0397 -0.4909 -0.5599
  175SAPI   H7R19885   3.504   1.229   7.153  0.0482  0.8271 -1.1297
  175SAPI   H7S19886   3.356   1.132   7.164 -1.9266  0.2420  1.5226
  175SAPI   C2819887   3.361   1.298   7.290  0.0216 -0.1302 -0.2627
  175SAPI   H8R19888   3.255   1.326   7.303 -0.2005 -1.1213  0.1275
  175SAPI   C2919889   3.448   1.318   7.392 -0.1593  0.9893  0.1710
  175SAPI   H9R19890   3.417   1.381   7.477 -1.1861 -2.6682  2.7398
  175SAPI  C21019891   3.591   1.283   7.402  0.7152 -0.0915 -0.3650
  175SAPI  H10R19892   3.645   1.347   7.329 -0.1715 -1.8362 -2.6764
  175SAPI  H10S19893   3.607   1.175   7.381  1.1604 -0.8611  3.2810
  175SAPI  C21119894   3.638   1.300   7.539  0.7590 -0.2996 -0.3763
  175SAPI  H11R19895   3.700   1.389   7.552  1.8748 -1.2868  1.5309
  175SAPI  C21219896   3.604   1.223   7.646  0.2167 -0.2854 -0.3806
  175SAPI  H12R19897   3.654   1.245   7.742  0.5558  2.2543 -1.0610
  175SAPI  C21319898   3.523   1.092   7.646  0.3849 -0.0678  0.0360
  175SAPI  H13R19899   3.446   1.094   7.566 -1.3869  0.1283  1.6747
  175SAPI  H13S19900   3.461   1.085   7.738 -0.3661  1.3535 -0.3336
  175SAPI  C21419901   3.611   0.969   7.637  0.1236 -0.4541 -0.6537
  175SAPI  H14R19902   3.645   0.921   7.545 -1.0523  0.7870 -1.8004
  175SAPI  C21519903   3.654   0.912   7.745  0.4292  0.3965 -1.1181
  175SAPI  H15R19904   3.695   0.809   7.741  1.0780  0.4842  1.4464
  175SAPI  C21619905   3.628   0.958   7.891 -0.8802  0.7399  0.1401
  175SAPI  H16R19906   3.575   1.055   7.906 -2.1526  0.0486  0.2901
  175SAPI  H16S19907   3.730   0.968   7.933  0.3105 -1.1238 -2.0775
  175SAPI  C21719908   3.543   0.861   7.980 -0.3350  0.3894  1.0011
  175SAPI  H17R19909   3.578   0.756   7.971  0.2593  0.5396  1.4785
  175SAPI  H17S19910   3.447   0.861   7.925 -0.1538 -0.7793  0.6664
  175SAPI  C21819911   3.513   0.925   8.115  0.2497 -0.5483 -0.1818
  175SAPI  H18R19912   3.458   1.020   8.099  2.4581  1.1288  1.4533
  175SAPI  H18S19913   3.615   0.935   8.158  1.4218  0.1218 -2.8895
  175SAPI  C21919914   3.425   0.833   8.198 -0.3747 -0.3433  0.5896
  175SAPI  H19R19915   3.339   0.798   8.136 -0.3935  0.1752  0.3215
  175SAPI  H19S19916   3.385   0.878   8.291  0.6280 -3.2979  2.5988
  175SAPI  C22019917   3.502   0.702   8.240 -0.3413  0.1020 -0.9214
  175SAPI  H20R19918   3.428   0.626   8.274  2.3441 -1.8567  1.0231
  175SAPI  H20S19919   3.564   0.725   8.330 -0.0105 -1.7342 -0.6412
  175SAPI  H20T19920   3.568   0.652   8.167 -1.0063 -1.8451 -0.2431
  175SAPI   C3319921   3.388   1.861   7.227  0.3754  0.3443 -0.3507
  175SAPI   H3X19922   3.394   1.967   7.259  0.5933  1.0849 -2.6497
  175SAPI   H3Y19923   3.445   1.842   7.133  1.3901  3.0336 -0.3896
  175SAPI   C3419924   3.463   1.785   7.345  0.0765  0.3506  1.0705
  175SAPI   H4X19925   3.556   1.843   7.360 -0.2546  0.7852  1.4921
  175SAPI   H4Y19926   3.494   1.682   7.316  0.2564  1.1957 -2.0423
  175SAPI   C3519927   3.392   1.763   7.476 -0.2183 -0.4522 -0.2299
  175SAPI   H5X19928   3.296   1.708   7.465 -0.3579 -1.3814  3.8772
  175SAPI   H5Y19929   3.359   1.860   7.519  1.5020  0.0276  0.0740
  175SAPI   C3619930   3.479   1.683   7.584  0.9304 -0.2381 -0.0802
  175SAPI   H6X19931   3.489   1.579   7.548  0.8204  0.0491 -0.9509
  175SAPI   H6Y19932   3.415   1.683   7.675 -1.3650 -0.7205 -1.6229
  175SAPI   C3719933   3.621   1.734   7.605  0.4439 -0.0769  0.3335
  175SAPI   H7X19934   3.622   1.829   7.663  1.0211  0.0449  0.1385
  175SAPI   H7Y19935   3.675   1.747   7.508 -0.5549 -3.5923 -0.8345
  175SAPI   C3819936   3.701   1.636   7.695 -0.0140 -0.2489  0.0136
  175SAPI   H8X19937   3.776   1.587   7.629 -0.8301  0.9613 -1.9117
  175SAPI   H8Y19938   3.647   1.554   7.747 -0.4289  1.5559  2.6459
  175SAPI   C3919939   3.766   1.720   7.819 -0.4510  0.5065 -0.0229
  175SAPI   H9X19940   3.692   1.768   7.887  0.9144  2.2165  0.3329
  175SAPI   H9Y19941   3.798   1.816   7.772 -4.1217  2.0480  0.2222
  175SAPI  C31019942   3.877   1.649   7.893  0.1172 -0.4257  0.5684
  175SAPI  H10X19943   3.967   1.618   7.835 -1.5410 -1.4557 -1.6050
  175SAPI  H10Y19944   3.836   1.553   7.929  0.8343 -1.2506 -0.7182
  175SAPI  C31119945   3.922   1.722   8.019 -0.3742  0.4580 -0.0406
  175SAPI  H11X19946   4.004   1.665   8.068  1.4735  4.3525  1.9134
  175SAPI  H11Y19947   3.839   1.728   8.092 -0.7922  3.0235 -0.6362
  175SAPI  C31219948   3.988   1.856   7.994  0.6079 -0.1277  0.4324
  175SAPI  H12X19949   3.913   1.917   7.938  0.6148 -1.4693 -1.1213
  175SAPI  H12Y19950   4.065   1.834   7.916 -0.7427 -2.5605 -0.3264
  175SAPI  C31319951   4.062   1.928   8.113 -0.4887  0.7559  0.3822
  175SAPI  H13X19952   4.140   2.001   8.082  0.4662 -0.9287 -1.4439
  175SAPI  H13Y19953   4.124   1.851   8.163 -0.1260  1.1612  0.5642
  175SAPI  C31419954   3.961   2.007   8.200  0.0305  0.2001 -0.3704
  175SAPI  H14X19955   3.871   1.945   8.219  0.2466  0.3102  1.2139
  175SAPI  H14Y19956   3.922   2.088   8.134 -2.5052 -2.0603 -1.8601
  175SAPI  C31519957   4.011   2.062   8.329  0.2317 -0.3194 -1.0213
  175SAPI  H15X19958   3.936   2.120   8.387  0.5565 -1.3662  0.4974
  175SAPI  H15Y19959   4.099   2.129   8.316 -0.5659  0.5829 -1.9180
  175SAPI  C31619960   4.057   1.946   8.422  0.1092 -0.6594  0.0469
  175SAPI  H16X19961   4.164   1.932   8.396  0.2481 -0.6980  0.6170
  175SAPI  H16Y19962   3.996   1.854   8.406 -1.4248 -0.2113  2.6422
  175SAPI  C31719963   4.060   1.981   8.572 -0.3422 -0.4083 -0.6613
  175SAPI  H17X19964   4.090   1.885   8.621  1.5392  0.5977  0.2907
  175SAPI  H17Y19965   3.959   2.007   8.608 -0.2663 -0.5210 -0.3606
  175SAPI  C31819966   4.159   2.092   8.611 -0.4479 -0.6897 -0.3610
  175SAPI  H18X19967   4.142   2.184   8.552  1.2311  0.0911  0.2884
  175SAPI  H18Y19968   4.263   2.058   8.590 -0.9616 -1.8341 -1.1172
  175SAPI  H18Z19969   4.143   2.123   8.717  2.3907 -1.0419  0.2697
  176SAPI   C1219970   3.682   5.680   6.269 -0.4552  0.2164 -0.1888
  176SAPI    H219971   3.675   5.654   6.376 -0.6233  0.3077 -0.1786
  176SAPI    O219972   3.806   5.734   6.237  0.1420  0.1087  0.3978
  176SAPI   HO219973   3.795   5.829   6.249  2.4000  0.2508  2.0243
  176SAPI   C1319974   3.657   5.546   6.191 -0.8684  0.1925 -0.6364
  176SAPI    H319975   3.549   5.522   6.199 -0.8231  0.4667  1.2072
  176SAPI    O319976   3.726   5.426   6.237 -0.7815 -0.4749  0.7615
  176SAPI   HO319977   3.818   5.454   6.240 -0.8751 -0.0038 -0.4137
  176SAPI   C1419978   3.682   5.573   6.045 -0.5357 -0.3128  0.3559
  176SAPI    H419979   3.787   5.610   6.040 -0.8849  0.4949 -1.4592
  176SAPI    O419980   3.676   5.465   5.951 -0.2063 -0.0586 -0.0727
  176SAPI   HO419981   3.755   5.409   5.949 -1.4527 -2.1564  2.6283
  176SAPI   C1519982   3.585   5.681   5.994  0.1557 -0.2890 -0.2704
  176SAPI    H519983   3.483   5.637   5.993  0.3148 -0.6754  0.3739
  176SAPI    O519984   3.612   5.711   5.859  0.0570  0.2503  0.3991
  176SAPI   HO519985   3.561   5.793   5.853 -0.6496  0.1208  3.1487
  176SAPI   C1619986   3.592   5.811   6.081 -0.0145  0.0322  0.2328
  176SAPI    H619987   3.689   5.862   6.064 -0.5468  0.7648 -0.7095
  176SAPI    O619988   3.494   5.908   6.045 -0.4020 -0.5638 -0.3474
  176SAPI   HO619989   3.469   5.956   6.124  2.1182  1.5276 -0.6793
  176SAPI   C1119990   3.580   5.773   6.230  0.4007 -0.2053  1.2098
  176SAPI    H119991   3.483   5.726   6.256  0.6182 -0.0229  2.3852
  176SAPI     P19992   3.558   5.922   6.458 -0.1681  0.1075  0.0200
  176SAPI   O1319993   3.631   6.050   6.500 -0.3197  0.5285  0.8199
  176SAPI   O1419994   3.591   5.799   6.537 -0.6950 -0.0806  0.2335
  176SAPI   O1219995   3.594   5.895   6.303  0.4568 -0.2075  0.3192
  176SAPI   O1119996   3.398   5.938   6.448 -0.3733 -0.4910  0.1673
  176SAPI    C119997   3.334   6.027   6.537  0.2926 -0.8263 -0.3501
  176SAPI    HA19998   3.372   6.130   6.519  0.8460 -1.0380 -0.4249
  176SAPI    HB19999   3.227   6.021   6.508  0.2844  0.2156 -0.5583
  176SAPI    C220000   3.350   6.008   6.683  0.5377  0.5921  0.4438
  176SAPI    HS20001   3.454   6.037   6.707  0.2089  1.3659  0.9730
  176SAPI   O2120002   3.318   5.864   6.705  0.4014 -0.8686  0.3652
  176SAPI   C2120003   3.387   5.816   6.800  0.2876  0.4532  0.3485
  176SAPI   O2220004   3.478   5.869   6.865  0.0519  0.2195 -0.8236
  176SAPI   C2220005   3.330   5.676   6.832  0.2297  0.4355 -0.6720
  176SAPI   H2R20006   3.371   5.601   6.761 -1.7616 -0.1298 -1.3039
  176SAPI   H2S20007   3.377   5.638   6.925 -0.7170  0.5412 -0.1315
  176SAPI    C320008   3.252   6.099   6.767 -0.7086  0.5646  0.4241
  176SAPI    HX20009   3.148   6.067   6.746 -1.1084  1.2524  1.3594
  176SAPI    HY20010   3.271   6.198   6.722  0.2032  0.4413  0.5173
  176SAPI   O3120011   3.289   6.092   6.907 -0.0081 -0.1395  0.0362
  176SAPI   C3120012   3.236   6.186   6.980  0.4101  0.2360  0.1183
  176SAPI   O3220013   3.168   6.280   6.946  0.6416 -0.9411  0.4599
  176SAPI   C3220014   3.264   6.146   7.118 -0.3901 -0.2358 -0.2215
  176SAPI   H2X20015   3.219   6.214   7.193 -1.7808  1.0426 -2.1388
  176SAPI   H2Y20016   3.373   6.135   7.138 -0.7640 -0.1693  2.1712
  176SAPI   C2320017   3.174   5.670   6.830  0.4561 -0.3393  0.0678
  176SAPI   H3R20018   3.139   5.564   6.827 -1.5961  0.2810  0.3149
  176SAPI   H3S20019   3.126   5.727   6.747 -0.5335  1.5750  1.8453
  176SAPI   C2420020   3.103   5.730   6.954 -0.7616 -0.4921  0.2682
  176SAPI   H4R20021   3.110   5.841   6.944 -1.1208 -0.2902  1.9598
  176SAPI   H4S20022   3.166   5.712   7.043 -1.5129  0.6914  1.0674
  176SAPI   C2520023   2.961   5.691   6.980  0.1376  0.1719  0.0740
  176SAPI   H5R20024   2.897   5.710   6.892 -2.3850  0.8218  1.9543
  176SAPI   C2620025   2.896   5.644   7.083  0.4028 -0.2137  0.4395
  176SAPI   H6R20026   2.790   5.622   7.068  0.8253 -0.5108 -2.7824
  176SAPI   C2720027   2.958   5.617   7.214 -0.1950  0.5078  0.2173
  176SAPI   H7R20028   2.999   5.717   7.240 -1.3757  1.0692 -0.0082
  176SAPI   H7S20029   3.042   5.544   7.205 -0.1906  0.5959 -0.4506
  176SAPI   C2820030   2.843   5.571   7.307  0.0373 -0.3285  0.2970
  176SAPI   H8R20031   2.781   5.488   7.273 -0.1658 -0.1250  0.1655
  176SAPI   C2920032   2.799   5.631   7.420  0.3637 -0.2620 -0.1717
  176SAPI   H9R20033   2.726   5.576   7.481 -1.2159  2.2956  0.4218
  176SAPI  C21020034   2.876   5.757   7.474 -0.3591  0.5244  1.0660
  176SAPI  H10R20035   2.883   5.836   7.397  0.6822 -1.0744 -0.5378
  176SAPI  H10S20036   2.977   5.718   7.497 -0.3463 -0.7518 -0.9150
  176SAPI  C21120037   2.817   5.816   7.595 -0.2796 -0.3275  0.5471
  176SAPI  H11R20038   2.753   5.899   7.563 -0.0453 -0.3327  0.0586
  176SAPI  C21220039   2.832   5.771   7.723  0.0275  0.1940 -0.2445
  176SAPI  H12R20040   2.798   5.840   7.801  0.0659 -0.5144  0.4028
  176SAPI  C21320041   2.913   5.655   7.770 -0.3487 -0.2156 -0.0721
  176SAPI  H13R20042   3.004   5.699   7.817 -0.5464  0.7306 -0.5408
  176SAPI  H13S20043   2.946   5.587   7.690  0.2775 -1.4621  1.2060
  176SAPI  C21420044   2.836   5.574   7.862  0.1853  0.4961 -1.0429
  176SAPI  H14R20045   2.730   5.567   7.833 -0.7152  3.7956  0.9119
  176SAPI  C21520046   2.880   5.514   7.973  0.0573 -0.2814 -0.7589
  176SAPI  H15R20047   2.808   5.466   8.040  1.7815 -0.3926  1.0818
  176SAPI  C21620048   3.023   5.527   8.028 -0.2218 -0.4218 -0.0540
  176SAPI  H16R20049   3.031   5.619   8.090  1.4068  0.1368 -1.0359
  176SAPI  H16S20050   3.099   5.538   7.948 -1.0683  0.3340 -0.7726
  176SAPI  C21720051   3.070   5.420   8.125  0.6636 -0.3073 -0.8366
  176SAPI  H17R20052   3.073   5.322   8.073  0.3777 -0.2201 -1.0207
  176SAPI  H17S20053   3.000   5.404   8.210 -0.0165  0.4017 -1.2608
  176SAPI  C21820054   3.210   5.451   8.178 -0.3251  0.5170 -1.4437
  176SAPI  H18R20055   3.212   5.540   8.245  0.9042  2.2304 -3.6249
  176SAPI  H18S20056   3.271   5.473   8.088  0.8808  0.7764 -0.5862
  176SAPI  C21920057   3.292   5.335   8.249 -0.7406  0.0291  0.3793
  176SAPI  H19R20058   3.394   5.367   8.221 -0.8882  0.5957  0.4789
  176SAPI  H19S20059   3.263   5.236   8.207 -1.3902 -0.2614  1.4508
  176SAPI  C22020060   3.271   5.315   8.400  0.4745  0.4530  0.0218
  176SAPI  H20R20061   3.168   5.279   8.423  1.2390  0.5568  4.6921
  176SAPI  H20S20062   3.292   5.410   8.454  0.9380 -0.0495  0.7356
  176SAPI  H20T20063   3.346   5.243   8.440  1.5712  0.3948 -1.9926
  176SAPI   C3320064   3.212   6.002   7.139 -0.4863 -0.6181 -0.0331
  176SAPI   H3X20065   3.299   5.938   7.113  0.3050 -0.3489  1.7698
  176SAPI   H3Y20066   3.132   5.985   7.063 -0.0556 -0.8466 -0.4390
  176SAPI   C3420067   3.160   5.978   7.276 -0.1271  0.7192  0.2746
  176SAPI   H4X20068   3.134   5.870   7.272 -0.1371  0.7231  0.2157
  176SAPI   H4Y20069   3.064   6.027   7.302  0.6773  1.8603  1.1943
  176SAPI   C3520070   3.267   5.991   7.391 -0.2789 -0.4250  0.2238
  176SAPI   H5X20071   3.317   6.090   7.382 -0.1853 -0.2520  2.2995
  176SAPI   H5Y20072   3.339   5.907   7.383  0.5488  0.4149 -2.1039
  176SAPI   C3620073   3.206   5.967   7.523  0.3705  0.3301 -0.1435
  176SAPI   H6X20074   3.156   5.868   7.533 -1.3881  1.1831 -0.1755
  176SAPI   H6Y20075   3.120   6.036   7.537  0.4313  0.4760 -0.4850
  176SAPI   C3720076   3.300   5.980   7.641 -0.3433 -0.2050 -0.3358
  176SAPI   H7X20077   3.360   6.074   7.652 -1.9009  0.6334  1.6237
  176SAPI   H7Y20078   3.367   5.892   7.643  0.1203  0.1597  1.3241
  176SAPI   C3820079   3.212   5.981   7.767 -0.2557 -0.2197 -0.0319
  176SAPI   H8X20080   3.275   5.940   7.848  2.3227  0.2997 -1.6669
  176SAPI   H8Y20081   3.121   5.916   7.775  0.6849 -1.5856 -0.0578
  176SAPI   C3920082   3.168   6.121   7.811 -0.0556 -0.3245  0.2245
  176SAPI   H9X20083   3.097   6.154   7.732  0.4282 -1.3292 -0.6540
  176SAPI   H9Y20084   3.253   6.193   7.801 -1.1703  0.9548 -0.5062
  176SAPI  C31020085   3.105   6.118   7.948  0.5270  0.9199 -0.2712
  176SAPI  H10X20086   3.174   6.079   8.027  1.5000  1.6496 -0.7335
  176SAPI  H10Y20087   3.015   6.053   7.947 -0.3241  2.0524 -1.6154
  176SAPI  C31120088   3.060   6.255   7.987 -0.3081 -0.1772 -0.2843
  176SAPI  H11X20089   2.988   6.293   7.911 -1.4637  0.3686  1.0534
  176SAPI  H11Y20090   3.153   6.315   7.984  1.4506 -2.5717  2.1097
  176SAPI  C31220091   2.992   6.269   8.128 -0.1306  0.2349 -0.0821
  176SAPI  H12X20092   2.890   6.226   8.124 -0.4326  1.0141 -2.5027
  176SAPI  H12Y20093   2.977   6.376   8.153  0.1760  0.0350  1.0238
  176SAPI  C31320094   3.068   6.205   8.249 -0.3898  0.0291  0.3412
  176SAPI  H13X20095   3.167   6.254   8.260 -0.7198  0.7031  0.3822
  176SAPI  H13Y20096   3.085   6.097   8.229  2.0733  0.4098  0.0224
  176SAPI  C31420097   2.978   6.204   8.371  0.0420  0.3557  0.2493
  176SAPI  H14X20098   2.894   6.137   8.341  0.5299  0.2311 -0.8995
  176SAPI  H14Y20099   2.949   6.307   8.399 -0.8927  0.0426  0.4559
  176SAPI  C31520100   3.050   6.141   8.490  0.2225 -0.1389  0.8652
  176SAPI  H15X20101   3.146   6.195   8.504 -1.2834  2.8388  0.3391
  176SAPI  H15Y20102   3.072   6.035   8.465 -1.7137 -0.5842  0.9364
  176SAPI  C31620103   2.979   6.151   8.621 -0.1956  0.4324 -0.2281
  176SAPI  H16X20104   2.878   6.115   8.592 -0.7445  1.8881 -0.2052
  176SAPI  H16Y20105   2.977   6.258   8.651 -0.7451  0.1825  0.6674
  176SAPI  C31720106   3.039   6.065   8.731  0.3416  0.5431 -1.0935
  176SAPI  H17X20107   3.149   6.074   8.718  0.5883 -0.7925 -0.1070
  176SAPI  H17Y20108   3.025   5.960   8.700  1.6586  0.2219 -0.6664
  176SAPI  C31820109   3.003   6.086   8.874 -0.1951 -0.9553 -0.4849
  176SAPI  H18X20110   2.899   6.053   8.899  0.2260 -2.1897 -0.2860
  176SAPI  H18Y20111   3.001   6.196   8.892  3.1536 -0.8864  0.0486
  176SAPI  H18Z20112   3.070   6.044   8.952 -0.1795  0.1228  0.0928
  177SLPC     N20113   3.208   2.903  11.369 -0.2939 -0.0592 -0.3818
  177SLPC   C1320114   3.171   3.000  11.480 -0.0144 -0.1027  0.0909
  177SLPC  H13A20115   3.198   2.957  11.576  2.3397  1.9869  0.4457
  177SLPC  H13B20116   3.224   3.094  11.480 -1.2554  0.6169 -0.6802
  177SLPC  H13C20117   3.065   3.015  11.491  0.1440 -0.4232  2.8102
  177SLPC   C1420118   3.180   2.760  11.405 -0.3673  0.3423  0.6150
  177SLPC  H14A20119   3.075   2.743  11.422 -0.6680  1.0990 -0.4162
  177SLPC  H14B20120   3.220   2.701  11.324 -0.9316 -0.1765  0.7071
  177SLPC  H14C20121   3.229   2.719  11.492  0.6764  1.4138  0.5649
  177SLPC   C1520122   3.356   2.928  11.342  0.4552 -0.4080  0.0834
  177SLPC  H15A20123   3.386   2.852  11.271 -2.1520 -0.7652 -0.7335
  177SLPC  H15B20124   3.360   3.029  11.303 -4.0482  1.0018  2.5209
  177SLPC  H15C20125   3.408   2.916  11.436 -1.4026  1.3031  1.4067
  177SLPC   C1220126   3.129   2.945  11.247  0.4115  0.2722 -0.4115
  177SLPC  H12A20127   3.163   3.045  11.224 -1.0639  0.7489 -0.6330
  177SLPC  H12B20128   3.025   2.962  11.270  0.7749  0.5772  1.1940
  177SLPC   C1120129   3.146   2.871  11.111 -0.0578 -0.3597 -0.0744
  177SLPC  H11A20130   3.087   2.927  11.035  1.1532  0.0512 -0.7418
  177SLPC  H11B20131   3.105   2.768  11.118 -1.6681  0.3181  1.0661
  177SLPC     P20132   3.359   2.982  11.009 -0.1411  0.1256 -0.2516
  177SLPC   O1320133   3.325   3.108  11.079 -0.3038  0.1776 -0.0201
  177SLPC   O1420134   3.503   2.955  10.997 -0.5546  0.0869  0.1825
  177SLPC   O1220135   3.284   2.862  11.067  0.2159  0.2042 -0.3140
  177SLPC   O1120136   3.284   3.000  10.875  0.4456 -0.5672 -0.1524
  177SLPC    C120137   3.270   2.891  10.782 -0.4221 -0.6319 -0.1711
  177SLPC    HA20138   3.307   2.793  10.819 -1.2268 -1.0924 -0.5717
  177SLPC    HB20139   3.163   2.870  10.762 -1.8258  3.1456  2.3462
  177SLPC    C220140   3.327   2.934  10.640  0.2242  0.1765  0.0862
  177SLPC    HS20141   3.306   2.847  10.574  0.3387  0.2310 -0.0221
  177SLPC   O2120142   3.463   2.961  10.655  0.4366  0.3174 -0.4193
  177SLPC   C2120143   3.540   2.848  10.675  0.1010  0.2552  0.3729
  177SLPC   O2220144   3.491   2.737  10.669 -0.0486  0.4243 -0.0697
  177SLPC   C2220145   3.681   2.885  10.690 -0.0366  0.5233 -0.4903
  177SLPC   H2R20146   3.696   2.915  10.796 -1.0450 -0.1498 -0.1431
  177SLPC   H2S20147   3.741   2.796  10.664  0.4900  0.7763 -0.1639
  177SLPC    C320148   3.244   3.055  10.588 -0.6958 -0.5203 -0.3161
  177SLPC    HX20149   3.266   3.140  10.656  2.4918 -1.9635  0.6514
  177SLPC    HY20150   3.134   3.038  10.595 -0.5209 -2.1109 -1.0617
  177SLPC   O3120151   3.287   3.089  10.450  0.0021 -0.3009 -0.0501
  177SLPC   C3120152   3.317   3.213  10.417  0.6498  0.3950  0.6437
  177SLPC   O3220153   3.332   3.308  10.494 -0.3493 -0.1218 -0.0518
  177SLPC   C3220154   3.335   3.225  10.264 -0.2647  0.0823  0.0717
  177SLPC   H2X20155   3.334   3.120  10.228  0.1480  0.4110 -0.9252
  177SLPC   H2Y20156   3.444   3.248  10.268 -0.1534  0.0201 -1.8081
  177SLPC   C2320157   3.723   3.004  10.600 -0.0541  0.8633  0.6632
  177SLPC   H3R20158   3.819   3.043  10.640  0.7443 -1.4684  1.2040
  177SLPC   H3S20159   3.648   3.085  10.600 -0.3911  0.6213 -1.5874
  177SLPC   C2420160   3.739   2.948  10.456 -0.3395  1.1574 -0.0794
  177SLPC   H4R20161   3.671   2.862  10.437  0.8567  0.2268 -0.2446
  177SLPC   H4S20162   3.844   2.912  10.457 -0.3739  1.0597  0.0891
  177SLPC   C2520163   3.715   3.042  10.342  0.6780 -0.4020  0.0644
  177SLPC   H5R20164   3.797   3.116  10.348 -1.9074  2.5784  0.9674
  177SLPC   H5S20165   3.626   3.098  10.375  1.8336 -0.1902  3.1962
  177SLPC   C2620166   3.706   2.982  10.208  0.1320  0.4196 -0.6771
  177SLPC   H6R20167   3.623   2.909  10.212 -1.0285  1.7665  1.9224
  177SLPC   H6S20168   3.801   2.927  10.190  1.3249  2.3869 -0.7268
  177SLPC   C2720169   3.686   3.080  10.092  0.0895  0.4607 -0.2774
  177SLPC   H7R20170   3.766   3.157  10.084 -0.0201  0.7797  1.3396
  177SLPC   H7S20171   3.592   3.139  10.082 -0.8343 -1.0368 -0.7909
  177SLPC   C2820172   3.688   3.009   9.956 -0.1491 -0.2221  0.3958
  177SLPC   H8R20173   3.786   2.958   9.945 -0.6268 -1.0859  0.0685
  177SLPC   H8S20174   3.691   3.079   9.870 -0.8947 -2.0925 -1.2219
  177SLPC   C2920175   3.580   2.905   9.947  0.8302  0.3359 -0.3531
  177SLPC   H9R20176   3.600   2.818  10.011  1.2321 -0.1346 -1.0949
  177SLPC  C21020177   3.479   2.903   9.855  0.7029  0.3493 -0.1035
  177SLPC  H10R20178   3.398   2.828   9.861 -1.7464  2.6426 -2.0602
  177SLPC  C21120179   3.454   3.015   9.755 -0.1161 -0.0708 -0.1703
  177SLPC  H11R20180   3.425   3.104   9.815  2.5586  1.3472 -0.8131
  177SLPC  H11S20181   3.549   3.045   9.706  0.1995 -0.9766 -0.1419
  177SLPC  C21220182   3.350   2.985   9.651 -0.1658  0.0647  0.0015
  177SLPC  H12R20183   3.249   2.968   9.691 -0.0764 -1.2202 -0.2549
  177SLPC  C21320184   3.375   2.968   9.522  0.2257 -0.3867  0.0459
  177SLPC  H13R20185   3.293   2.945   9.452  1.7611 -0.9410 -1.6550
  177SLPC  C21420186   3.510   2.959   9.450 -0.5050 -0.2105  0.8024
  177SLPC  H14R20187   3.520   2.867   9.390 -2.3572 -2.8288  4.1720
  177SLPC  H14S20188   3.603   2.942   9.510  1.9768 -1.0477 -2.9575
  177SLPC  C21520189   3.549   3.092   9.371  0.2283  0.3945 -0.2683
  177SLPC  H15R20190   3.531   3.185   9.429 -2.3467 -2.2712  3.7415
  177SLPC  H15S20191   3.480   3.097   9.285 -1.5146 -0.8301  0.9958
  177SLPC  C21620192   3.690   3.083   9.322 -0.6022 -0.3659 -0.2295
  177SLPC  H16R20193   3.710   2.988   9.268  0.3283  0.2315 -0.9832
  177SLPC  H16S20194   3.756   3.095   9.410 -1.7247 -1.3960  0.7994
  177SLPC  C21720195   3.715   3.176   9.197 -0.1166 -0.1841 -0.1233
  177SLPC  H17R20196   3.699   3.279   9.235  3.1638  0.8280 -1.0848
  177SLPC  H17S20197   3.644   3.146   9.117  0.1356  0.9127 -0.7823
  177SLPC  C21820198   3.861   3.169   9.143  0.4115  0.1853  0.1443
  177SLPC  H18R20199   3.877   3.083   9.074  1.0797  0.7143 -0.3768
  177SLPC  H18S20200   3.929   3.163   9.231  1.7721 -0.6254 -0.9154
  177SLPC  H18T20201   3.880   3.262   9.086 -0.5350 -0.2535 -0.9257
  177SLPC   C3320202   3.247   3.325  10.196 -0.6473  0.5962  0.5918
  177SLPC   H3X20203   3.265   3.429  10.229 -2.6864  1.1042  0.2241
  177SLPC   H3Y20204   3.140   3.311  10.222 -0.4316  0.5174  1.4775
  177SLPC   C3420205   3.266   3.305  10.043 -0.3950  0.4627  0.0077
  177SLPC   H4X20206   3.245   3.200  10.012  0.3310 -0.2731  1.8599
  177SLPC   H4Y20207   3.371   3.319  10.010  0.1915 -3.4363 -0.2362
  177SLPC   C3520208   3.166   3.396   9.965  0.1210  0.3780  0.1213
  177SLPC   H5X20209   3.177   3.503   9.989  1.3722  0.1933  0.4064
  177SLPC   H5Y20210   3.061   3.365   9.986  0.1934 -0.3883 -0.5546
  177SLPC   C3620211   3.189   3.370   9.810 -0.6285 -0.7696 -0.2589
  177SLPC   H6X20212   3.169   3.261   9.802 -1.3363 -0.5808 -1.1143
  177SLPC   H6Y20213   3.295   3.393   9.784 -0.9321  1.1284  0.0603
  177SLPC   C3720214   3.090   3.446   9.730  0.4453 -0.0872  0.5116
  177SLPC   H7X20215   3.104   3.554   9.754 -2.7527  0.3200  1.0029
  177SLPC   H7Y20216   2.984   3.417   9.751 -0.3850 -0.0328 -3.0414
  177SLPC   C3820217   3.105   3.425   9.573 -0.1433 -0.4451 -1.0523
  177SLPC   H8X20218   3.015   3.455   9.517 -0.2389 -1.0174 -1.2056
  177SLPC   H8Y20219   3.124   3.318   9.552  0.5515 -0.5369 -0.0608
  177SLPC   C3920220   3.216   3.517   9.519 -0.5610  0.0916  0.4157
  177SLPC   H9X20221   3.318   3.498   9.560  0.4140  0.5745 -1.6223
  177SLPC   H9Y20222   3.185   3.617   9.555 -1.7790 -1.0041  2.6345
  177SLPC  C31020223   3.227   3.528   9.364 -0.2845 -0.5287  0.2294
  177SLPC  H10X20224   3.289   3.619   9.349 -2.2637  1.1250  1.3948
  177SLPC  H10Y20225   3.121   3.540   9.331  0.0338 -0.8164 -0.9288
  177SLPC  C31120226   3.283   3.399   9.307  0.6310  0.0935  0.2363
  177SLPC  H11X20227   3.267   3.319   9.382 -0.0740 -1.1450 -1.1658
  177SLPC  H11Y20228   3.388   3.404   9.273  0.5269 -0.1497 -0.1355
  177SLPC  C31220229   3.204   3.340   9.191  0.5079  0.9244  0.1126
  177SLPC  H12X20230   3.231   3.408   9.107 -3.2825  1.9723 -0.4303
  177SLPC  H12Y20231   3.095   3.346   9.208  0.4603  0.2280  0.0665
  177SLPC  C31320232   3.254   3.199   9.153  0.3555  0.0978 -0.0686
  177SLPC  H13X20233   3.251   3.128   9.238 -0.6663 -0.9361 -0.9329
  177SLPC  H13Y20234   3.363   3.206   9.136  0.1661 -0.5588 -1.7216
  177SLPC  C31420235   3.192   3.136   9.022  0.2627 -0.1829 -0.3791
  177SLPC  H14X20236   3.197   3.211   8.940  1.2765 -1.9919 -2.0625
  177SLPC  H14Y20237   3.088   3.111   9.052 -0.2787 -2.7812 -3.8283
  177SLPC  C31520238   3.258   3.005   8.966  0.3727 -0.0134 -0.7520
  177SLPC  H15X20239   3.180   2.960   8.901 -1.5536 -1.2221  2.1744
  177SLPC  H15Y20240   3.263   2.943   9.058  1.3353  0.9528 -0.1201
  177SLPC  C31620241   3.399   3.027   8.902  0.5124 -0.6259  0.0776
  177SLPC  H16X20242   3.436   2.927   8.871  0.5736 -1.2384  1.9867
  177SLPC  H16Y20243   3.472   3.073   8.972  0.2098 -1.2811  0.8353
  177SLPC  C31720244   3.384   3.111   8.771 -0.1874 -0.4050 -0.2052
  177SLPC  H17X20245   3.481   3.107   8.716 -0.6659 -1.3232 -1.0113
  177SLPC  H17Y20246   3.368   3.218   8.799 -0.3393 -0.3477 -0.5036
  177SLPC  C31820247   3.273   3.064   8.674 -0.2257 -0.3180  0.0637
  177SLPC  H18X20248   3.261   2.954   8.684  0.2805 -0.3589  0.2380
  177SLPC  H18Y20249   3.289   3.083   8.566  3.5767 -0.6168  0.4619
  177SLPC  H18Z20250   3.174   3.108   8.700  1.1518  2.5593  0.8996
  178SLPC     N20251   5.232   4.619  11.032  0.6394  0.2434 -0.3325
  178SLPC   C1320252   5.191   4.698  11.149  0.7947  0.1717 -0.2124
  178SLPC  H13A20253   5.196   4.639  11.240 -0.4208  1.1502  0.5361
  178SLPC  H13B20254   5.256   4.784  11.156  1.8752 -0.7186  1.7006
  178SLPC  H13C20255   5.090   4.735  11.141  0.5818 -0.1863  0.7091
  178SLPC   C1420256   5.196   4.696  10.913  0.8495 -0.7221  0.2508
  178SLPC  H14A20257   5.224   4.644  10.822  1.3661 -0.3093  0.1686
  178SLPC  H14B20258   5.092   4.722  10.908  0.6584 -1.5699 -0.5162
  178SLPC  H14C20259   5.255   4.787  10.914  0.4839 -0.4837  0.0291
  178SLPC   C1520260   5.147   4.502  11.024  0.8634  0.2105 -0.1831
  178SLPC  H15A20261   5.148   4.444  11.115  0.1792 -0.9276 -0.8695
  178SLPC  H15B20262   5.043   4.527  11.009 -0.1794 -2.2200  2.2358
  178SLPC  H15C20263   5.183   4.437  10.946 -1.7176 -0.1739 -1.1587
  178SLPC   C1220264   5.378   4.580  11.038 -0.7465  0.8248  0.6490
  178SLPC  H12A20265   5.395   4.511  10.957  0.3474 -0.3757  1.8422
  178SLPC  H12B20266   5.399   4.527  11.130  1.7664 -0.0729 -0.3583
  178SLPC   C1120267   5.492   4.691  11.042 -0.3169 -0.1450  0.0314
  178SLPC  H11A20268   5.582   4.631  11.066 -1.1774  0.0803  4.8446
  178SLPC  H11B20269   5.472   4.760  11.126 -1.2224 -0.4123  0.0489
  178SLPC     P20270   5.567   4.704  10.792 -0.0562 -1.1031 -0.1509
  178SLPC   O1320271   5.713   4.684  10.807  0.3207 -0.1854  0.1892
  178SLPC   O1420272   5.493   4.584  10.750 -0.3934 -0.7350 -0.2334
  178SLPC   O1220273   5.503   4.772  10.920  0.1247 -0.0792  0.7818
  178SLPC   O1120274   5.553   4.823  10.684  0.7049  0.3650  0.1671
  178SLPC    C120275   5.462   4.930  10.698 -0.1206  0.6824 -0.6656
  178SLPC    HA20276   5.384   4.918  10.776 -0.2412  1.9317 -0.5728
  178SLPC    HB20277   5.525   5.018  10.724  0.6338  0.0606 -0.3223
  178SLPC    C220278   5.375   4.960  10.575  0.8748  0.1289  0.0721
  178SLPC    HS20279   5.340   5.063  10.598 -0.3600 -0.2046 -0.2400
  178SLPC   O2120280   5.261   4.870  10.567 -0.2718  0.1109  0.4749
  178SLPC   C2120281   5.152   4.933  10.530 -0.1473  0.7976  0.1254
  178SLPC   O2220282   5.141   5.058  10.516 -0.2644 -0.0173  0.1586
  178SLPC   C2220283   5.042   4.836  10.487 -0.1015 -0.4340  0.0809
  178SLPC   H2R20284   5.080   4.732  10.490 -0.6336 -0.7040 -1.6672
  178SLPC   H2S20285   4.963   4.849  10.563 -1.4341  1.6224 -1.5475
  178SLPC    C320286   5.467   4.963  10.452 -0.1065 -0.8569  0.4268
  178SLPC    HX20287   5.506   4.862  10.427  1.8544 -0.0680  0.0855
  178SLPC    HY20288   5.553   5.032  10.465 -0.3500 -0.0327 -1.7250
  178SLPC   O3120289   5.403   5.002  10.332 -0.0617  0.7284  0.1767
  178SLPC   C3120290   5.385   5.131  10.312  0.0567 -0.0068 -0.6662
  178SLPC   O3220291   5.446   5.221  10.365 -0.0181 -0.0320  0.2374
  178SLPC   C3220292   5.282   5.153  10.205  0.0526 -0.4809  0.0169
  178SLPC   H2X20293   5.223   5.241  10.241 -0.4041 -0.4417 -0.8131
  178SLPC   H2Y20294   5.213   5.066  10.202 -0.8842  0.1500  1.5392
  178SLPC   C2320295   4.992   4.873  10.350 -0.3949 -0.1817 -0.3532
  178SLPC   H3R20296   5.085   4.893  10.293 -1.0963  0.2526 -1.3726
  178SLPC   H3S20297   4.932   4.967  10.349  0.4194  0.3848 -2.7155
  178SLPC   C2420298   4.924   4.759  10.277 -0.8382 -1.1772 -0.7601
  178SLPC   H4R20299   4.823   4.761  10.323 -0.2098  2.0679  0.7612
  178SLPC   H4S20300   4.973   4.663  10.306  0.7176 -0.1305  0.2607
  178SLPC   C2520301   4.911   4.780  10.125 -0.5133 -0.7082 -0.0096
  178SLPC   H5R20302   4.925   4.681  10.077  0.9257 -0.6426  0.2479
  178SLPC   H5S20303   4.987   4.854  10.092 -0.1091 -2.3215 -3.0494
  178SLPC   C2620304   4.771   4.838  10.083  0.2563 -0.9607  0.3354
  178SLPC   H6R20305   4.765   4.936  10.136 -1.1302  0.6373 -2.5197
  178SLPC   H6S20306   4.696   4.762  10.113  0.3857 -0.8592  0.9302
  178SLPC   C2720307   4.754   4.859   9.932  0.3245 -0.1644  0.3833
  178SLPC   H7R20308   4.652   4.900   9.917  0.7052  0.4274 -0.7076
  178SLPC   H7S20309   4.768   4.760   9.883 -2.0748 -0.9337  1.0829
  178SLPC   C2820310   4.855   4.959   9.873 -0.0763  0.2043  0.3001
  178SLPC   H8R20311   4.959   4.950   9.911  0.2542 -3.9053 -1.0752
  178SLPC   H8S20312   4.813   5.059   9.900 -1.1076 -0.7926  2.7120
  178SLPC   C2920313   4.853   4.956   9.720  0.3283 -0.6797  0.1291
  178SLPC   H9R20314   4.775   4.891   9.678 -0.4646  0.9444 -1.0012
  178SLPC  C21020315   4.945   5.009   9.637 -0.6526 -0.4165 -0.1736
  178SLPC  H10R20316   4.936   4.999   9.528 -0.3294  1.7074 -0.4440
  178SLPC  C21120317   5.063   5.101   9.671  0.1465  0.7548  0.3495
  178SLPC  H11R20318   5.160   5.050   9.692  0.4150  1.7875  1.7889
  178SLPC  H11S20319   5.038   5.156   9.764 -0.1148 -1.1716  1.4812
  178SLPC  C21220320   5.074   5.202   9.557  0.4135 -0.1432  0.5047
  178SLPC  H12R20321   5.004   5.286   9.548  2.1442  1.1799 -1.9753
  178SLPC  C21320322   5.169   5.202   9.467  0.6792 -0.4268 -0.3275
  178SLPC  H13R20323   5.156   5.270   9.382  1.3399 -0.2221 -0.2681
  178SLPC  C21420324   5.293   5.117   9.464  0.3287 -1.1634 -0.0617
  178SLPC  H14R20325   5.312   5.055   9.554 -1.1776 -1.0005  0.3837
  178SLPC  H14S20326   5.386   5.178   9.459  0.9075 -2.0517 -0.2895
  178SLPC  C21520327   5.298   5.022   9.341  0.9410  0.2926 -0.5780
  178SLPC  H15R20328   5.280   5.075   9.245  0.8216  0.3035 -0.5503
  178SLPC  H15S20329   5.214   4.950   9.346  0.6502  0.5950 -1.0798
  178SLPC  C21620330   5.430   4.944   9.349  1.1007 -0.0287  0.2025
  178SLPC  H16R20331   5.439   4.887   9.444 -1.0589 -1.4063 -0.3718
  178SLPC  H16S20332   5.512   5.018   9.333  0.3918  0.9632  1.0131
  178SLPC  C21720333   5.428   4.828   9.247  0.1063 -0.2200  0.0950
  178SLPC  H17R20334   5.425   4.865   9.142  3.0605  0.9877  0.3414
  178SLPC  H17S20335   5.333   4.776   9.273 -0.3399  0.6660  0.3106
  178SLPC  C21820336   5.549   4.739   9.261 -0.3104 -0.1484 -0.3593
  178SLPC  H18R20337   5.646   4.789   9.243 -0.8054 -0.0347 -3.2428
  178SLPC  H18S20338   5.542   4.656   9.186  0.7640  1.2318 -2.0657
  178SLPC  H18T20339   5.559   4.692   9.361 -1.6456  0.6657  0.1827
  178SLPC   C3320340   5.336   5.191  10.067  0.0336 -0.3217  0.2534
  178SLPC   H3X20341   5.410   5.274  10.073  0.0652 -0.4078  1.1008
  178SLPC   H3Y20342   5.254   5.234  10.006 -0.2960 -2.1705 -0.6998
  178SLPC   C3420343   5.394   5.068   9.997 -0.4731  0.0380  0.8761
  178SLPC   H4X20344   5.467   5.018  10.065  0.6568  1.4398  0.7507
  178SLPC   H4Y20345   5.443   5.089   9.900  0.0996 -1.7990  0.7389
  178SLPC   C3520346   5.296   4.949   9.965 -0.1542  0.9706 -0.3157
  178SLPC   H5X20347   5.196   4.989   9.937 -0.7357  0.1630  0.5174
  178SLPC   H5Y20348   5.283   4.875  10.047  0.3277 -0.6168 -1.6274
  178SLPC   C3620349   5.354   4.863   9.850 -0.0480 -0.3723 -0.1495
  178SLPC   H6X20350   5.460   4.844   9.875 -0.6758 -0.2189  2.9917
  178SLPC   H6Y20351   5.366   4.918   9.754 -0.1632 -2.8371 -1.6570
  178SLPC   C3720352   5.273   4.732   9.822 -0.6078 -0.8060  0.1457
  178SLPC   H7X20353   5.183   4.768   9.767 -1.7456  1.1439  3.0478
  178SLPC   H7Y20354   5.225   4.684   9.910 -3.3223  2.2077  0.5157
  178SLPC   C3820355   5.362   4.636   9.742 -0.2689  0.0303 -0.4617
  178SLPC   H8X20356   5.454   4.614   9.800  0.2615 -0.1042 -1.3325
  178SLPC   H8Y20357   5.391   4.673   9.642  0.1961 -1.5701 -0.9442
  178SLPC   C3920358   5.298   4.501   9.713  0.1975 -0.4184  0.5981
  178SLPC   H9X20359   5.197   4.509   9.667 -0.5994 -2.9979  1.6980
  178SLPC   H9Y20360   5.276   4.455   9.811  0.7526  0.1110  0.9769
  178SLPC  C31020361   5.380   4.405   9.632 -0.6540 -0.6744  0.5537
  178SLPC  H10X20362   5.339   4.303   9.650 -1.3638 -0.1394  2.1301
  178SLPC  H10Y20363   5.484   4.410   9.671 -2.2052  0.6424  5.1488
  178SLPC  C31120364   5.391   4.439   9.482 -0.2408  0.2184 -0.0715
  178SLPC  H11X20365   5.446   4.533   9.463  1.2958 -0.3833  1.1741
  178SLPC  H11Y20366   5.286   4.449   9.447 -0.3032 -0.8207 -0.2026
  178SLPC  C31220367   5.469   4.336   9.415 -0.2714  0.7808  0.0127
  178SLPC  H12X20368   5.408   4.243   9.420  0.7600 -0.1294 -2.5462
  178SLPC  H12Y20369   5.564   4.311   9.468  0.9277  1.7324 -1.6280
  178SLPC  C31320370   5.489   4.360   9.262 -0.3190  0.3555 -0.3672
  178SLPC  H13X20371   5.551   4.276   9.225  3.0250  2.5187 -0.0252
  178SLPC  H13Y20372   5.542   4.456   9.243 -0.2749  0.1280 -1.4759
  178SLPC  C31420373   5.363   4.363   9.173  1.3222  0.7859  0.2808
  178SLPC  H14X20374   5.312   4.462   9.178 -0.0903  0.0933  0.1602
  178SLPC  H14Y20375   5.280   4.293   9.196  0.9715  1.0423 -0.1935
  178SLPC  C31520376   5.392   4.316   9.025  0.2771  0.6413 -0.2975
  178SLPC  H15X20377   5.451   4.402   8.986 -0.4972  1.4902  0.3557
  178SLPC  H15Y20378   5.439   4.216   9.023 -0.0207  0.4780  0.5567
  178SLPC  C31620379   5.259   4.298   8.946 -0.4596  0.1961 -0.2719
  178SLPC  H16X20380   5.202   4.394   8.941  0.1688  0.7652  2.4188
  178SLPC  H16Y20381   5.205   4.224   9.008  1.6821 -0.6370  0.6838
  178SLPC  C31720382   5.274   4.227   8.810 -0.1680 -0.2226 -0.5144
  178SLPC  H17X20383   5.312   4.124   8.827  0.6433  0.0398 -0.7000
  178SLPC  H17Y20384   5.351   4.289   8.760 -1.5493  1.9143 -0.1313
  178SLPC  C31820385   5.148   4.220   8.730 -0.0232  0.1523 -0.5638
  178SLPC  H18X20386   5.163   4.140   8.655  0.2527  0.8268 -1.2411
  178SLPC  H18Y20387   5.129   4.312   8.670 -1.7463 -1.0099 -1.8611
  178SLPC  H18Z20388   5.059   4.195   8.791 -0.7293 -1.9441 -2.3421
  179SLPC     N20389   0.040   1.948  10.666  0.6004  0.4386 -0.4371
  179SLPC   C1320390  -0.056   2.040  10.736  0.2283 -0.5966 -0.1363
  179SLPC  H13A20391  -0.085   2.023  10.839 -1.6944 -2.0620 -0.8634
  179SLPC  H13B20392  -0.021   2.140  10.717 -2.4813  0.4104 -0.2388
  179SLPC  H13C20393  -0.148   2.040  10.680 -0.5461  1.7759  1.0110
  179SLPC   C1420394  -0.010   1.805  10.691 -1.0644  0.5756  0.0854
  179SLPC  H14A20395   0.023   1.774  10.789  0.2086  0.3170 -0.3957
  179SLPC  H14B20396  -0.115   1.786  10.676 -0.5098 -1.3517 -1.9123
  179SLPC  H14C20397   0.045   1.740  10.624  0.0827  1.0058  0.5771
  179SLPC   C1520398   0.172   1.964  10.726  0.4699 -0.0435  0.0875
  179SLPC  H15A20399   0.228   1.872  10.716 -1.1546 -1.1506  0.6700
  179SLPC  H15B20400   0.221   2.046  10.676 -2.9063  2.0838 -0.0522
  179SLPC  H15C20401   0.157   1.994  10.828 -1.9396  0.6287 -0.3893
  179SLPC   C1220402   0.036   1.976  10.521 -0.0003  0.9103 -0.8735
  179SLPC  H12A20403  -0.064   1.959  10.484 -0.2022 -1.9687  0.6995
  179SLPC  H12B20404   0.101   1.899  10.483  0.3453  1.2451 -0.9684
  179SLPC   C1120405   0.096   2.106  10.475 -0.3866 -0.0952  0.5323
  179SLPC  H11A20406   0.138   2.089  10.373  0.6318  1.7149  0.6052
  179SLPC  H11B20407   0.186   2.151  10.522 -0.1518  0.9602 -0.8556
  179SLPC     P20408  -0.132   2.202  10.389  0.4540  0.5886 -0.2719
  179SLPC   O1320409  -0.198   2.084  10.450  0.1502  0.0410 -0.2370
  179SLPC   O1420410  -0.205   2.330  10.402 -0.1589 -0.2394  1.0756
  179SLPC   O1220411  -0.000   2.215  10.471 -0.2045 -0.1163  0.2009
  179SLPC   O1120412  -0.094   2.169  10.238  0.0787 -0.0983 -0.4731
  179SLPC    C120413   0.001   2.260  10.175 -0.7375  0.4213  0.3264
  179SLPC    HA20414   0.096   2.268  10.233  0.2159  0.3974 -1.1846
  179SLPC    HB20415   0.025   2.213  10.077  1.8606  1.1985  0.5093
  179SLPC    C220416  -0.051   2.408  10.151 -0.0962 -0.4601  0.7244
  179SLPC    HS20417  -0.041   2.456  10.251  1.7589  1.2522 -0.2086
  179SLPC   O2120418  -0.184   2.412  10.102  0.6426 -0.0491 -0.3028
  179SLPC   C2120419  -0.246   2.534  10.117 -0.9570  0.2547 -1.5530
  179SLPC   O2220420  -0.188   2.622  10.180 -0.4173 -0.3786 -0.4793
  179SLPC   C2220421  -0.386   2.546  10.055  0.5686  0.7187 -0.1778
  179SLPC   H2R20422  -0.452   2.503  10.133  1.4294 -0.2061  0.0684
  179SLPC   H2S20423  -0.405   2.655  10.044 -0.0578  0.8764  2.0788
  179SLPC    C320424   0.044   2.476  10.056 -0.1407  0.6674  0.3261
  179SLPC    HX20425   0.129   2.498  10.123 -0.2609 -0.0750  0.7343
  179SLPC    HY20426   0.008   2.574  10.019 -1.3734 -0.5391 -1.8549
  179SLPC   O3120427   0.076   2.393   9.944  0.0321  0.6727  0.6607
  179SLPC   C3120428   0.198   2.404   9.890 -0.7858 -0.1347  0.2034
  179SLPC   O3220429   0.265   2.504   9.909  0.6628  0.5254 -0.1181
  179SLPC   C3220430   0.237   2.283   9.809  0.0373  0.6883  0.1698
  179SLPC   H2X20431   0.198   2.192   9.861 -2.6344  2.3587  1.3193
  179SLPC   H2Y20432   0.348   2.281   9.803 -0.0214 -1.5678 -1.9908
  179SLPC   C2320433  -0.400   2.463   9.931  0.0892 -0.3357 -0.3902
  179SLPC   H3R20434  -0.508   2.457   9.908 -0.1972 -2.4341  1.2308
  179SLPC   H3S20435  -0.365   2.359   9.950 -0.4631 -0.7274 -1.4522
  179SLPC   C2420436  -0.335   2.514   9.805 -0.4316 -0.3601  0.0013
  179SLPC   H4R20437  -0.234   2.544   9.838  0.6760 -3.7332 -0.0009
  179SLPC   H4S20438  -0.396   2.604   9.781 -1.7023 -1.0683  0.4544
  179SLPC   C2520439  -0.345   2.418   9.693 -0.2600  0.7530 -0.3133
  179SLPC   H5R20440  -0.450   2.382   9.685 -1.0427  2.4235  1.5062
  179SLPC   H5S20441  -0.288   2.326   9.715 -0.8358  0.1349 -1.3571
  179SLPC   C2620442  -0.281   2.479   9.560  0.5437  0.2512  0.1438
  179SLPC   H6R20443  -0.334   2.572   9.530 -0.8398 -0.3885  0.4954
  179SLPC   H6S20444  -0.300   2.400   9.483 -0.8715  1.6730 -1.0346
  179SLPC   C2720445  -0.136   2.501   9.585 -0.1539  0.3683  0.4117
  179SLPC   H7R20446  -0.102   2.420   9.653 -0.1192 -0.1316 -0.1967
  179SLPC   H7S20447  -0.116   2.600   9.632  0.0880 -1.0126  3.5218
  179SLPC   C2820448  -0.049   2.496   9.452  0.7112  0.2471 -1.2692
  179SLPC   H8R20449  -0.096   2.418   9.388  0.6159  0.1532 -1.0827
  179SLPC   H8S20450   0.046   2.449   9.486 -1.2373 -1.7874  1.8564
  179SLPC   C2920451  -0.036   2.633   9.397 -0.0387 -0.5872 -0.1640
  179SLPC   H9R20452  -0.036   2.714   9.471 -2.2160  0.7690 -1.5096
  179SLPC  C21020453  -0.019   2.661   9.264  0.9446 -0.0455  0.5829
  179SLPC  H10R20454  -0.002   2.764   9.231 -1.1646  0.5448  1.2434
  179SLPC  C21120455  -0.015   2.560   9.152  0.3302 -0.0069  0.7583
  179SLPC  H11R20456   0.005   2.454   9.180  2.0306 -1.1310 -3.7903
  179SLPC  H11S20457   0.074   2.579   9.088  0.4282  1.1534  1.2275
  179SLPC  C21220458  -0.140   2.568   9.063 -0.2872 -0.5777 -0.4223
  179SLPC  H12R20459  -0.231   2.564   9.124  1.1953 -0.7633  1.9106
  179SLPC  C21320460  -0.152   2.592   8.932 -0.4141 -0.5421  0.3057
  179SLPC  H13R20461  -0.257   2.616   8.910 -1.2194 -0.7359  3.4192
  179SLPC  C21420462  -0.033   2.618   8.843  0.8905  0.1756 -0.1411
  179SLPC  H14R20463  -0.071   2.637   8.740 -0.5245  0.9462  0.4841
  179SLPC  H14S20464   0.040   2.535   8.850  0.9792  0.2836  0.2449
  179SLPC  C21520465   0.061   2.739   8.869  0.1042  0.0023  0.2739
  179SLPC  H15R20466   0.128   2.725   8.781 -0.2369  0.9096 -0.1434
  179SLPC  H15S20467   0.118   2.728   8.963  1.0190 -1.8404 -0.4504
  179SLPC  C21620468  -0.003   2.877   8.853  0.1333  0.4496 -0.7298
  179SLPC  H16R20469  -0.089   2.892   8.923 -2.1338 -1.7664 -2.8268
  179SLPC  H16S20470  -0.040   2.887   8.749  0.3455  1.6128 -0.7042
  179SLPC  C21720471   0.096   2.987   8.876 -0.1062  0.7438 -0.7210
  179SLPC  H17R20472   0.182   2.974   8.807  0.9266  0.2623  0.6061
  179SLPC  H17S20473   0.141   2.959   8.974 -0.1326 -3.1054 -1.6542
  179SLPC  C21820474   0.043   3.130   8.892 -0.2816 -0.0504  0.0289
  179SLPC  H18R20475   0.123   3.199   8.927  1.3689 -2.8448  2.2313
  179SLPC  H18S20476  -0.044   3.139   8.960 -0.9146  1.0103 -0.8892
  179SLPC  H18T20477   0.007   3.157   8.791 -2.8209 -4.0365 -0.3570
  179SLPC   C3320478   0.179   2.287   9.663  1.3333  0.3526 -0.9181
  179SLPC   H3X20479   0.210   2.385   9.621  0.6176  0.2548 -1.7132
  179SLPC   H3Y20480   0.068   2.285   9.654  1.1062  1.6903  0.9709
  179SLPC   C3420481   0.256   2.172   9.580  0.1430  0.0262  0.3870
  179SLPC   H4X20482   0.358   2.158   9.621 -0.1202  2.3593  2.0417
  179SLPC   H4Y20483   0.280   2.201   9.475  0.5111  0.3502  0.5564
  179SLPC   C3520484   0.186   2.036   9.610 -0.8341  0.1077 -0.2043
  179SLPC   H5X20485   0.181   2.006   9.716 -1.0643  0.9664  0.0352
  179SLPC   H5Y20486   0.245   1.948   9.577  0.0634 -0.0077  1.6256
  179SLPC   C3620487   0.058   2.024   9.543  0.2212  0.1646 -0.0653
  179SLPC   H6X20488  -0.018   2.093   9.585  0.1875  0.2541 -0.2716
  179SLPC   H6Y20489   0.007   1.937   9.589  0.8418  0.6784  1.6889
  179SLPC   C3720490   0.046   2.034   9.388 -0.6344 -0.1009  0.2624
  179SLPC   H7X20491   0.078   1.941   9.338 -1.1250 -1.7519  2.8162
  179SLPC   H7Y20492   0.121   2.109   9.352 -0.1527 -0.2435  0.9376
  179SLPC   C3820493  -0.091   2.084   9.350 -0.2078 -0.4096  0.2911
  179SLPC   H8X20494  -0.123   2.176   9.404 -0.9475  0.9238 -2.2777
  179SLPC   H8Y20495  -0.160   1.998   9.365 -0.0291 -0.4113  1.1705
  179SLPC   C3920496  -0.094   2.125   9.192  0.1358  0.5024 -0.5150
  179SLPC   H9X20497  -0.060   2.037   9.134  0.1646  0.0007  0.2500
  179SLPC   H9Y20498  -0.015   2.201   9.175  1.6449 -0.7729  0.6439
  179SLPC  C31020499  -0.229   2.182   9.159  0.2619 -0.1863 -0.6680
  179SLPC  H10X20500  -0.239   2.275   9.219  2.0011  0.9325 -2.0092
  179SLPC  H10Y20501  -0.304   2.108   9.194 -0.7352  1.4980  0.8984
  179SLPC  C31120502  -0.254   2.218   9.018 -0.1473  0.3373 -0.0424
  179SLPC  H11X20503  -0.189   2.306   9.001 -1.0001  1.0302  0.1854
  179SLPC  H11Y20504  -0.353   2.268   9.009  0.3699  1.2177 -1.1213
  179SLPC  C31220505  -0.242   2.124   8.906  0.1547 -0.4935  0.0907
  179SLPC  H12X20506  -0.322   2.047   8.911  1.0669 -1.5947 -1.3596
  179SLPC  H12Y20507  -0.147   2.066   8.916 -0.6557 -1.7754  0.6647
  179SLPC  C31320508  -0.240   2.188   8.764 -0.2042 -0.5611 -0.5123
  179SLPC  H13X20509  -0.198   2.103   8.706 -1.3017 -0.4565 -1.4832
  179SLPC  H13Y20510  -0.162   2.267   8.754  1.7079 -2.5361 -2.4805
  179SLPC  C31420511  -0.369   2.240   8.711  1.0085  0.3622  0.2065
  179SLPC  H14X20512  -0.385   2.332   8.772  0.3656 -0.2931  1.0460
  179SLPC  H14Y20513  -0.451   2.169   8.735  1.7460  0.4586  3.3414
  179SLPC  C31520514  -0.379   2.269   8.559 -0.0960  0.1576 -0.0432
  179SLPC  H15X20515  -0.478   2.304   8.525 -0.6715 -1.4545 -0.1178
  179SLPC  H15Y20516  -0.355   2.171   8.512  0.3580 -0.0483  0.6056
  179SLPC  C31620517  -0.262   2.358   8.514  0.5096 -0.4751  0.2479
  179SLPC  H16X20518  -0.166   2.309   8.541  0.4066 -0.6177  0.3630
  179SLPC  H16Y20519  -0.270   2.446   8.581  1.7770 -0.9885  1.1207
  179SLPC  C31720520  -0.254   2.393   8.359 -0.1396 -0.0843 -0.1175
  179SLPC  H17X20521  -0.163   2.449   8.331 -1.3074  1.5911 -0.7108
  179SLPC  H17Y20522  -0.331   2.473   8.354  0.2421  0.3348  0.4542
  179SLPC  C31820523  -0.290   2.286   8.262 -1.1102 -0.0374  0.3493
  179SLPC  H18X20524  -0.395   2.249   8.270 -1.4639  0.9662  0.4422
  179SLPC  H18Y20525  -0.228   2.195   8.276 -1.6070 -0.6673 -1.3486
  179SLPC  H18Z20526  -0.275   2.325   8.160 -0.7900  1.5453  0.9751
  180SLPC     N20527   0.217   6.507  10.584  0.6627 -0.0251  0.4022
  180SLPC   C1320528   0.165   6.432  10.702 -0.5479  0.5902  0.1350
  180SLPC  H13A20529   0.067   6.469  10.727  0.4007  2.0025  1.9819
  180SLPC  H13B20530   0.174   6.325  10.692 -0.2608  0.6506 -0.2415
  180SLPC  H13C20531   0.228   6.458  10.786 -1.6049  1.4602  0.6741
  180SLPC   C1420532   0.139   6.468  10.464  0.6815  0.3378  0.1999
  180SLPC  H14A20533   0.192   6.480  10.371 -1.0004 -1.3394 -1.0508
  180SLPC  H14B20534   0.111   6.364  10.471  0.0153  0.5000  0.0596
  180SLPC  H14C20535   0.048   6.526  10.456  1.6509  2.0323  1.0443
  180SLPC   C1520536   0.357   6.454  10.561  0.9085  0.0893 -0.2598
  180SLPC  H15A20537   0.360   6.347  10.544 -0.4612  0.1674 -1.1552
  180SLPC  H15B20538   0.392   6.496  10.468 -0.1667 -0.8862 -1.1354
  180SLPC  H15C20539   0.424   6.476  10.643  1.1423  0.1090 -0.4562
  180SLPC   C1220540   0.224   6.659  10.601  0.2577 -0.3246  0.0380
  180SLPC  H12A20541   0.286   6.683  10.686 -1.0016 -0.0706  0.9159
  180SLPC  H12B20542   0.134   6.710  10.633  1.3467  0.6841  1.6401
  180SLPC   C1120543   0.292   6.733  10.491 -0.3907  0.6830  0.5687
  180SLPC  H11A20544   0.254   6.836  10.505 -2.5400 -0.0489  0.4046
  180SLPC  H11B20545   0.258   6.706  10.388  0.4809 -1.8320  0.8744
  180SLPC     P20546   0.509   6.816  10.616  0.0624 -0.0420  0.0121
  180SLPC   O1320547   0.443   6.804  10.749 -0.3772  0.2649  0.6781
  180SLPC   O1420548   0.654   6.779  10.617 -0.1682 -0.1838 -0.3449
  180SLPC   O1220549   0.434   6.725  10.506  0.4222 -0.1017 -0.7182
  180SLPC   O1120550   0.478   6.962  10.559 -0.7469  0.0963  0.5794
  180SLPC    C120551   0.453   7.005  10.422  0.2038  0.8121 -0.4936
  180SLPC    HA20552   0.433   6.919  10.354 -1.6480  1.8227 -1.2888
  180SLPC    HB20553   0.358   7.060  10.406  0.2462  0.7261 -1.0525
  180SLPC    C220554   0.567   7.085  10.367  0.2186 -0.4316 -0.4097
  180SLPC    HS20555   0.552   7.111  10.260  1.3784  3.0626  0.1652
  180SLPC   O2120556   0.695   7.012  10.376  0.4275 -0.3165 -0.0231
  180SLPC   C2120557   0.712   6.892  10.314 -0.4270 -0.0609 -0.2671
  180SLPC   O2220558   0.635   6.838  10.241  0.7863  0.1126  0.4073
  180SLPC   C2220559   0.864   6.854  10.322  0.4371  0.5041  0.1121
  180SLPC   H2R20560   0.916   6.931  10.384 -0.7370  0.1360  1.6292
  180SLPC   H2S20561   0.884   6.761  10.379  0.7296  0.5371  0.0638
  180SLPC    C320562   0.602   7.231  10.433 -0.3576  0.0338 -0.7532
  180SLPC    HX20563   0.603   7.227  10.544 -2.0324  1.9172 -0.5987
  180SLPC    HY20564   0.511   7.294  10.419 -1.4606 -0.4461  3.1107
  180SLPC   O3120565   0.722   7.301  10.371  0.5508 -0.3051 -0.0583
  180SLPC   C3120566   0.713   7.346  10.242  0.0506 -0.3799  0.2710
  180SLPC   O3220567   0.619   7.339  10.167 -1.1392 -0.0722 -0.5568
  180SLPC   C3220568   0.841   7.410  10.210  0.7444  0.4876  0.0083
  180SLPC   H2X20569   0.920   7.332  10.220  0.7556  0.4431 -0.3950
  180SLPC   H2Y20570   0.873   7.476  10.294  0.5913  1.1281 -0.4290
  180SLPC   C2320571   0.933   6.822  10.185  0.2676 -0.1288 -0.1141
  180SLPC   H3R20572   0.873   6.757  10.117 -0.8305  2.0331 -1.3204
  180SLPC   H3S20573   1.025   6.768  10.216  0.2481 -0.0781  0.0323
  180SLPC   C2420574   0.969   6.949  10.099 -0.3923 -0.8390 -0.6722
  180SLPC   H4R20575   1.048   6.916  10.028  0.4013 -0.9761  0.2527
  180SLPC   H4S20576   1.017   7.030  10.159  0.2444 -0.4803 -1.6389
  180SLPC   C2520577   0.853   7.020  10.030 -0.1706  0.4032 -0.2058
  180SLPC   H5R20578   0.897   7.109   9.979 -0.9835 -0.1935 -2.0309
  180SLPC   H5S20579   0.777   7.059  10.101 -1.0733  2.1182 -2.0006
  180SLPC   C2620580   0.787   6.939   9.916  0.7786  0.1496  1.1559
  180SLPC   H6R20581   0.736   6.845   9.947  0.9656 -0.4341 -0.2407
  180SLPC   H6S20582   0.873   6.915   9.850 -0.4071 -1.4092  0.0853
  180SLPC   C2720583   0.691   7.029   9.833  0.4951 -0.2253  0.2055
  180SLPC   H7R20584   0.740   7.127   9.811 -0.8645  0.7081  1.1490
  180SLPC   H7S20585   0.604   7.048   9.899 -0.3993 -0.5497 -0.8606
  180SLPC   C2820586   0.638   6.976   9.700  0.1165  0.4170 -0.0833
  180SLPC   H8R20587   0.572   7.058   9.666 -0.9951 -0.2308  0.4723
  180SLPC   H8S20588   0.574   6.888   9.721 -2.3977  2.0300 -0.6440
  180SLPC   C2920589   0.744   6.941   9.594 -0.8970 -0.7472  0.2804
  180SLPC   H9R20590   0.843   6.903   9.622 -0.6842 -1.3688 -1.2422
  180SLPC  C21020591   0.724   6.961   9.462 -1.3129  0.7375 -0.1467
  180SLPC  H10R20592   0.812   6.940   9.399 -0.5557  0.0940  1.0742
  180SLPC  C21120593   0.599   7.004   9.394 -0.7648 -0.0948 -0.8573
  180SLPC  H11R20594   0.633   7.041   9.295 -1.9523 -0.8774 -1.5882
  180SLPC  H11S20595   0.559   7.091   9.450  0.4700 -0.3526  0.4756
  180SLPC  C21220596   0.501   6.886   9.382 -0.1772 -0.4744 -0.2216
  180SLPC  H12R20597   0.436   6.869   9.469  0.2612  0.2519  0.2547
  180SLPC  C21320598   0.486   6.804   9.277  0.6136  0.8227 -0.4131
  180SLPC  H13R20599   0.408   6.726   9.286 -0.0435  1.3213 -1.5275
  180SLPC  C21420600   0.573   6.798   9.147 -0.3918 -0.1698  0.6196
  180SLPC  H14R20601   0.580   6.688   9.130  0.0942  0.2306 -2.1493
  180SLPC  H14S20602   0.672   6.850   9.149 -0.5952  0.4182 -1.6554
  180SLPC  C21520603   0.495   6.866   9.035  0.4127  0.0601  0.4923
  180SLPC  H15R20604   0.469   6.972   9.058  2.4099  0.7916 -0.4620
  180SLPC  H15S20605   0.400   6.808   9.026  1.2435 -0.9632 -3.9064
  180SLPC  C21620606   0.570   6.877   8.905 -0.2014  0.0683  0.2444
  180SLPC  H16R20607   0.637   6.789   8.891  0.3093  0.5343 -0.3190
  180SLPC  H16S20608   0.642   6.960   8.919  0.5256 -0.5175  0.0969
  180SLPC  C21720609   0.485   6.909   8.784 -0.6662 -0.5143  0.3264
  180SLPC  H17R20610   0.557   6.943   8.706  2.0858 -3.4116  1.3891
  180SLPC  H17S20611   0.426   6.996   8.818 -0.4136  0.5100 -1.6893
  180SLPC  C21820612   0.392   6.804   8.739  0.6080 -0.3505  0.4125
  180SLPC  H18R20613   0.433   6.700   8.745  0.8754 -0.4227 -1.8009
  180SLPC  H18S20614   0.357   6.817   8.634 -0.6331  1.4386  1.0075
  180SLPC  H18T20615   0.297   6.815   8.795  0.4996  1.6255 -0.1081
  180SLPC   C3320616   0.870   7.485  10.073  0.3861 -0.4333  0.5977
  180SLPC   H3X20617   0.960   7.546  10.094 -0.3892  0.6766  0.8231
  180SLPC   H3Y20618   0.780   7.548  10.056  2.0704  1.9035 -0.2208
  180SLPC   C3420619   0.916   7.399   9.953  0.2705 -0.4624 -0.6108
  180SLPC   H4X20620   0.839   7.319   9.947 -0.0508 -0.1337 -0.8663
  180SLPC   H4Y20621   1.016   7.358   9.980  0.9042  0.7483 -1.0645
  180SLPC   C3520622   0.915   7.491   9.824 -0.8140 -0.3036  0.5286
  180SLPC   H5X20623   0.988   7.575   9.824 -0.9433 -0.1790 -0.2021
  180SLPC   H5Y20624   0.815   7.538   9.824 -0.6491  0.2951  3.9146
  180SLPC   C3620625   0.931   7.395   9.710 -0.4616  0.5982 -0.4097
  180SLPC   H6X20626   0.855   7.315   9.725  0.5100 -0.8250 -2.4004
  180SLPC   H6Y20627   1.034   7.354   9.704  0.0085  1.7386 -0.3532
  180SLPC   C3720628   0.893   7.465   9.573  0.2571 -0.1643 -0.0498
  180SLPC   H7X20629   0.959   7.546   9.535 -0.8403  0.1231 -1.4280
  180SLPC   H7Y20630   0.793   7.510   9.590 -0.1044 -0.6622 -0.7847
  180SLPC   C3820631   0.870   7.353   9.467 -0.7037  0.5958  0.0730
  180SLPC   H8X20632   0.810   7.273   9.516  2.4876 -1.9494  0.1897
  180SLPC   H8Y20633   0.964   7.301   9.439 -0.7698 -0.3732  1.5591
  180SLPC   C3920634   0.792   7.388   9.341  0.9430 -0.2888 -0.3153
  180SLPC   H9X20635   0.815   7.493   9.313 -0.8714  0.4151  0.6816
  180SLPC   H9Y20636   0.682   7.382   9.356  1.2055 -0.0815  1.9950
  180SLPC  C31020637   0.833   7.293   9.230  0.2775 -0.2612  0.5110
  180SLPC  H10X20638   0.793   7.196   9.266  0.5589 -0.6270 -0.1549
  180SLPC  H10Y20639   0.942   7.275   9.229  0.0443 -2.2753  2.3610
  180SLPC  C31120640   0.769   7.325   9.092 -0.1697  0.2458 -0.7220
  180SLPC  H11X20641   0.786   7.428   9.055  1.9669  1.4433  3.0529
  180SLPC  H11Y20642   0.660   7.317   9.111 -0.3529  2.4938 -0.5748
  180SLPC  C31220643   0.812   7.228   8.978 -0.1059  0.6991 -0.2887
  180SLPC  H12X20644   0.815   7.128   9.024 -2.1871  0.1934 -1.0983
  180SLPC  H12Y20645   0.913   7.264   8.949  0.4091 -0.5561 -0.0937
  180SLPC  C31320646   0.727   7.237   8.849  0.1435  0.0431  0.1513
  180SLPC  H13X20647   0.638   7.176   8.874  0.1026 -2.0745 -4.3289
  180SLPC  H13Y20648   0.781   7.187   8.766  0.9736 -0.2893  0.8718
  180SLPC  C31420649   0.683   7.372   8.804  0.6453  0.1895  0.2585
  180SLPC  H14X20650   0.764   7.448   8.801 -0.2038  1.1448  0.5736
  180SLPC  H14Y20651   0.602   7.410   8.871 -0.5007  0.8058 -1.4039
  180SLPC  C31520652   0.607   7.366   8.674 -0.9103  0.4547  0.5980
  180SLPC  H15X20653   0.520   7.298   8.685 -0.5711 -0.1954 -0.5798
  180SLPC  H15Y20654   0.673   7.326   8.595 -1.5815  2.4741 -1.0640
  180SLPC  C31620655   0.559   7.502   8.624  0.2837  0.3422  0.1379
  180SLPC  H16X20656   0.480   7.531   8.696 -0.2098  1.6641 -0.8925
  180SLPC  H16Y20657   0.513   7.497   8.524 -1.3859  1.2403  0.8203
  180SLPC  C31720658   0.668   7.621   8.618  0.3385  0.1153 -0.9653
  180SLPC  H17X20659   0.743   7.596   8.541  3.3929  0.1860  1.7868
  180SLPC  H17Y20660   0.731   7.636   8.708 -0.2223  2.8499 -0.9614
  180SLPC  C31820661   0.609   7.761   8.583  0.4171 -0.3038  0.7741
  180SLPC  H18X20662   0.546   7.748   8.492  1.2509 -0.9588  0.2716
  180SLPC  H18Y20663   0.691   7.837   8.576 -0.7954  1.0599  0.8418
  180SLPC  H18Z20664   0.541   7.794   8.664 -1.0096  0.5295 -0.6879
  181SLPC     N20665   3.688   3.992  11.531  0.0086 -0.2639  0.5953
  181SLPC   C1320666   3.746   4.125  11.564 -0.1812  0.1840 -0.0009
  181SLPC  H13A20667   3.675   4.188  11.615  2.0408  1.4163  1.7703
  181SLPC  H13B20668   3.827   4.118  11.636 -1.8794  0.3423  2.0091
  181SLPC  H13C20669   3.781   4.177  11.476 -2.2063  1.9280  0.1472
  181SLPC   C1420670   3.688   3.906  11.647  0.1280  0.0402  0.0634
  181SLPC  H14A20671   3.789   3.873  11.663  0.3416  1.5952  2.5160
  181SLPC  H14B20672   3.662   3.960  11.737  2.4173 -2.0642  2.1231
  181SLPC  H14C20673   3.627   3.821  11.620 -0.7160  1.6156 -3.6498
  181SLPC   C1520674   3.784   3.917  11.438  0.4692 -0.4197 -0.2780
  181SLPC  H15A20675   3.771   3.957  11.338 -1.2938 -0.5258 -0.1103
  181SLPC  H15B20676   3.887   3.926  11.470  0.4013  0.8571 -0.3386
  181SLPC  H15C20677   3.758   3.813  11.433 -0.7598 -0.1244 -0.3613
  181SLPC   C1220678   3.548   4.003  11.480  0.2632  0.2568  0.4093
  181SLPC  H12A20679   3.498   4.062  11.555 -1.7616  0.0397 -0.6914
  181SLPC  H12B20680   3.513   3.901  11.471  2.1347 -0.4186  0.4816
  181SLPC   C1120681   3.529   4.063  11.342  0.0325 -0.2835 -0.4052
  181SLPC  H11A20682   3.555   4.170  11.356 -1.8426  0.1907 -0.2457
  181SLPC  H11B20683   3.419   4.067  11.324 -0.1092 -0.3235  0.4425
  181SLPC     P20684   3.670   4.090  11.130  0.1949 -0.1085  0.1025
  181SLPC   O1320685   3.784   4.145  11.202  0.1693 -0.2056 -0.0429
  181SLPC   O1420686   3.700   4.010  11.006  0.4723 -0.0948 -0.9264
  181SLPC   O1220687   3.595   4.000  11.234  0.3348 -0.0186 -0.0779
  181SLPC   O1120688   3.572   4.214  11.108 -0.2548 -0.4201  0.2388
  181SLPC    C120689   3.475   4.211  11.008 -1.0049  0.2771  0.3125
  181SLPC    HA20690   3.448   4.106  10.984 -0.0612  0.2999 -0.9520
  181SLPC    HB20691   3.381   4.257  11.047 -2.7622  0.0194 -3.2134
  181SLPC    C220692   3.504   4.300  10.884  0.6284 -0.0233 -0.0547
  181SLPC    HS20693   3.404   4.313  10.837 -0.2210  0.4386  1.8040
  181SLPC   O2120694   3.598   4.232  10.800 -0.8275 -0.5570  0.1894
  181SLPC   C2120695   3.538   4.129  10.733 -0.4938 -0.0067 -0.1212
  181SLPC   O2220696   3.420   4.110  10.730  0.2900  0.2651  0.6315
  181SLPC   C2220697   3.644   4.038  10.664  0.0895 -0.5972  0.3907
  181SLPC   H2R20698   3.718   4.101  10.611 -1.1428 -0.6706 -1.4812
  181SLPC   H2S20699   3.692   3.985  10.750 -1.0036 -1.3938  0.5184
  181SLPC    C320700   3.551   4.439  10.921 -0.0478 -0.2665  0.5230
  181SLPC    HX20701   3.623   4.442  11.007 -1.2636  1.5033  1.5473
  181SLPC    HY20702   3.465   4.486  10.973  0.0266 -1.2062  1.5472
  181SLPC   O3120703   3.601   4.510  10.805 -0.0669  0.2652  0.0358
  181SLPC   C3120704   3.733   4.475  10.775  0.3279  0.0323  0.4509
  181SLPC   O3220705   3.798   4.393  10.835  0.4147  0.4223  0.3197
  181SLPC   C3220706   3.790   4.556  10.660  0.0177 -0.4957  0.1853
  181SLPC   H2X20707   3.899   4.533  10.651  0.0371 -0.8292  1.1626
  181SLPC   H2Y20708   3.779   4.660  10.697 -1.8004 -1.5659  2.9619
  181SLPC   C2320709   3.590   3.928  10.560 -0.3128 -0.2685  0.1281
  181SLPC   H3R20710   3.508   3.872  10.610 -1.8041  1.8671  0.2337
  181SLPC   H3S20711   3.675   3.871  10.519 -0.5429  0.6506 -1.7375
  181SLPC   C2420712   3.525   4.006  10.438 -0.2000  0.6833  0.1329
  181SLPC   H4R20713   3.600   4.062  10.378  0.6904  0.0609  0.6439
  181SLPC   H4S20714   3.449   4.082  10.467 -0.4173  0.7726 -0.6493
  181SLPC   C2520715   3.447   3.905  10.345 -0.1563 -0.5945 -0.5571
  181SLPC   H5R20716   3.369   3.861  10.410  2.0794 -3.6267  0.2904
  181SLPC   H5S20717   3.509   3.819  10.313  0.0131  0.4828 -3.4436
  181SLPC   C2620718   3.376   3.973  10.221  0.5254  0.4351 -0.1876
  181SLPC   H6R20719   3.445   4.036  10.161  0.1321 -0.1285 -1.2561
  181SLPC   H6S20720   3.299   4.034  10.272 -1.7591 -0.4777 -2.3615
  181SLPC   C2720721   3.300   3.879  10.125 -0.8547  0.2135  0.1283
  181SLPC   H7R20722   3.230   3.938  10.063 -1.2067 -0.4203 -0.0866
  181SLPC   H7S20723   3.234   3.809  10.181 -2.4767  0.6831 -1.1394
  181SLPC   C2820724   3.391   3.810  10.025  0.5638 -0.2071 -0.3400
  181SLPC   H8R20725   3.319   3.734   9.988  1.5229 -0.7921 -1.0636
  181SLPC   H8S20726   3.457   3.757  10.098 -1.7290  0.6874  2.5886
  181SLPC   C2920727   3.460   3.884   9.916 -0.0024 -0.3262  0.2197
  181SLPC   H9R20728   3.529   3.962   9.948 -0.5848  0.4288 -0.3100
  181SLPC  C21020729   3.415   3.898   9.787  0.2800 -0.2370  0.0181
  181SLPC  H10R20730   3.483   3.952   9.719  1.1968  0.8830  1.7221
  181SLPC  C21120731   3.286   3.851   9.719 -0.1080  0.7974 -0.3301
  181SLPC  H11R20732   3.215   3.798   9.786  1.1842  0.4039  0.7830
  181SLPC  H11S20733   3.310   3.761   9.658 -3.1933 -1.6571  1.7517
  181SLPC  C21220734   3.206   3.939   9.624 -0.5291 -0.7366  0.5260
  181SLPC  H12R20735   3.208   3.910   9.518  2.2913  2.7396 -0.5720
  181SLPC  C21320736   3.152   4.063   9.655 -0.6828 -0.5577  0.5170
  181SLPC  H13R20737   3.124   4.127   9.570  0.3249  0.6290  1.0383
  181SLPC  C21420738   3.162   4.112   9.800 -0.2717  0.3985 -0.2304
  181SLPC  H14R20739   3.246   4.185   9.794 -0.3470  0.6478  1.3299
  181SLPC  H14S20740   3.183   4.029   9.870 -0.4075  0.9458  0.4656
  181SLPC  C21520741   3.036   4.179   9.851 -0.2628 -0.5473  0.6734
  181SLPC  H15R20742   2.947   4.113   9.848  0.3868 -1.4425  0.6192
  181SLPC  H15S20743   3.011   4.259   9.778 -0.3103 -1.9893 -0.9239
  181SLPC  C21620744   3.063   4.241   9.990 -0.1754  0.1093 -1.0242
  181SLPC  H16R20745   3.155   4.303   9.992  0.6702 -1.1274 -0.9038
  181SLPC  H16S20746   3.075   4.157  10.061  0.9468 -0.0195 -1.3589
  181SLPC  C21720747   2.961   4.344  10.032  0.2451 -0.8577  0.1975
  181SLPC  H17R20748   2.866   4.288  10.046 -0.5352 -0.2263 -2.1172
  181SLPC  H17S20749   2.954   4.413   9.945 -1.7036  0.2192  1.1547
  181SLPC  C21820750   3.001   4.424  10.155  0.0155 -0.5045  0.5582
  181SLPC  H18R20751   3.014   4.531  10.132 -1.0081 -0.6066 -0.5554
  181SLPC  H18S20752   3.099   4.391  10.197  1.5522  0.1803 -2.2119
  181SLPC  H18T20753   2.916   4.410  10.225 -1.5707 -0.5723 -1.3060
  181SLPC   C3320754   3.705   4.539  10.531  0.0214 -0.1574  0.4663
  181SLPC   H3X20755   3.726   4.623  10.462 -0.3888 -0.2810  0.1844
  181SLPC   H3Y20756   3.597   4.561  10.547  0.0146  2.0447 -1.9135
  181SLPC   C3420757   3.716   4.403  10.463 -0.0167 -0.4156 -0.0982
  181SLPC   H4X20758   3.660   4.405  10.367 -1.6140  0.6667  0.8174
  181SLPC   H4Y20759   3.672   4.330  10.534  1.1634  0.1730  1.2900
  181SLPC   C3520760   3.858   4.363  10.420 -0.0757  0.2087  0.1610
  181SLPC   H5X20761   3.858   4.263  10.372  1.3971 -1.0479  2.6018
  181SLPC   H5Y20762   3.920   4.353  10.511  0.0690  2.0630  0.3049
  181SLPC   C3620763   3.916   4.469  10.329  0.0740 -0.2375  0.4839
  181SLPC   H6X20764   3.942   4.560  10.386 -2.0308  0.0077  1.1107
  181SLPC   H6Y20765   3.836   4.499  10.259  0.0339  0.5092  0.8471
  181SLPC   C3720766   4.050   4.435  10.268  0.0809 -0.5174 -0.7643
  181SLPC   H7X20767   4.117   4.406  10.352  0.5143 -1.0171 -1.2782
  181SLPC   H7Y20768   4.097   4.515  10.208  1.6293 -0.1597  0.8506
  181SLPC   C3820769   4.047   4.314  10.171  0.3359  0.4311  0.0002
  181SLPC   H8X20770   4.015   4.219  10.218 -2.9356  1.2493 -0.3771
  181SLPC   H8Y20771   4.157   4.315  10.150  0.4467 -0.2755  0.5354
  181SLPC   C3920772   3.961   4.349  10.051  0.1196 -0.3175 -0.3228
  181SLPC   H9X20773   3.862   4.357  10.100  1.2667 -1.4683  2.3599
  181SLPC   H9Y20774   3.963   4.257   9.990 -1.5498 -0.8347  0.3461
  181SLPC  C31020775   4.002   4.469   9.972  0.4588  0.2818 -0.1745
  181SLPC  H10X20776   4.111   4.469   9.951  0.3136  1.3279 -1.0075
  181SLPC  H10Y20777   3.984   4.561  10.032 -1.8533 -0.9871  1.2339
  181SLPC  C31120778   3.924   4.490   9.840 -0.1436  0.2444  0.1389
  181SLPC  H11X20779   3.825   4.439   9.845  0.7502 -1.4909  0.8149
  181SLPC  H11Y20780   3.966   4.427   9.759 -0.6666 -0.5712  0.4892
  181SLPC  C31220781   3.914   4.644   9.809 -0.9695  0.1202 -0.5789
  181SLPC  H12X20782   4.012   4.691   9.788  0.7568 -2.6827  0.5330
  181SLPC  H12Y20783   3.892   4.686   9.909  0.1099  0.5022 -0.4828
  181SLPC  C31320784   3.803   4.675   9.706  0.0871 -0.5751 -0.1489
  181SLPC  H13X20785   3.810   4.783   9.681  2.8161 -0.1675  1.9334
  181SLPC  H13Y20786   3.708   4.644   9.754 -0.6824  0.8761 -0.6820
  181SLPC  C31420787   3.811   4.607   9.565 -0.1118  0.4199  0.1637
  181SLPC  H14X20788   3.741   4.648   9.489  0.6913 -1.1246 -1.4624
  181SLPC  H14Y20789   3.792   4.499   9.581 -0.3642 -0.0221 -2.6152
  181SLPC  C31520790   3.963   4.619   9.512  0.0000 -0.1027 -0.1414
  181SLPC  H15X20791   4.040   4.595   9.588 -1.1274 -0.1553  1.0258
  181SLPC  H15Y20792   3.975   4.723   9.476  0.2956  0.1268  0.5880
  181SLPC  C31620793   3.991   4.524   9.391  0.3707 -0.9075 -0.1795
  181SLPC  H16X20794   3.899   4.531   9.329 -1.3586 -1.4333  2.1817
  181SLPC  H16Y20795   3.996   4.421   9.432  2.3312 -0.7301  0.1483
  181SLPC  C31720796   4.114   4.557   9.301 -0.6941  0.0512 -0.2721
  181SLPC  H17X20797   4.201   4.542   9.369 -0.7461  0.1866 -0.1741
  181SLPC  H17Y20798   4.115   4.663   9.269  2.4526  0.2027 -0.0401
  181SLPC  C31820799   4.120   4.473   9.175 -0.5260 -0.6788  0.0750
  181SLPC  H18X20800   4.109   4.366   9.203 -1.8965 -0.7313 -0.6159
  181SLPC  H18Y20801   4.224   4.473   9.134 -0.7819  2.1124 -0.7898
  181SLPC  H18Z20802   4.053   4.510   9.095  0.9885  0.6218 -0.6609
  182SLPC     N20803   1.550   5.543  10.780 -0.5183 -0.8881  0.4977
  182SLPC   C1320804   1.615   5.644  10.691 -0.4462  0.2283  0.9882
  182SLPC  H13A20805   1.548   5.724  10.663  1.1931  0.6090 -2.2832
  182SLPC  H13B20806   1.708   5.679  10.734  2.0925 -1.6781 -2.4823
  182SLPC  H13C20807   1.645   5.602  10.597  0.8676  0.7369  1.1564
  182SLPC   C1420808   1.510   5.616  10.910 -0.5511  0.6788  0.2251
  182SLPC  H14A20809   1.420   5.675  10.899 -0.7969  0.7300  2.0932
  182SLPC  H14B20810   1.479   5.550  10.989  0.0439 -1.0298 -0.9181
  182SLPC  H14C20811   1.598   5.663  10.952 -0.0323 -0.8680  0.9179
  182SLPC   C1520812   1.651   5.442  10.816  0.4081 -0.3507 -0.4541
  182SLPC  H15A20813   1.599   5.364  10.870 -1.6682 -0.3580 -2.3095
  182SLPC  H15B20814   1.698   5.403  10.726 -1.4221  1.3976 -2.2466
  182SLPC  H15C20815   1.733   5.480  10.875 -0.1218  0.3184 -0.1438
  182SLPC   C1220816   1.424   5.484  10.713  0.1249 -0.3699 -0.0803
  182SLPC  H12A20817   1.376   5.429  10.793  0.0684  0.6027  0.5760
  182SLPC  H12B20818   1.463   5.415  10.640  0.5163  0.1217 -0.3385
  182SLPC   C1120819   1.321   5.565  10.645  0.1236 -0.2391  0.8750
  182SLPC  H11A20820   1.242   5.502  10.598 -0.8773  1.0909  0.7246
  182SLPC  H11B20821   1.378   5.603  10.558  1.1617  0.0659  1.6715
  182SLPC     P20822   1.155   5.616  10.833  0.3533  0.1721 -0.1486
  182SLPC   O1320823   1.219   5.519  10.922 -0.4179  0.2252 -0.2199
  182SLPC   O1420824   1.085   5.732  10.893  0.2812  0.1594 -0.5822
  182SLPC   O1220825   1.266   5.670  10.729  0.0994  0.2060  0.1911
  182SLPC   O1120826   1.058   5.533  10.739  0.1786 -0.0696  0.0920
  182SLPC    C120827   0.949   5.580  10.658 -0.1836  0.1774  0.7289
  182SLPC    HA20828   0.880   5.496  10.636 -1.8401  1.1107  2.0994
  182SLPC    HB20829   0.885   5.651  10.714 -0.9453  0.8024 -0.8730
  182SLPC    C220830   1.005   5.622  10.511 -0.5181  0.0955  0.1550
  182SLPC    HS20831   1.084   5.555  10.473 -0.7352  0.9585 -1.9865
  182SLPC   O2120832   1.048   5.756  10.521 -0.1114 -0.3482 -0.1121
  182SLPC   C2120833   1.131   5.786  10.421 -0.1042 -0.4039  0.1533
  182SLPC   O2220834   1.163   5.708  10.334 -0.4799 -0.4437 -0.6402
  182SLPC   C2220835   1.184   5.926  10.430 -0.0069 -0.3074 -0.0820
  182SLPC   H2R20836   1.095   5.992  10.414  0.8715  1.5058  1.9326
  182SLPC   H2S20837   1.222   5.957  10.530 -0.7603  0.4513 -0.0158
  182SLPC    C320838   0.877   5.617  10.419 -0.1469 -0.0857  0.1293
  182SLPC    HX20839   0.803   5.684  10.468  1.0891  0.8945  0.6987
  182SLPC    HY20840   0.835   5.514  10.412  1.0999 -0.7498  1.7714
  182SLPC   O3120841   0.902   5.670  10.282 -0.1315 -0.0664 -0.1597
  182SLPC   C3120842   0.943   5.589  10.191  0.1155  0.2727 -0.1186
  182SLPC   O3220843   0.953   5.469  10.202 -0.0531 -0.0170 -0.3196
  182SLPC   C3220844   0.988   5.669  10.070 -0.3379  0.3057  0.7656
  182SLPC   H2X20845   1.053   5.752  10.105  0.2060 -0.0839  0.6874
  182SLPC   H2Y20846   0.897   5.722  10.034 -1.4360  0.3568  3.3737
  182SLPC   C2320847   1.289   5.968  10.325  0.7063 -0.4800 -0.4303
  182SLPC   H3R20848   1.352   5.883  10.292 -1.7918 -2.4996 -0.3278
  182SLPC   H3S20849   1.353   6.046  10.372 -0.2995  0.0872  0.0275
  182SLPC   C2420850   1.234   6.032  10.204 -0.1435 -0.5101 -0.5003
  182SLPC   H4R20851   1.147   6.095  10.232  1.5797  0.7355  2.5607
  182SLPC   H4S20852   1.199   5.966  10.122 -1.8507 -0.0098 -0.2175
  182SLPC   C2520853   1.340   6.134  10.134 -0.2181 -0.3315 -0.1914
  182SLPC   H5R20854   1.430   6.068  10.142  0.8375  1.2389  2.9432
  182SLPC   H5S20855   1.364   6.220  10.201  1.0155 -0.7781 -0.0267
  182SLPC   C2620856   1.303   6.195  10.000  0.5064 -0.2770 -0.2743
  182SLPC   H6R20857   1.227   6.273  10.022  0.3877 -0.0591 -1.3929
  182SLPC   H6S20858   1.247   6.120   9.940 -0.8407 -0.7779  1.5545
  182SLPC   C2720859   1.411   6.256   9.910 -0.3773  0.4161  0.0899
  182SLPC   H7R20860   1.476   6.172   9.877 -0.5777  0.8134 -1.4051
  182SLPC   H7S20861   1.477   6.326   9.964  2.3534 -0.7740 -1.5192
  182SLPC   C2820862   1.356   6.334   9.785  0.0586  0.5894  0.1294
  182SLPC   H8R20863   1.303   6.423   9.825 -2.6621  0.1404 -2.1756
  182SLPC   H8S20864   1.274   6.268   9.748 -1.5053 -0.2879  4.5246
  182SLPC   C2920865   1.469   6.367   9.690  0.1625  0.8938 -0.4535
  182SLPC   H9R20866   1.564   6.399   9.735  0.3869 -0.2445 -0.0673
  182SLPC  C21020867   1.472   6.356   9.552 -0.3315 -0.0289 -0.0580
  182SLPC  H10R20868   1.563   6.375   9.494  0.0569 -1.8775 -0.1204
  182SLPC  C21120869   1.355   6.309   9.464  0.5110 -0.0889  0.1016
  182SLPC  H11R20870   1.267   6.271   9.519  0.3744  0.9307  0.6058
  182SLPC  H11S20871   1.391   6.221   9.405 -0.7704 -1.1698  0.8958
  182SLPC  C21220872   1.319   6.428   9.383 -0.2753 -0.5860  0.4464
  182SLPC  H12R20873   1.260   6.504   9.436  0.1552 -0.7311  1.1482
  182SLPC  C21320874   1.354   6.458   9.255 -0.7665  0.4628 -0.2806
  182SLPC  H13R20875   1.317   6.557   9.222  1.1206  1.3859  0.2274
  182SLPC  C21420876   1.438   6.388   9.151 -0.6130 -0.1957 -0.0618
  182SLPC  H14R20877   1.385   6.312   9.089  3.0223 -2.0278 -1.1940
  182SLPC  H14S20878   1.513   6.322   9.200  0.5385  2.3661  1.8606
  182SLPC  C21520879   1.538   6.474   9.067 -0.2874 -0.1604 -0.8743
  182SLPC  H15R20880   1.604   6.396   9.022  0.9228 -0.1642  0.7999
  182SLPC  H15S20881   1.604   6.530   9.137 -0.7164 -1.2053  0.4019
  182SLPC  C21620882   1.463   6.559   8.968  0.2326  0.0722  0.7047
  182SLPC  H16R20883   1.531   6.646   8.954 -0.0652  0.4068  1.2519
  182SLPC  H16S20884   1.380   6.607   9.025  1.5524  1.0948  1.8335
  182SLPC  C21720885   1.425   6.485   8.841  0.2538 -0.0455 -0.2022
  182SLPC  H17R20886   1.343   6.413   8.859 -2.0348  2.5531  0.3502
  182SLPC  H17S20887   1.510   6.419   8.811 -0.1482 -0.6830  0.0356
  182SLPC  C21820888   1.372   6.559   8.719 -0.2248 -0.3375  0.1493
  182SLPC  H18R20889   1.461   6.610   8.677 -0.1924 -1.0491 -0.6672
  182SLPC  H18S20890   1.285   6.620   8.752 -0.2114 -2.0593  3.8096
  182SLPC  H18T20891   1.343   6.485   8.642  0.1872 -0.7045  0.3432
  182SLPC   C3320892   1.057   5.594   9.954 -0.3651  0.6052  0.5908
  182SLPC   H3X20893   1.134   5.536  10.010 -0.7205 -1.1109 -0.6347
  182SLPC   H3Y20894   1.108   5.662   9.883  0.6008 -2.3181 -1.7174
  182SLPC   C3420895   0.969   5.500   9.865 -0.2755 -0.0712  0.4916
  182SLPC   H4X20896   0.902   5.432   9.922  0.9856  0.1591  2.3000
  182SLPC   H4Y20897   1.034   5.442   9.796 -0.3739  2.9779 -2.4421
  182SLPC   C3520898   0.873   5.566   9.763 -0.5468  0.1786 -0.3908
  182SLPC   H5X20899   0.820   5.645   9.821  1.5637  1.6894 -0.3817
  182SLPC   H5Y20900   0.805   5.485   9.729  1.3280 -1.7714  0.2652
  182SLPC   C3620901   0.942   5.624   9.646  0.2626 -0.0299 -0.0297
  182SLPC   H6X20902   1.039   5.673   9.669 -0.0407  0.3739  0.3942
  182SLPC   H6Y20903   0.872   5.698   9.602 -1.0644 -2.6198 -2.5696
  182SLPC   C3720904   0.964   5.524   9.535  0.0044 -0.5268  0.1462
  182SLPC   H7X20905   0.860   5.495   9.508 -1.3967  3.4856  0.4923
  182SLPC   H7Y20906   1.039   5.452   9.575  2.3141  0.7223 -1.7061
  182SLPC   C3820907   1.020   5.585   9.416  0.2077  0.0275  0.0331
  182SLPC   H8X20908   1.118   5.637   9.426 -0.1234  0.1607  3.7995
  182SLPC   H8Y20909   0.943   5.655   9.376 -2.7586 -2.9142  0.2511
  182SLPC   C3920910   1.038   5.475   9.299 -0.6308 -0.7727 -0.5958
  182SLPC   H9X20911   0.942   5.430   9.268 -1.9191  0.2766  1.6049
  182SLPC   H9Y20912   1.120   5.402   9.315 -1.1757 -1.0984  0.9099
  182SLPC  C31020913   1.070   5.539   9.168  0.4156  0.0922  0.4543
  182SLPC  H10X20914   1.164   5.599   9.170 -0.8554  2.2425 -0.3880
  182SLPC  H10Y20915   0.980   5.597   9.138 -1.2077 -1.6572  1.7343
  182SLPC  C31120916   1.076   5.434   9.061 -0.3056 -0.1672 -0.2948
  182SLPC  H11X20917   0.978   5.384   9.049 -0.3857 -0.3191  0.9160
  182SLPC  H11Y20918   1.143   5.351   9.091  0.5424  0.4125 -0.5333
  182SLPC  C31220919   1.130   5.497   8.931  0.5174  0.0770  0.3131
  182SLPC  H12X20920   1.223   5.552   8.956  0.8048 -0.0150 -0.5220
  182SLPC  H12Y20921   1.062   5.566   8.877 -0.5575 -1.5976 -0.5485
  182SLPC  C31320922   1.158   5.380   8.837  0.2696  0.1545 -0.3690
  182SLPC  H13X20923   1.058   5.332   8.831  0.0393  0.5868 -0.0125
  182SLPC  H13Y20924   1.233   5.309   8.877 -0.4107 -1.3068 -1.5568
  182SLPC  C31420925   1.204   5.428   8.691  0.4335  0.3729 -0.1781
  182SLPC  H14X20926   1.295   5.490   8.694  1.1839 -0.6928  2.5542
  182SLPC  H14Y20927   1.122   5.497   8.662  0.9603  1.2133  0.2941
  182SLPC  C31520928   1.204   5.308   8.586 -0.2915  0.5098 -0.4286
  182SLPC  H15X20929   1.106   5.263   8.561 -0.4000  0.5290 -0.0494
  182SLPC  H15Y20930   1.269   5.225   8.621 -1.1140  1.2850  3.3836
  182SLPC  C31620931   1.254   5.361   8.450 -0.4627 -0.2108 -0.1754
  182SLPC  H16X20932   1.322   5.448   8.468  1.7176 -1.6283 -1.1719
  182SLPC  H16Y20933   1.164   5.396   8.395 -0.8281  1.2912  1.2957
  182SLPC  C31720934   1.323   5.250   8.367 -0.2104 -0.0329  0.3729
  182SLPC  H17X20935   1.391   5.203   8.441 -0.8886  0.4049  1.3125
  182SLPC  H17Y20936   1.370   5.293   8.276 -0.1033 -1.2896 -0.1807
  182SLPC  C31820937   1.229   5.138   8.326  0.0372 -0.7535  0.1841
  182SLPC  H18X20938   1.285   5.052   8.284 -1.8085 -1.6981 -0.4289
  182SLPC  H18Y20939   1.160   5.175   8.248  1.2495  0.1585 -0.4767
  182SLPC  H18Z20940   1.165   5.097   8.408 -1.1794  1.8110  0.6019
  183SLPC     N20941   2.583   3.244  10.834  0.2147  1.0340 -1.3640
  183SLPC   C1320942   2.680   3.184  10.940  0.2211 -0.6866 -0.2239
  183SLPC  H13A20943   2.692   3.250  11.025 -1.6729  0.4844 -0.8031
  183SLPC  H13B20944   2.644   3.092  10.982 -0.3988  0.9776  3.2736
  183SLPC  H13C20945   2.779   3.168  10.900  0.8173 -1.5507  1.5148
  183SLPC   C1420946   2.460   3.279  10.915 -0.4448 -0.4179 -0.2541
  183SLPC  H14A20947   2.484   3.327  11.009  0.0613  1.2356 -1.1775
  183SLPC  H14B20948   2.402   3.348  10.855  0.1626 -0.8537 -1.3767
  183SLPC  H14C20949   2.401   3.194  10.947 -1.0289  0.2712  0.5383
  183SLPC   C1520950   2.542   3.144  10.728  1.1475  0.5333 -0.3061
  183SLPC  H15A20951   2.464   3.191  10.670  1.0683  0.1560 -0.5066
  183SLPC  H15B20952   2.627   3.106  10.673  0.3123 -1.4241 -0.3327
  183SLPC  H15C20953   2.505   3.060  10.786  1.3306 -0.0714 -1.0450
  183SLPC   C1220954   2.634   3.369  10.774 -0.0244 -1.0363  0.1786
  183SLPC  H12A20955   2.715   3.345  10.707 -1.2484 -0.4837 -1.5614
  183SLPC  H12B20956   2.668   3.442  10.847  4.7754  0.6549 -3.1809
  183SLPC   C1120957   2.538   3.455  10.675  0.0311  0.3042 -0.8585
  183SLPC  H11A20958   2.511   3.388  10.591  0.3409 -2.5392  1.1636
  183SLPC  H11B20959   2.603   3.537  10.638 -0.6316  1.7132  0.9483
  183SLPC     P20960   2.396   3.650  10.803 -0.5622 -0.1919  0.1174
  183SLPC   O1320961   2.248   3.671  10.812 -0.1271 -0.8403  0.5538
  183SLPC   O1420962   2.484   3.674  10.920  0.5284 -0.3822 -0.9530
  183SLPC   O1220963   2.426   3.506  10.749  0.1712  0.9215  0.2520
  183SLPC   O1120964   2.461   3.744  10.691 -0.0872 -1.2165  0.3486
  183SLPC    C120965   2.385   3.797  10.577  0.3692  0.0351 -0.2453
  183SLPC    HA20966   2.280   3.759  10.570  0.4629 -1.1198  3.1848
  183SLPC    HB20967   2.371   3.905  10.600 -0.3357  0.1901 -1.3351
  183SLPC    C220968   2.460   3.773  10.443 -0.6758  0.6122 -0.1231
  183SLPC    HS20969   2.507   3.673  10.450  0.6218  1.0307 -1.9967
  183SLPC   O2120970   2.573   3.864  10.428  0.5645 -0.3041  0.5160
  183SLPC   C2120971   2.684   3.837  10.502 -0.1984  0.3127 -0.3772
  183SLPC   O2220972   2.702   3.729  10.555  0.1255  0.4482  0.2333
  183SLPC   C2220973   2.796   3.939  10.466 -0.3406  0.4306 -0.3999
  183SLPC   H2R20974   2.819   3.927  10.358 -1.5519  2.7694 -0.9832
  183SLPC   H2S20975   2.764   4.043  10.491  0.0523  0.1061  1.6450
  183SLPC    C320976   2.372   3.785  10.315  1.0793  0.8510 -0.7310
  183SLPC    HX20977   2.321   3.883  10.310  1.0429  0.9373  0.9305
  183SLPC    HY20978   2.287   3.713  10.318  1.8523 -0.0879  2.4022
  183SLPC   O3120979   2.451   3.758  10.194  0.1595  0.2450 -0.1733
  183SLPC   C3120980   2.450   3.865  10.109 -0.5467  0.0159 -0.2590
  183SLPC   O3220981   2.418   3.976  10.141 -0.3177  0.6451 -0.3220
  183SLPC   C3220982   2.511   3.822   9.977 -0.2631  0.1976 -0.2600
  183SLPC   H2X20983   2.480   3.720   9.947  1.5372 -1.8801  4.0827
  183SLPC   H2Y20984   2.621   3.811   9.987 -0.3274  1.0636  1.8195
  183SLPC   C2320985   2.939   3.913  10.532  0.6484  0.6110 -0.5199
  183SLPC   H3R20986   2.968   3.806  10.522  1.3895  0.6901  0.5613
  183SLPC   H3S20987   2.940   3.936  10.640 -1.3142 -2.6749  0.3185
  183SLPC   C2420988   3.041   4.001  10.458  0.3894 -0.0310 -0.3092
  183SLPC   H4R20989   3.036   3.995  10.347  2.3296  0.0120 -0.4255
  183SLPC   H4S20990   3.141   3.966  10.490  0.5863 -0.1211 -1.0161
  183SLPC   C2520991   3.026   4.143  10.501  0.2377  0.1722  0.9937
  183SLPC   H5R20992   2.995   4.162  10.606  1.5667  2.2497  1.0687
  183SLPC   H5S20993   2.944   4.192  10.445 -0.5879  0.4374  2.3877
  183SLPC   C2620994   3.164   4.224  10.504 -0.0327 -0.0008  0.6302
  183SLPC   H6R20995   3.196   4.244  10.400  1.2607  2.6984  1.4588
  183SLPC   H6S20996   3.240   4.173  10.567  2.5034  0.3355 -1.9883
  183SLPC   C2720997   3.142   4.367  10.563 -0.6623  0.6851  0.7829
  183SLPC   H7R20998   3.112   4.357  10.669 -0.2709 -1.1496  0.7609
  183SLPC   H7S20999   3.059   4.412  10.505  0.1224  1.4627  0.2198
  183SLPC   C2821000   3.265   4.451  10.554 -1.0857 -0.7106 -0.0716
  183SLPC   H8R21001   3.319   4.449  10.457 -0.0416  1.1607  0.4216
  183SLPC   H8S21002   3.327   4.406  10.635  0.2088 -0.0083 -0.6555
  183SLPC   C2921003   3.232   4.595  10.593 -0.2853 -0.3185  0.6772
  183SLPC   H9R21004   3.244   4.616  10.700  0.8574 -1.6566  0.8479
  183SLPC  C21021005   3.200   4.694  10.515  0.3555 -0.5566  0.8938
  183SLPC  H10R21006   3.170   4.792  10.555 -0.1411  0.3851 -1.6552
  183SLPC  C21121007   3.194   4.701  10.360  0.4548  0.2111 -0.6836
  183SLPC  H11R21008   3.089   4.679  10.328  0.5501 -3.1298  0.8576
  183SLPC  H11S21009   3.252   4.614  10.322  0.9236  0.3192 -0.2180
  183SLPC  C21221010   3.262   4.820  10.298 -0.3401 -0.9419 -0.4969
  183SLPC  H12R21011   3.253   4.914  10.353  2.0318 -1.1954  0.4240
  183SLPC  C21321012   3.324   4.822  10.177 -0.1300 -0.2524  0.0991
  183SLPC  H13R21013   3.369   4.913  10.135  1.3577 -0.9475  0.1189
  183SLPC  C21421014   3.333   4.702  10.080  0.3621 -0.3061 -0.2698
  183SLPC  H14R21015   3.276   4.725   9.987  0.1710  2.5041  0.4713
  183SLPC  H14S21016   3.282   4.615  10.128 -1.4082  0.2053 -1.1169
  183SLPC  C21521017   3.482   4.681  10.044 -0.5395  0.1396  0.8340
  183SLPC  H15R21018   3.541   4.683  10.138  1.3976  0.0780 -0.3229
  183SLPC  H15S21019   3.510   4.766   9.979 -1.9797 -1.0669 -1.4930
  183SLPC  C21621020   3.496   4.549   9.978 -0.3795  0.4496  0.4550
  183SLPC  H16R21021   3.603   4.536   9.952 -0.7573 -0.9275 -0.5910
  183SLPC  H16S21022   3.431   4.541   9.888 -0.0198  0.3567  0.2025
  183SLPC  C21721023   3.465   4.425  10.065  0.6906  0.7539 -0.0942
  183SLPC  H17R21024   3.357   4.398  10.063  0.8341  0.2180 -1.6788
  183SLPC  H17S21025   3.511   4.432  10.166 -0.9151 -0.7475  0.8060
  183SLPC  C21821026   3.530   4.300   9.997 -0.1557  0.6514 -0.6127
  183SLPC  H18R21027   3.640   4.291  10.008 -0.2634 -0.2171 -0.1145
  183SLPC  H18S21028   3.512   4.311   9.888 -3.2636 -0.4306 -0.3062
  183SLPC  H18T21029   3.482   4.205  10.030 -0.7882  1.2300  0.1657
  183SLPC   C3321030   2.477   3.926   9.871  0.0013  0.5055 -0.2339
  183SLPC   H3X21031   2.521   4.023   9.905 -0.0078  1.5504 -2.9707
  183SLPC   H3Y21032   2.367   3.938   9.862 -0.3464 -0.9334  1.4667
  183SLPC   C3421033   2.545   3.886   9.739 -0.0600 -0.6562 -0.3453
  183SLPC   H4X21034   2.498   3.797   9.692 -1.6118  0.0796 -0.2582
  183SLPC   H4Y21035   2.648   3.858   9.767  0.0487  1.9278  2.3620
  183SLPC   C3521036   2.546   3.995   9.629  0.5012 -0.3612 -0.4001
  183SLPC   H5X21037   2.598   4.081   9.677 -1.9718  0.1054  1.6923
  183SLPC   H5Y21038   2.440   4.025   9.617  0.5710 -0.3164 -0.9288
  183SLPC   C3621039   2.606   3.944   9.502 -0.1693  0.6473 -0.6530
  183SLPC   H6X21040   2.593   4.020   9.422 -2.3355 -0.9347 -1.8935
  183SLPC   H6Y21041   2.555   3.857   9.455 -1.9119  0.2251  1.8172
  183SLPC   C3721042   2.751   3.920   9.498 -0.0853 -0.2562 -0.1133
  183SLPC   H7X21043   2.786   3.830   9.551  1.8122  1.4295  1.6455
  183SLPC   H7Y21044   2.800   4.006   9.549  3.3786 -2.3536  0.3411
  183SLPC   C3821045   2.801   3.916   9.352 -0.2205  0.2676  0.6101
  183SLPC   H8X21046   2.785   4.020   9.315  0.9121  0.2097 -0.0790
  183SLPC   H8Y21047   2.743   3.853   9.281  1.1809  1.1759 -1.4359
  183SLPC   C3921048   2.946   3.891   9.344  0.1835  0.0232 -0.1146
  183SLPC   H9X21049   2.969   3.787   9.377  0.6980  0.9601  2.7272
  183SLPC   H9Y21050   2.993   3.965   9.412 -0.2886  0.2435 -0.0220
  183SLPC  C31021051   2.994   3.914   9.199  0.3636 -0.1186  0.1089
  183SLPC  H10X21052   2.968   4.018   9.170 -0.7718 -0.8059 -1.5319
  183SLPC  H10Y21053   2.945   3.856   9.117  1.8625  0.9222 -1.5941
  183SLPC  C31121054   3.151   3.895   9.189  0.7900  0.4222 -0.3148
  183SLPC  H11X21055   3.171   3.804   9.248 -1.5669  1.4064  2.2052
  183SLPC  H11Y21056   3.189   3.987   9.238  0.4310  0.2955  0.2079
  183SLPC  C31221057   3.196   3.878   9.046 -0.7378  0.5381  0.5742
  183SLPC  H12X21058   3.146   3.961   8.991  0.4385  1.2428  0.5261
  183SLPC  H12Y21059   3.160   3.779   9.011 -0.4271 -0.2114  2.2548
  183SLPC  C31321060   3.349   3.874   9.049  0.1340  0.2835 -0.1050
  183SLPC  H13X21061   3.389   3.812   9.132 -2.4288  0.8847  1.7042
  183SLPC  H13Y21062   3.390   3.972   9.081 -0.8836 -0.0667  2.5588
  183SLPC  C31421063   3.410   3.861   8.910 -0.5650  0.1535 -0.0503
  183SLPC  H14X21064   3.516   3.893   8.909 -0.6697  0.5254 -1.5103
  183SLPC  H14Y21065   3.351   3.938   8.855 -1.1805  0.3654  0.8914
  183SLPC  C31521066   3.380   3.738   8.821 -0.8510 -0.2013 -0.7781
  183SLPC  H15X21067   3.417   3.765   8.719  1.9098  2.6801  0.8005
  183SLPC  H15Y21068   3.270   3.738   8.809 -0.7560 -0.6095 -1.7918
  183SLPC  C31621069   3.460   3.627   8.879 -0.7512 -0.1767  0.5525
  183SLPC  H16X21070   3.418   3.582   8.972 -2.1501  0.0546  0.0534
  183SLPC  H16Y21071   3.565   3.660   8.897 -0.2124 -0.8572 -1.1458
  183SLPC  C31721072   3.467   3.505   8.787 -0.3418  0.4451 -0.6865
  183SLPC  H17X21073   3.497   3.533   8.684  0.4299 -0.4813 -0.7315
  183SLPC  H17Y21074   3.366   3.461   8.777  0.5674 -1.9134 -0.1899
  183SLPC  C31821075   3.564   3.403   8.840 -0.1689  0.8840 -0.0810
  183SLPC  H18X21076   3.663   3.440   8.875  0.7081 -1.7582  0.4839
  183SLPC  H18Y21077   3.591   3.323   8.767  0.5982 -0.2824  1.4128
  183SLPC  H18Z21078   3.521   3.358   8.932 -0.4906 -0.1853 -0.7322
  184SLPC     N21079   6.689   3.168  10.759  0.0029  0.3062 -0.8359
  184SLPC   C1321080   6.735   3.035  10.822  0.1126 -0.0983  0.3413
  184SLPC  H13A21081   6.838   3.017  10.796  0.2294  1.2242 -0.1672
  184SLPC  H13B21082   6.732   3.051  10.929 -3.8185  2.0945  0.0978
  184SLPC  H13C21083   6.672   2.952  10.793 -1.6926 -0.3552  4.3292
  184SLPC   C1421084   6.744   3.277  10.853  0.4217  0.9516  0.9695
  184SLPC  H14A21085   6.734   3.241  10.954 -0.3504 -1.1272  0.2101
  184SLPC  H14B21086   6.852   3.282  10.843  0.3842  1.1668  0.6557
  184SLPC  H14C21087   6.693   3.371  10.842 -0.6157  0.4753  1.5693
  184SLPC   C1521088   6.543   3.183  10.767  0.1564 -0.2378  0.2973
  184SLPC  H15A21089   6.488   3.125  10.695  1.1825  0.3480 -1.0110
  184SLPC  H15B21090   6.495   3.188  10.863 -0.7928  0.5161 -0.2052
  184SLPC  H15C21091   6.522   3.284  10.733  1.0028  0.3466  1.4361
  184SLPC   C1221092   6.737   3.186  10.611 -0.2835  0.3209 -0.4179
  184SLPC  H12A21093   6.844   3.180  10.620 -0.3924 -0.8862  0.3849
  184SLPC  H12B21094   6.706   3.281  10.570 -1.5558  0.1047 -0.0010
  184SLPC   C1121095   6.702   3.066  10.531 -0.1349 -0.2510  0.5118
  184SLPC  H11A21096   6.752   2.974  10.569  0.4755 -0.5557 -0.9325
  184SLPC  H11B21097   6.751   3.088  10.434 -0.9776 -2.6583 -0.5497
  184SLPC     P21098   6.507   2.944  10.403  0.2663 -0.3124  0.0579
  184SLPC   O1321099   6.541   2.806  10.441  0.3885  0.3325  0.0299
  184SLPC   O1421100   6.366   2.979  10.372  0.1067 -0.0395  0.5299
  184SLPC   O1221101   6.558   3.042  10.525 -0.6320  0.4556  0.1170
  184SLPC   O1121102   6.602   2.989  10.278  0.6601 -0.1522 -0.2946
  184SLPC    C121103   6.576   3.107  10.205  0.1972  0.3328  0.0795
  184SLPC    HA21104   6.488   3.165  10.241 -0.4328 -0.2173 -0.5324
  184SLPC    HB21105   6.671   3.163  10.194  0.7109 -0.5895 -0.1943
  184SLPC    C221106   6.533   3.073  10.056  0.3255  0.0070  0.6534
  184SLPC    HS21107   6.445   3.005  10.064  1.2945 -1.2651  0.9049
  184SLPC   O2121108   6.650   3.003   9.992 -0.3369 -0.7810 -0.0266
  184SLPC   C2121109   6.616   2.916   9.903  0.6055  1.2387  0.3055
  184SLPC   O2221110   6.508   2.867   9.888 -0.3372 -0.3583 -0.1873
  184SLPC   C2221111   6.741   2.876   9.818  0.0289 -0.3023 -0.3841
  184SLPC   H2R21112   6.811   2.813   9.877  0.5326 -2.5147 -3.1106
  184SLPC   H2S21113   6.698   2.814   9.736  0.5924 -0.4241 -0.5981
  184SLPC    C321114   6.493   3.200   9.981  0.0605 -0.5560  0.6484
  184SLPC    HX21115   6.588   3.259   9.979  2.1264 -3.4453  3.2842
  184SLPC    HY21116   6.414   3.248  10.042 -0.1532 -1.4339  1.0678
  184SLPC   O3121117   6.459   3.170   9.845 -0.2351 -0.6296  0.4174
  184SLPC   C3121118   6.341   3.147   9.807  0.4739 -0.1605  0.5325
  184SLPC   O3221119   6.239   3.147   9.876  0.0165 -0.2210  0.0662
  184SLPC   C3221120   6.343   3.113   9.652 -0.1355 -0.6162 -0.1444
  184SLPC   H2X21121   6.394   3.015   9.639  0.4830 -0.0468 -2.3671
  184SLPC   H2Y21122   6.401   3.197   9.608 -2.8062  0.7134 -1.3540
  184SLPC   C2321123   6.826   2.992   9.762  0.7634  0.1975  0.8733
  184SLPC   H3R21124   6.918   2.954   9.712 -0.2878 -0.2929 -0.7529
  184SLPC   H3S21125   6.867   3.057   9.842  1.9054  0.8033 -0.1543
  184SLPC   C2421126   6.739   3.069   9.661  0.2217 -0.4738 -0.7732
  184SLPC   H4R21127   6.798   3.160   9.633  1.4167 -0.8881  0.3002
  184SLPC   H4S21128   6.651   3.117   9.709  0.6109 -1.3401  0.8860
  184SLPC   C2521129   6.715   2.996   9.533 -0.2674 -0.0018 -0.5965
  184SLPC   H5R21130   6.632   2.925   9.550 -0.5563  0.3573 -0.4988
  184SLPC   H5S21131   6.807   2.935   9.516 -0.1574 -0.2835  0.8985
  184SLPC   C2621132   6.706   3.092   9.414 -0.3623  0.4141 -0.8295
  184SLPC   H6R21133   6.799   3.153   9.419 -0.0489 -0.0410 -0.9724
  184SLPC   H6S21134   6.611   3.149   9.422 -1.1401 -0.8141 -1.0244
  184SLPC   C2721135   6.702   3.029   9.277  0.0212 -0.1341  0.7006
  184SLPC   H7R21136   6.798   2.973   9.270  0.4043  0.7103 -2.2651
  184SLPC   H7S21137   6.721   3.105   9.198  0.0969  0.0114  0.8577
  184SLPC   C2821138   6.574   2.952   9.238 -0.0984 -0.7096  0.0218
  184SLPC   H8R21139   6.521   2.913   9.328  0.8613  0.2237  1.0159
  184SLPC   H8S21140   6.609   2.862   9.183  1.1495  0.1834 -0.6869
  184SLPC   C2921141   6.462   3.038   9.183  1.3353  0.0306  0.5921
  184SLPC   H9R21142   6.436   3.127   9.242  1.1158  1.4761 -1.6050
  184SLPC  C21021143   6.396   3.003   9.068  0.3290 -0.0843  0.2084
  184SLPC  H10R21144   6.322   3.071   9.022  3.1600  2.1058 -1.4338
  184SLPC  C21121145   6.430   2.883   8.983 -0.5847 -0.0965 -0.2354
  184SLPC  H11R21146   6.431   2.789   9.043  0.7702 -0.1781 -0.3569
  184SLPC  H11S21147   6.533   2.887   8.944 -0.0810 -0.3532  1.0071
  184SLPC  C21221148   6.337   2.875   8.871 -0.0344 -0.3010  0.1210
  184SLPC  H12R21149   6.234   2.842   8.895  0.2336 -2.1354 -1.0481
  184SLPC  C21321150   6.363   2.899   8.741 -0.3578  0.8138  0.2016
  184SLPC  H13R21151   6.280   2.871   8.673 -0.1825  0.0989  0.2794
  184SLPC  C21421152   6.501   2.936   8.686  0.2358 -0.3526  0.3897
  184SLPC  H14R21153   6.563   2.845   8.675 -1.6008 -1.4269 -2.2039
  184SLPC  H14S21154   6.561   2.994   8.758  0.3550  2.0861 -1.5274
  184SLPC  C21521155   6.500   3.016   8.553 -0.0778  0.7078 -0.4958
  184SLPC  H15R21156   6.430   3.101   8.566  0.2645  0.7732  1.0055
  184SLPC  H15S21157   6.458   2.944   8.479  1.7779  0.7718 -1.6789
  184SLPC  C21621158   6.634   3.057   8.498 -1.0106 -0.5295  0.0275
  184SLPC  H16R21159   6.716   2.982   8.500 -1.4405 -1.1383 -2.1265
  184SLPC  H16S21160   6.657   3.151   8.550 -2.0759  0.5437 -1.3478
  184SLPC  C21721161   6.623   3.105   8.354  0.1886  0.0711  0.5701
  184SLPC  H17R21162   6.724   3.144   8.327  0.1568 -1.8535 -2.8535
  184SLPC  H17S21163   6.553   3.190   8.342 -0.0035  0.0635  1.5814
  184SLPC  C21821164   6.573   3.002   8.253 -0.8069 -0.3646  0.0216
  184SLPC  H18R21165   6.474   2.957   8.278  0.6059 -3.4569  0.4460
  184SLPC  H18S21166   6.635   2.911   8.264 -0.0367  0.2187  0.6005
  184SLPC  H18T21167   6.586   3.027   8.145  2.9420 -0.9360  0.2161
  184SLPC   C3321168   6.205   3.119   9.578 -0.4617 -0.8890 -0.4665
  184SLPC   H3X21169   6.139   3.058   9.643  2.0954  0.1924  3.5021
  184SLPC   H3Y21170   6.214   3.081   9.474  0.9857  2.5338 -1.7265
  184SLPC   C3421171   6.149   3.260   9.566  0.6408  0.3302 -0.0799
  184SLPC   H4X21172   6.159   3.312   9.664  1.4577 -1.7830  1.0270
  184SLPC   H4Y21173   6.039   3.259   9.548  0.5497  0.0668  0.4821
  184SLPC   C3521174   6.218   3.351   9.458  0.0348  0.2526  0.1895
  184SLPC   H5X21175   6.328   3.340   9.468  0.0852  1.2933  1.0169
  184SLPC   H5Y21176   6.199   3.459   9.478  0.4372  0.1695  1.1083
  184SLPC   C3621177   6.167   3.328   9.315  0.2570  0.1414 -0.0645
  184SLPC   H6X21178   6.058   3.350   9.316  0.5835  1.9440  0.4859
  184SLPC   H6Y21179   6.194   3.225   9.286 -1.7999 -0.3625 -0.3227
  184SLPC   C3721180   6.251   3.412   9.219  0.1196  0.5826 -0.6078
  184SLPC   H7X21181   6.356   3.377   9.221 -0.4233 -1.0956  0.2723
  184SLPC   H7Y21182   6.258   3.520   9.246  0.0217  0.4365  0.0081
  184SLPC   C3821183   6.194   3.422   9.076  0.4337  0.1399 -0.0983
  184SLPC   H8X21184   6.095   3.471   9.090  0.2068  0.6649 -2.9214
  184SLPC   H8Y21185   6.177   3.319   9.038 -0.8841  0.7442 -1.2770
  184SLPC   C3921186   6.279   3.507   8.989 -0.4614 -0.6139 -0.5334
  184SLPC   H9X21187   6.323   3.597   9.037 -0.0086 -1.6626  1.0939
  184SLPC   H9Y21188   6.210   3.541   8.909 -3.0348 -1.5243  1.1705
  184SLPC  C31021189   6.391   3.443   8.912  0.4989  0.3562  0.0760
  184SLPC  H10X21190   6.429   3.509   8.831 -0.8259  2.0863  0.8117
  184SLPC  H10Y21191   6.341   3.352   8.872 -0.2071 -0.0183  1.7292
  184SLPC  C31121192   6.507   3.398   8.998 -0.5971 -0.1141 -0.0214
  184SLPC  H11X21193   6.579   3.346   8.930  0.8199  1.9393 -0.1813
  184SLPC  H11Y21194   6.482   3.313   9.065  0.0295 -0.2018  0.1096
  184SLPC  C31221195   6.576   3.504   9.075  0.1646  0.5080  0.0944
  184SLPC  H12X21196   6.502   3.550   9.144  0.4253 -0.8538  1.3174
  184SLPC  H12Y21197   6.617   3.582   9.006 -0.5336 -2.1799 -3.6483
  184SLPC  C31321198   6.705   3.455   9.143  0.3262 -0.2778  0.5940
  184SLPC  H13X21199   6.786   3.495   9.079  0.0726 -1.4595 -0.4903
  184SLPC  H13Y21200   6.705   3.344   9.148 -2.2362 -0.5044 -1.8673
  184SLPC  C31421201   6.716   3.510   9.282 -0.2294  0.0590  0.3206
  184SLPC  H14X21202   6.790   3.443   9.331 -0.4130  0.6311  1.4317
  184SLPC  H14Y21203   6.623   3.501   9.342 -0.9168  0.4960 -0.6580
  184SLPC  C31521204   6.787   3.641   9.288  0.0261  0.0547 -0.2336
  184SLPC  H15X21205   6.732   3.717   9.228  0.0734 -0.2359 -0.6420
  184SLPC  H15Y21206   6.892   3.626   9.256 -0.5912  0.2040 -2.4643
  184SLPC  C31621207   6.781   3.702   9.432  0.0208  0.3768  0.4342
  184SLPC  H16X21208   6.785   3.619   9.506 -0.6838  0.5952  0.7212
  184SLPC  H16Y21209   6.677   3.739   9.438 -0.3674 -0.6519  0.1796
  184SLPC  C31721210   6.895   3.804   9.453  0.2100 -0.7456 -0.4025
  184SLPC  H17X21211   6.988   3.775   9.400  0.9913 -2.1124  1.5679
  184SLPC  H17Y21212   6.912   3.819   9.562 -0.6711  3.7622 -0.6940
  184SLPC  C31821213   6.858   3.941   9.406 -0.2009 -0.3411  0.5030
  184SLPC  H18X21214   6.754   3.975   9.424 -0.0446  0.4104  0.0397
  184SLPC  H18Y21215   6.868   3.948   9.295  2.4630  0.2401  0.7262
  184SLPC  H18Z21216   6.914   4.022   9.457 -0.0870 -0.3066  0.3239
  185SLPC     N21217   3.991   5.846   6.599  0.8749  0.0289  0.1175
  185SLPC   C1321218   3.998   5.795   6.458  0.0431  0.5865 -0.5054
  185SLPC  H13A21219   4.047   5.872   6.400  2.0975 -1.0745 -1.0850
  185SLPC  H13B21220   4.067   5.713   6.454 -0.7023 -0.0742  0.0434
  185SLPC  H13C21221   3.902   5.776   6.412  0.3268 -0.1488 -0.8054
  185SLPC   C1421222   3.908   5.761   6.691  0.1043 -0.1194 -0.1555
  185SLPC  H14A21223   3.813   5.745   6.641 -0.4986 -2.9387  1.6851
  185SLPC  H14B21224   3.947   5.663   6.710  0.4097 -0.2172 -1.2329
  185SLPC  H14C21225   3.892   5.807   6.788  0.5944 -0.5060  0.1113
  185SLPC   C1521226   3.918   5.974   6.593  0.3382 -0.5972  0.0573
  185SLPC  H15A21227   3.922   6.025   6.688 -0.5785 -0.7416  0.1772
  185SLPC  H15B21228   3.942   6.041   6.511 -1.9671  0.3990  0.1319
  185SLPC  H15C21229   3.813   5.962   6.572 -0.1263  1.3208  1.0685
  185SLPC   C1221230   4.127   5.881   6.650  0.6641 -0.3125 -0.1296
  185SLPC  H12A21231   4.119   5.951   6.731 -1.2006  2.1346 -2.2546
  185SLPC  H12B21232   4.168   5.947   6.575  0.9972 -0.4029 -0.0274
  185SLPC   C1121233   4.236   5.766   6.663  0.1881 -0.3852  0.2544
  185SLPC  H11A21234   4.210   5.701   6.749 -1.9593 -1.2673 -0.9821
  185SLPC  H11B21235   4.327   5.825   6.688 -1.3227  2.0147  0.3258
  185SLPC     P21236   4.235   5.547   6.515  0.3669 -0.0464  0.5851
  185SLPC   O1321237   4.107   5.513   6.455 -0.1462 -0.2807  0.2651
  185SLPC   O1421238   4.345   5.518   6.417  0.0609 -0.3125  0.9161
  185SLPC   O1221239   4.256   5.696   6.545  0.2533 -0.9129 -0.3424
  185SLPC   O1121240   4.257   5.477   6.650  0.5551  0.2239 -0.7900
  185SLPC    C121241   4.267   5.339   6.659  0.4803  0.5356 -0.6202
  185SLPC    HA21242   4.245   5.289   6.563  0.0698  0.2337 -0.3705
  185SLPC    HB21243   4.364   5.315   6.708 -0.3606  1.9025  1.9001
  185SLPC    C221244   4.157   5.281   6.759 -0.0216 -0.0619 -0.1275
  185SLPC    HS21245   4.058   5.290   6.709  0.1394 -0.7543 -0.5872
  185SLPC   O2121246   4.173   5.351   6.888 -0.3366 -0.0873  0.6205
  185SLPC   C2121247   4.101   5.463   6.890  1.0270  0.0454 -0.6182
  185SLPC   O2221248   4.022   5.502   6.808 -0.2228 -0.2333 -0.4018
  185SLPC   C2221249   4.150   5.551   7.012  0.6448 -0.1608 -0.2432
  185SLPC   H2R21250   4.252   5.519   7.042  0.5658  0.8904  1.3181
  185SLPC   H2S21251   4.149   5.657   6.978 -0.1892  0.1233  0.6027
  185SLPC    C321252   4.180   5.128   6.786  0.0332  0.4827  0.5865
  185SLPC    HX21253   4.285   5.107   6.815 -0.4506  0.6441  2.6266
  185SLPC    HY21254   4.159   5.083   6.686 -0.4626  0.5069  0.6802
  185SLPC   O3121255   4.084   5.077   6.881 -0.2713  0.0108  0.1213
  185SLPC   C3121256   4.138   5.049   7.013  0.0446 -0.3428 -0.4381
  185SLPC   O3221257   4.246   5.086   7.051 -0.0716  0.2413  0.1436
  185SLPC   C3221258   4.037   4.989   7.109  0.3253 -0.5636  0.1903
  185SLPC   H2X21259   4.044   4.879   7.123 -0.3248 -0.8715 -1.6392
  185SLPC   H2Y21260   3.944   5.016   7.055  0.5479 -0.0831  0.0371
  185SLPC   C2321261   4.054   5.531   7.137 -0.6539  0.0444  0.0515
  185SLPC   H3R21262   4.032   5.422   7.143 -1.1796  0.0549 -1.3265
  185SLPC   H3S21263   3.957   5.584   7.129 -1.0396 -0.8021 -1.1570
  185SLPC   C2421264   4.133   5.582   7.264  0.8231 -0.2550  0.5293
  185SLPC   H4R21265   4.118   5.691   7.275 -1.0088 -0.6741  3.5208
  185SLPC   H4S21266   4.236   5.541   7.255  0.9934  0.3454 -0.2964
  185SLPC   C2521267   4.070   5.502   7.382  0.1980  0.0923  0.2097
  185SLPC   H5R21268   4.061   5.392   7.372 -4.3781  0.1147  1.5927
  185SLPC   H5S21269   3.964   5.533   7.396 -0.1120 -0.1989 -1.2752
  185SLPC   C2621270   4.143   5.534   7.509 -0.0614 -0.4713  0.0354
  185SLPC   H6R21271   4.134   5.644   7.522  1.6333 -0.3756  0.7170
  185SLPC   H6S21272   4.248   5.506   7.487  0.0552  0.0492 -0.0929
  185SLPC   C2721273   4.094   5.455   7.631  0.5128  0.0347  0.5616
  185SLPC   H7R21274   4.119   5.347   7.629 -3.8134 -1.1086 -0.6479
  185SLPC   H7S21275   3.983   5.457   7.633  0.5176  1.7879  2.0459
  185SLPC   C2821276   4.140   5.524   7.759 -0.3177 -1.1240  0.0717
  185SLPC   H8R21277   4.082   5.619   7.765 -0.2780 -0.8544 -2.5099
  185SLPC   H8S21278   4.249   5.546   7.753 -0.8331  2.1409  0.6673
  185SLPC   C2921279   4.127   5.433   7.875  0.5893 -0.1405  1.1159
  185SLPC   H9R21280   4.206   5.357   7.880  1.6956  0.9335  0.4977
  185SLPC  C21021281   4.026   5.431   7.965  0.6063 -0.3033 -0.1456
  185SLPC  H10R21282   4.028   5.349   8.039 -0.9877 -1.9572 -1.8209
  185SLPC  C21121283   3.906   5.517   7.969 -0.7088 -0.9162  0.3896
  185SLPC  H11R21284   3.814   5.460   7.995 -0.2618 -1.1468  1.5580
  185SLPC  H11S21285   3.886   5.563   7.870 -0.7236  0.9638  1.2214
  185SLPC  C21221286   3.931   5.640   8.052  0.5183  0.2005  0.2545
  185SLPC  H12R21287   4.015   5.704   8.020  0.1459 -0.2716 -1.8522
  185SLPC  C21321288   3.858   5.686   8.157  0.3236  0.7926  0.4639
  185SLPC  H13R21289   3.883   5.784   8.201  0.6126  0.7066  0.4943
  185SLPC  C21421290   3.737   5.620   8.219 -0.2776 -0.3993  0.2560
  185SLPC  H14R21291   3.704   5.541   8.148  2.0933 -1.2804  0.0370
  185SLPC  H14S21292   3.649   5.688   8.231 -0.6832 -1.0855  1.3056
  185SLPC  C21521293   3.775   5.558   8.360  0.0818 -0.1680 -0.4101
  185SLPC  H15R21294   3.847   5.476   8.340 -0.6137 -1.0712  0.6388
  185SLPC  H15S21295   3.681   5.503   8.384 -0.2648  0.6219  0.0680
  185SLPC  C21621296   3.828   5.655   8.457 -0.3314  0.0301  0.3295
  185SLPC  H16R21297   3.755   5.738   8.463 -0.3530  0.1216 -0.9415
  185SLPC  H16S21298   3.923   5.702   8.424  1.1644 -3.9101 -1.7199
  185SLPC  C21721299   3.848   5.585   8.600  0.2093  0.7791  0.7168
  185SLPC  H17R21300   3.941   5.525   8.594 -1.8129 -2.4161 -2.0058
  185SLPC  H17S21301   3.758   5.519   8.601  0.8271 -0.3088 -3.0130
  185SLPC  C21821302   3.846   5.678   8.720 -0.2866 -0.2521  0.1230
  185SLPC  H18R21303   3.934   5.744   8.731  0.5054 -1.3777  0.8334
  185SLPC  H18S21304   3.825   5.621   8.813 -3.0253  0.4496  0.0203
  185SLPC  H18T21305   3.768   5.757   8.722 -0.9698 -0.9261  1.8398
  185SLPC   C3321306   4.042   5.069   7.246  0.2403 -0.1575 -0.1345
  185SLPC   H3X21307   4.034   5.177   7.221  3.9782  0.0351 -1.1316
  185SLPC   H3Y21308   4.145   5.046   7.282  1.5308 -0.9235 -3.8354
  185SLPC   C3421309   3.936   5.027   7.354  0.3523  0.2830 -0.1633
  185SLPC   H4X21310   3.935   4.917   7.369  1.3543  0.2242 -0.4376
  185SLPC   H4Y21311   3.836   5.049   7.311  0.8545  1.6829 -0.6735
  185SLPC   C3521312   3.960   5.088   7.486  0.3434 -0.2950 -0.0184
  185SLPC   H5X21313   3.966   5.199   7.478  0.1918 -0.3268 -0.5857
  185SLPC   H5Y21314   4.056   5.046   7.523  1.0383 -0.0254 -1.4658
  185SLPC   C3621315   3.847   5.055   7.585 -0.3918 -0.6431 -0.4251
  185SLPC   H6X21316   3.861   4.948   7.612  0.3117 -0.1146  1.4925
  185SLPC   H6Y21317   3.749   5.080   7.541  0.6698  1.2542 -1.8823
  185SLPC   C3721318   3.852   5.141   7.716 -0.7913  0.6952  0.1201
  185SLPC   H7X21319   3.817   5.243   7.688 -4.5670 -0.6431 -0.5493
  185SLPC   H7Y21320   3.960   5.142   7.743 -0.5256  3.6379 -0.6320
  185SLPC   C3821321   3.755   5.095   7.823  0.0573 -0.5618 -0.5172
  185SLPC   H8X21322   3.748   4.984   7.823 -2.0477 -0.4609 -0.5647
  185SLPC   H8Y21323   3.651   5.132   7.812 -0.5910 -0.7734  3.5150
  185SLPC   C3921324   3.813   5.134   7.966  0.3517  0.0667  0.6274
  185SLPC   H9X21325   3.829   5.243   7.949 -1.5125  0.1491 -0.9416
  185SLPC   H9Y21326   3.908   5.079   7.985  1.4868  2.3457  1.9951
  185SLPC  C31021327   3.711   5.115   8.082 -0.2187 -0.2245 -0.7352
  185SLPC  H10X21328   3.668   5.013   8.077  1.2554 -0.8471 -1.3921
  185SLPC  H10Y21329   3.615   5.162   8.053 -0.3902  1.0780  1.7318
  185SLPC  C31121330   3.755   5.169   8.217  0.1094  0.7305  0.3070
  185SLPC  H11X21331   3.760   5.278   8.199  2.9536  0.7845  0.9780
  185SLPC  H11Y21332   3.856   5.133   8.246 -0.4013 -1.4245 -0.4033
  185SLPC  C31221333   3.666   5.116   8.333  0.3709  0.3472 -0.7787
  185SLPC  H12X21334   3.683   5.007   8.336  2.1762  0.6066 -0.5135
  185SLPC  H12Y21335   3.556   5.119   8.320  0.1451 -0.2801  0.7860
  185SLPC  C31321336   3.689   5.173   8.471  0.8021 -0.9132  0.7496
  185SLPC  H13X21337   3.673   5.282   8.488 -1.1700 -1.3295  1.9810
  185SLPC  H13Y21338   3.792   5.151   8.505  1.7760  1.3384 -0.5304
  185SLPC  C31421339   3.591   5.111   8.576 -0.0803  0.0834 -0.1105
  185SLPC  H14X21340   3.585   5.000   8.570  0.2502  0.1270 -1.4870
  185SLPC  H14Y21341   3.487   5.139   8.548 -0.0203 -0.1897 -0.6099
  185SLPC  C31521342   3.621   5.134   8.726 -0.3126  0.4892  0.1969
  185SLPC  H15X21343   3.661   5.238   8.723  0.6685  0.1323  0.4697
  185SLPC  H15Y21344   3.708   5.074   8.761  0.3712  0.8646 -0.8136
  185SLPC  C31621345   3.500   5.129   8.811  0.2128  0.2671 -0.2819
  185SLPC  H16X21346   3.463   5.025   8.828 -2.8070  1.5287  1.5692
  185SLPC  H16Y21347   3.414   5.177   8.759 -1.0229 -1.0361  0.4843
  185SLPC  C31721348   3.516   5.189   8.952  0.1724  0.4374 -0.3229
  185SLPC  H17X21349   3.419   5.173   9.004  0.4094  0.4477  0.1252
  185SLPC  H17Y21350   3.522   5.300   8.943  1.0780  0.3683 -0.6948
  185SLPC  C31821351   3.625   5.142   9.052  0.2876  0.1178 -0.8745
  185SLPC  H18X21352   3.611   5.173   9.158  2.8178 -1.3285 -0.0075
  185SLPC  H18Y21353   3.723   5.167   9.006 -0.3099  1.3434 -1.5124
  185SLPC  H18Z21354   3.613   5.032   9.048 -1.9534  0.1612  1.8210
  186SLPC     N21355   4.652   3.033   6.103  0.5853 -0.4736  0.3509
  186SLPC   C1321356   4.579   3.136   6.019 -0.1968  0.2911 -0.0126
  186SLPC  H13A21357   4.648   3.168   5.943  0.4248  0.7685  0.7339
  186SLPC  H13B21358   4.485   3.103   5.978  0.2819  0.5473 -1.3667
  186SLPC  H13C21359   4.553   3.227   6.073 -0.6826  0.4808 -0.5529
  186SLPC   C1421360   4.774   3.075   6.166 -0.0180  0.0851 -0.1054
  186SLPC  H14A21361   4.760   3.153   6.239 -0.2603 -0.7666  0.7669
  186SLPC  H14B21362   4.826   2.990   6.207 -0.9297 -0.5132 -0.1649
  186SLPC  H14C21363   4.830   3.127   6.089  1.7301  0.7992  1.5535
  186SLPC   C1521364   4.686   2.929   6.003  0.1705  0.7263  0.9066
  186SLPC  H15A21365   4.605   2.908   5.935  0.9248 -0.0043  0.2108
  186SLPC  H15B21366   4.763   2.964   5.937 -1.5377 -1.1331 -2.3278
  186SLPC  H15C21367   4.718   2.837   6.049  2.3609  1.3241  0.6980
  186SLPC   C1221368   4.549   2.982   6.204  0.2117  0.5176 -0.0775
  186SLPC  H12A21369   4.598   2.903   6.258 -1.0319 -0.8840 -0.9230
  186SLPC  H12B21370   4.463   2.928   6.169 -0.1671  1.6825 -1.0535
  186SLPC   C1121371   4.500   3.083   6.316  0.2338  0.3379  0.2235
  186SLPC  H11A21372   4.583   3.135   6.369 -0.6678  0.3500  1.6458
  186SLPC  H11B21373   4.446   3.018   6.388  1.9043 -2.8720 -1.1851
  186SLPC     P21374   4.259   3.116   6.216 -0.2585 -0.1011  0.0414
  186SLPC   O1321375   4.206   3.209   6.115  0.2902 -0.2385 -0.8369
  186SLPC   O1421376   4.270   2.972   6.184  0.7129  0.4143  0.0021
  186SLPC   O1221377   4.401   3.170   6.253 -0.2428  0.0615 -0.7486
  186SLPC   O1121378   4.175   3.132   6.348 -0.0397  0.2120  0.2549
  186SLPC    C121379   4.161   3.266   6.402  0.4563 -0.3827  0.6741
  186SLPC    HA21380   4.228   3.344   6.360 -0.9333  0.6239  0.2171
  186SLPC    HB21381   4.055   3.294   6.382  0.4151 -1.2577 -0.4540
  186SLPC    C221382   4.174   3.260   6.554 -0.0331 -0.1257 -0.3566
  186SLPC    HS21383   4.125   3.349   6.596  0.9400 -0.3613  1.4023
  186SLPC   O2121384   4.315   3.263   6.582 -0.0274 -0.4109  0.8401
  186SLPC   C2121385   4.358   3.369   6.653 -0.2915  0.0759 -0.0347
  186SLPC   O2221386   4.289   3.463   6.680 -0.1389 -0.3353  0.2194
  186SLPC   C2221387   4.506   3.340   6.690 -0.0579  0.6597 -0.1997
  186SLPC   H2R21388   4.565   3.298   6.606 -0.7469  0.3651 -0.5401
  186SLPC   H2S21389   4.556   3.434   6.724 -1.0482  2.0764 -2.4547
  186SLPC    C321390   4.101   3.133   6.614 -0.0725 -0.3490 -0.1343
  186SLPC    HX21391   4.161   3.048   6.575 -0.1816 -0.8651  0.7974
  186SLPC    HY21392   3.997   3.118   6.578 -0.2132 -2.4746  0.9962
  186SLPC   O3121393   4.118   3.143   6.755  0.3423  0.3862  0.4370
  186SLPC   C3121394   4.027   3.224   6.812 -0.2253 -0.1865  0.3122
  186SLPC   O3221395   3.936   3.281   6.756 -0.2780 -0.1501  0.0227
  186SLPC   C3221396   4.078   3.234   6.960 -0.2605 -0.6969 -0.7153
  186SLPC   H2X21397   4.175   3.286   6.969 -2.1456  2.8716  0.9961
  186SLPC   H2Y21398   4.088   3.131   7.001  0.8952 -0.3084  0.0009
  186SLPC   C2321399   4.522   3.237   6.811 -0.2705 -0.8505  0.1619
  186SLPC   H3R21400   4.631   3.233   6.832  0.0049  1.3478 -0.6238
  186SLPC   H3S21401   4.488   3.138   6.774 -0.3081 -0.2816 -1.3856
  186SLPC   C2421402   4.443   3.288   6.935  0.0616  0.2286 -0.5535
  186SLPC   H4R21403   4.376   3.214   6.983 -1.2746  2.2589  0.9151
  186SLPC   H4S21404   4.385   3.378   6.906  0.4142  0.6000 -0.1429
  186SLPC   C2521405   4.538   3.341   7.046 -0.1477  0.2724  0.2677
  186SLPC   H5R21406   4.607   3.416   7.001  0.9700 -0.8883 -0.0097
  186SLPC   H5S21407   4.603   3.257   7.080  0.0166  0.6124  0.8009
  186SLPC   C2621408   4.458   3.413   7.162 -0.5695 -0.0453  0.3279
  186SLPC   H6R21409   4.435   3.334   7.236 -2.3941  0.4431  0.3129
  186SLPC   H6S21410   4.353   3.433   7.131 -0.4805  0.9768  0.6432
  186SLPC   C2721411   4.528   3.529   7.221  0.1857 -0.0436  0.0074
  186SLPC   H7R21412   4.505   3.625   7.172  2.9301  0.9364  0.4412
  186SLPC   H7S21413   4.636   3.504   7.212 -0.5296 -3.4392 -0.9803
  186SLPC   C2821414   4.503   3.547   7.369  0.3745 -0.5194 -0.1599
  186SLPC   H8R21415   4.546   3.456   7.416  0.6617 -0.8963 -1.1282
  186SLPC   H8S21416   4.394   3.545   7.390  0.6273 -2.1839  1.1860
  186SLPC   C2921417   4.545   3.673   7.439 -0.3735 -0.3570 -0.0970
  186SLPC   H9R21418   4.549   3.765   7.379  0.5256 -0.4682 -0.2142
  186SLPC  C21021419   4.554   3.682   7.572  0.4787 -0.4551 -0.1892
  186SLPC  H10R21420   4.577   3.782   7.610  0.2193 -0.0731 -1.0165
  186SLPC  C21121421   4.521   3.575   7.674 -0.9131 -0.4980  0.2605
  186SLPC  H11R21422   4.593   3.492   7.661 -0.3101  0.2824 -1.6705
  186SLPC  H11S21423   4.422   3.534   7.647  0.1619 -2.7005 -0.5405
  186SLPC  C21221424   4.524   3.624   7.819 -0.1253  0.8127  0.6998
  186SLPC  H12R21425   4.606   3.679   7.867 -0.0059  1.0155  0.2707
  186SLPC  C21321426   4.439   3.571   7.914  0.3357 -0.2940 -0.4298
  186SLPC  H13R21427   4.441   3.622   8.012  2.8587  1.5810 -1.3400
  186SLPC  C21421428   4.321   3.471   7.893 -0.3724 -0.1377 -0.0189
  186SLPC  H14R21429   4.345   3.382   7.832 -2.3491 -1.2208  0.6851
  186SLPC  H14S21430   4.246   3.518   7.825 -0.5194 -0.3993 -0.0394
  186SLPC  C21521431   4.249   3.423   8.020 -0.0789  0.0274 -0.8000
  186SLPC  H15R21432   4.314   3.354   8.077 -0.4938 -1.9156 -2.5445
  186SLPC  H15S21433   4.162   3.359   7.993 -0.7546  0.3491  0.5560
  186SLPC  C21621434   4.189   3.524   8.118  0.4272 -0.3526  0.1281
  186SLPC  H16R21435   4.112   3.578   8.059  1.1101  0.0779 -0.3948
  186SLPC  H16S21436   4.240   3.616   8.154 -2.7112  2.0128 -0.9289
  186SLPC  C21721437   4.133   3.467   8.250  0.6351  0.0596  0.5771
  186SLPC  H17R21438   4.107   3.361   8.230 -1.2120  0.3377  1.2822
  186SLPC  H17S21439   4.037   3.519   8.273  0.0817  0.1829 -1.8004
  186SLPC  C21821440   4.233   3.471   8.369  0.7716  0.1900  0.5308
  186SLPC  H18R21441   4.257   3.573   8.405  0.7180  0.0819  0.8709
  186SLPC  H18S21442   4.326   3.425   8.331  0.0194  1.4506 -3.3174
  186SLPC  H18T21443   4.180   3.415   8.449 -1.7744  1.0986 -0.3908
  186SLPC   C3321444   3.982   3.309   7.062 -0.7124 -0.5761  0.1263
  186SLPC   H3X21445   3.875   3.290   7.039 -0.8636 -0.6863  0.8827
  186SLPC   H3Y21446   4.005   3.416   7.043  1.9463 -0.8755  1.2366
  186SLPC   C3421447   4.016   3.265   7.208 -0.2066  0.8511 -0.1943
  186SLPC   H4X21448   4.125   3.283   7.218 -0.1722  0.9079 -0.6231
  186SLPC   H4Y21449   3.996   3.156   7.223 -0.1711  0.8319 -0.2799
  186SLPC   C3521450   3.922   3.341   7.311  0.6015 -0.0184 -0.1080
  186SLPC   H5X21451   3.825   3.288   7.317  0.5983 -0.2515 -1.6701
  186SLPC   H5Y21452   3.903   3.443   7.272 -0.9168 -1.4455 -3.4832
  186SLPC   C3621453   3.976   3.339   7.457 -0.0694  0.4390  0.4007
  186SLPC   H6X21454   4.059   3.406   7.488  1.6051 -0.2951 -2.1663
  186SLPC   H6Y21455   4.014   3.236   7.472  2.0261  1.4296  2.6572
  186SLPC   C3721456   3.857   3.375   7.549  0.1869  0.2832 -1.0986
  186SLPC   H7X21457   3.769   3.310   7.530  0.1421 -0.1271  0.4171
  186SLPC   H7Y21458   3.818   3.479   7.540  1.8784  0.8708 -2.2057
  186SLPC   C3821459   3.900   3.352   7.702 -0.3559  0.3839  0.0825
  186SLPC   H8X21460   3.986   3.421   7.717  0.2098 -0.7601  2.5564
  186SLPC   H8Y21461   3.937   3.248   7.717 -0.1575  0.2343 -1.2948
  186SLPC   C3921462   3.792   3.402   7.802 -0.0826  0.3484  0.4101
  186SLPC   H9X21463   3.705   3.336   7.784  0.7714 -0.5134 -0.6461
  186SLPC   H9Y21464   3.760   3.508   7.790 -0.6998  0.2511  1.1202
  186SLPC  C31021465   3.827   3.371   7.948 -0.1226  0.3641  0.7163
  186SLPC  H10X21466   3.750   3.421   8.010  2.0770  1.7677  2.4768
  186SLPC  H10Y21467   3.924   3.407   7.989 -1.7117  1.6340  3.6321
  186SLPC  C31121468   3.811   3.219   7.976 -0.2834 -0.1949 -0.1320
  186SLPC  H11X21469   3.897   3.169   7.926 -0.9825 -1.4041 -0.1531
  186SLPC  H11Y21470   3.722   3.183   7.921 -0.7207  1.5100 -0.5979
  186SLPC  C31221471   3.799   3.201   8.131 -0.4109 -0.3330 -0.1215
  186SLPC  H12X21472   3.714   3.262   8.169 -0.7997 -1.4466  0.8624
  186SLPC  H12Y21473   3.895   3.235   8.173  1.0430 -1.6623 -2.1795
  186SLPC  C31321474   3.783   3.054   8.168 -0.2160  0.3529 -0.1845
  186SLPC  H13X21475   3.862   2.990   8.122 -0.0178  1.2143 -1.0858
  186SLPC  H13Y21476   3.686   3.020   8.126 -0.6739  1.2995  0.0747
  186SLPC  C31421477   3.783   3.022   8.319 -0.3457 -0.3987  0.3815
  186SLPC  H14X21478   3.785   2.912   8.329  1.4785 -0.2621  2.4763
  186SLPC  H14Y21479   3.686   3.055   8.361 -2.1331 -0.7022 -3.1987
  186SLPC  C31521480   3.897   3.080   8.397  0.0295  1.1357 -0.1877
  186SLPC  H15X21481   3.889   3.191   8.399 -0.1505  1.1320  1.9907
  186SLPC  H15Y21482   3.989   3.051   8.342  0.9552  1.7505  0.9809
  186SLPC  C31621483   3.910   3.050   8.544 -0.0732 -0.6560  0.0311
  186SLPC  H16X21484   4.010   3.087   8.578  0.1271 -2.2046  1.2498
  186SLPC  H16Y21485   3.905   2.939   8.550  0.1315 -0.6542  0.2749
  186SLPC  C31721486   3.791   3.105   8.626 -0.3752  0.0288  0.0512
  186SLPC  H17X21487   3.693   3.061   8.595  0.3272 -3.2083  1.9726
  186SLPC  H17Y21488   3.790   3.216   8.629  2.1345  0.0747  1.1806
  186SLPC  C31821489   3.807   3.056   8.772 -0.6378 -0.2582 -0.0987
  186SLPC  H18X21490   3.798   2.946   8.779 -1.4085 -0.1208  1.6257
  186SLPC  H18Y21491   3.721   3.104   8.823  0.3608  1.2913  0.1938
  186SLPC  H18Z21492   3.902   3.084   8.822 -0.7189 -0.3530  0.1090
  187SLPC     N21493   3.783   6.198   5.914  0.5561 -0.1187 -0.6425
  187SLPC   C1321494   3.826   6.060   5.940 -0.2920  0.0964  0.5675
  187SLPC  H13A21495   3.933   6.061   5.931 -0.2421  0.3259  1.1009
  187SLPC  H13B21496   3.811   6.032   6.043  2.4150  0.4476  1.1226
  187SLPC  H13C21497   3.773   5.991   5.876  0.4321 -5.0416  4.8363
  187SLPC   C1421498   3.631   6.190   5.908  0.1736  0.1751 -0.0163
  187SLPC  H14A21499   3.600   6.145   6.000  1.6848  1.2099  1.0588
  187SLPC  H14B21500   3.593   6.291   5.899  0.8009  0.3256 -1.3904
  187SLPC  H14C21501   3.597   6.140   5.818  0.1729  2.1044 -1.1610
  187SLPC   C1521502   3.834   6.230   5.781  0.2302 -0.3402  0.1206
  187SLPC  H15A21503   3.939   6.208   5.769  0.3697 -0.5497  1.5202
  187SLPC  H15B21504   3.780   6.173   5.708 -2.7841 -0.9872  2.6420
  187SLPC  H15C21505   3.813   6.335   5.766 -1.7607 -1.0426 -2.7742
  187SLPC   C1221506   3.833   6.290   6.029  0.0458 -0.0836  0.2907
  187SLPC  H12A21507   3.785   6.260   6.121 -0.3508  1.4895  0.6252
  187SLPC  H12B21508   3.807   6.393   6.010 -0.1550  0.1112  1.5377
  187SLPC   C1121509   3.986   6.290   6.055 -0.1399 -0.1173 -0.0697
  187SLPC  H11A21510   4.001   6.365   6.137 -1.4306  0.3475 -0.2328
  187SLPC  H11B21511   4.036   6.331   5.965 -1.4783 -1.4280 -1.4604
  187SLPC     P21512   4.020   6.083   6.227  0.1174 -0.0896 -0.0219
  187SLPC   O1321513   3.879   6.035   6.230  0.3297 -0.5336 -0.0031
  187SLPC   O1421514   4.127   5.982   6.240  0.0294  0.0697 -0.3623
  187SLPC   O1221515   4.043   6.162   6.090  0.2831 -0.8037  0.4223
  187SLPC   O1121516   4.042   6.204   6.329 -0.1683  0.0975 -0.0783
  187SLPC    C121517   4.173   6.253   6.369  0.7399 -0.8700  0.4042
  187SLPC    HA21518   4.259   6.187   6.347 -0.1628 -1.1571 -2.6891
  187SLPC    HB21519   4.203   6.346   6.316  2.3659 -0.4760  1.8961
  187SLPC    C221520   4.175   6.289   6.521 -0.5639 -0.3204  0.6237
  187SLPC    HS21521   4.156   6.192   6.572  4.2382 -1.9017 -0.0960
  187SLPC   O2121522   4.080   6.389   6.560  0.2067  0.9997 -0.0976
  187SLPC   C2121523   4.009   6.365   6.666 -0.4137 -0.4149 -0.8339
  187SLPC   O2221524   4.030   6.271   6.750  0.1015 -0.4414 -0.2327
  187SLPC   C2221525   3.890   6.468   6.674  0.1902  0.5204 -0.1954
  187SLPC   H2R21526   3.928   6.572   6.678 -0.8014  0.9292 -1.0875
  187SLPC   H2S21527   3.827   6.461   6.583 -0.7675  1.1172  0.4075
  187SLPC    C321528   4.321   6.344   6.556 -0.2243 -0.3285  0.2869
  187SLPC    HX21529   4.327   6.437   6.495 -1.2386 -1.1496 -1.1509
  187SLPC    HY21530   4.403   6.276   6.525  0.8751  0.3438  1.6194
  187SLPC   O3121531   4.336   6.365   6.698 -0.0984  0.7703 -0.2585
  187SLPC   C3121532   4.350   6.256   6.773 -0.6989  0.3604  0.0536
  187SLPC   O3221533   4.336   6.139   6.737 -0.0890 -0.4562 -0.1201
  187SLPC   C3221534   4.417   6.302   6.894  0.4204 -0.2121  0.4713
  187SLPC   H2X21535   4.339   6.331   6.968 -0.8387 -0.6055 -0.6484
  187SLPC   H2Y21536   4.483   6.387   6.865  0.8587  0.1418  2.3667
  187SLPC   C2321537   3.811   6.449   6.806 -0.6702  0.3078 -0.6158
  187SLPC   H3R21538   3.796   6.341   6.828 -0.8013 -0.1122 -2.5171
  187SLPC   H3S21539   3.713   6.497   6.787 -0.8158 -0.0706 -0.8514
  187SLPC   C2421540   3.874   6.515   6.934  0.2600  0.3402  0.0780
  187SLPC   H4R21541   3.913   6.610   6.893  0.6680 -0.6133 -1.8481
  187SLPC   H4S21542   3.955   6.441   6.951 -0.1574 -0.6360 -1.8867
  187SLPC   C2521543   3.774   6.541   7.046 -0.9027  0.3091  0.3441
  187SLPC   H5R21544   3.732   6.444   7.082  1.8260 -1.9471 -2.0572
  187SLPC   H5S21545   3.692   6.593   6.992  0.3858  2.1937  0.1081
  187SLPC   C2621546   3.821   6.638   7.152 -0.0026  0.2572 -1.0206
  187SLPC   H6R21547   3.749   6.642   7.237  1.2334 -0.8660  0.1139
  187SLPC   H6S21548   3.820   6.738   7.103 -0.4183  1.1579  0.7315
  187SLPC   C2721549   3.954   6.604   7.223 -0.3278 -0.4594  0.2929
  187SLPC   H7R21550   3.983   6.700   7.270 -0.7568 -1.2363  2.2538
  187SLPC   H7S21551   4.023   6.580   7.140 -0.4951  1.6405 -0.5169
  187SLPC   C2821552   3.948   6.482   7.308  0.0530 -1.2946 -0.6184
  187SLPC   H8R21553   3.904   6.394   7.255 -1.8012  0.1657 -1.6215
  187SLPC   H8S21554   3.870   6.498   7.386 -0.3232  1.3859 -1.4311
  187SLPC   C2921555   4.080   6.454   7.373 -0.3675 -0.5903  0.7136
  187SLPC   H9R21556   4.164   6.431   7.306 -0.1014  0.4707  0.6537
  187SLPC  C21021557   4.107   6.454   7.507  0.1126 -0.0471 -0.7749
  187SLPC  H10R21558   4.214   6.445   7.533 -0.0248 -0.1749 -0.2466
  187SLPC  C21121559   4.017   6.497   7.619 -0.2128  0.2111 -0.4850
  187SLPC  H11R21560   3.907   6.486   7.606 -0.7894  2.4937  1.7673
  187SLPC  H11S21561   4.021   6.607   7.626  1.1754  0.2646 -1.6027
  187SLPC  C21221562   4.039   6.433   7.754  0.2633 -0.0140 -0.0957
  187SLPC  H12R21563   4.099   6.341   7.746 -0.0153 -0.0273 -2.7650
  187SLPC  C21321564   4.007   6.494   7.871  0.3556 -0.0264 -0.1535
  187SLPC  H13R21565   4.025   6.439   7.964  0.7213 -1.4143 -1.0204
  187SLPC  C21421566   3.934   6.620   7.902  0.2380 -0.1120  0.2127
  187SLPC  H14R21567   3.856   6.608   7.980 -0.2430  0.6666 -0.1269
  187SLPC  H14S21568   3.880   6.659   7.813  0.5314  0.8332  0.4365
  187SLPC  C21521569   4.033   6.725   7.949 -0.3610 -0.1802  0.2193
  187SLPC  H15R21570   4.093   6.766   7.865  2.3448  0.3450  2.2517
  187SLPC  H15S21571   4.111   6.679   8.012  0.9112  1.4564 -0.0828
  187SLPC  C21621572   3.962   6.849   8.015 -0.5018  0.2598 -0.6046
  187SLPC  H16R21573   3.880   6.878   7.946 -0.4505 -0.9891 -1.2300
  187SLPC  H16S21574   4.040   6.927   8.029 -0.9351  0.2802  2.0167
  187SLPC  C21721575   3.910   6.798   8.148  0.3342 -0.6679 -0.3388
  187SLPC  H17R21576   3.975   6.722   8.196  1.3851  2.0718  2.9581
  187SLPC  H17S21577   3.808   6.759   8.127  0.0881 -0.5904  0.6896
  187SLPC  C21821578   3.895   6.910   8.254  0.0150 -0.2199 -0.1178
  187SLPC  H18R21579   3.841   6.875   8.344 -0.2584  0.3455 -0.0545
  187SLPC  H18S21580   3.842   6.992   8.200 -0.3003 -1.5653 -1.9320
  187SLPC  H18T21581   3.997   6.948   8.276 -0.2874  1.1808 -0.9912
  187SLPC   C3321582   4.515   6.206   6.958  0.0481 -0.9938  0.6744
  187SLPC   H3X21583   4.608   6.199   6.897  0.0257  2.9500 -0.0487
  187SLPC   H3Y21584   4.480   6.101   6.968 -1.6731 -0.4957  0.1342
  187SLPC   C3421585   4.567   6.268   7.089 -0.2492  0.8562 -0.7813
  187SLPC   H4X21586   4.620   6.363   7.067 -1.1576  1.4549 -0.4382
  187SLPC   H4Y21587   4.642   6.202   7.138 -1.2706  1.3466  1.5818
  187SLPC   C3521588   4.471   6.313   7.203  0.8121  0.5572 -0.2016
  187SLPC   H5X21589   4.385   6.244   7.220  1.1131  0.3755  0.6266
  187SLPC   H5Y21590   4.420   6.411   7.190  2.0844  1.1656 -0.8253
  187SLPC   C3621591   4.550   6.315   7.333 -0.1661  0.1464  0.0789
  187SLPC   H6X21592   4.621   6.401   7.326 -0.2031  0.1263 -0.6962
  187SLPC   H6Y21593   4.603   6.218   7.348 -1.2837 -0.8845 -2.0959
  187SLPC   C3721594   4.452   6.338   7.451 -0.0052  0.0067  0.6348
  187SLPC   H7X21595   4.432   6.447   7.460 -1.0257  0.0467 -1.4824
  187SLPC   H7Y21596   4.351   6.294   7.436 -0.1954  0.3621  0.8335
  187SLPC   C3821597   4.505   6.285   7.580 -0.7834  0.3183 -0.3052
  187SLPC   H8X21598   4.608   6.326   7.591 -0.6030 -0.3860  0.7133
  187SLPC   H8Y21599   4.522   6.176   7.568  1.0921  0.6305 -0.9020
  187SLPC   C3921600   4.417   6.319   7.695 -0.2481 -0.2970  0.0979
  187SLPC   H9X21601   4.312   6.288   7.679 -0.0825 -1.3247  0.8848
  187SLPC   H9Y21602   4.415   6.430   7.709  4.8481  0.2488 -1.5956
  187SLPC  C31021603   4.466   6.271   7.827 -0.0296 -0.0556 -0.3651
  187SLPC  H10X21604   4.427   6.169   7.848  1.9269 -1.1521 -1.7791
  187SLPC  H10Y21605   4.431   6.339   7.908  2.5368 -0.1573  0.9481
  187SLPC  C31121606   4.616   6.258   7.848  0.1564  0.2517 -0.1749
  187SLPC  H11X21607   4.675   6.346   7.814  1.4281 -1.1152 -1.7036
  187SLPC  H11Y21608   4.665   6.175   7.793 -2.3157 -0.8888 -0.7980
  187SLPC  C31221609   4.640   6.243   8.003 -0.5664 -0.5231 -0.5796
  187SLPC  H12X21610   4.592   6.152   8.044 -0.2125  0.1611  1.4758
  187SLPC  H12Y21611   4.585   6.324   8.055 -0.7693  0.0678 -1.6915
  187SLPC  C31321612   4.789   6.232   8.048 -0.2313  0.1892 -0.3242
  187SLPC  H13X21613   4.833   6.131   8.034 -0.9715 -0.0476 -1.0323
  187SLPC  H13Y21614   4.802   6.262   8.154 -0.2313 -1.7896  0.2770
  187SLPC  C31421615   4.881   6.334   7.973  0.7860  0.0900  0.1335
  187SLPC  H14X21616   4.833   6.432   7.995 -0.5425 -0.6122  0.4768
  187SLPC  H14Y21617   4.882   6.323   7.863  1.9586  0.1408  0.1244
  187SLPC  C31521618   5.024   6.345   8.048  0.4447 -0.5661 -0.0975
  187SLPC  H15X21619   4.996   6.366   8.153 -0.6689  0.8993 -0.6390
  187SLPC  H15Y21620   5.076   6.439   8.020 -0.5947  0.6001  1.7173
  187SLPC  C31621621   5.103   6.218   8.048  0.2947 -0.3221 -0.2040
  187SLPC  H16X21622   5.122   6.188   7.943  3.2144  1.1521 -0.2126
  187SLPC  H16Y21623   5.036   6.148   8.101  0.6761  0.2373  1.0534
  187SLPC  C31721624   5.240   6.230   8.120  0.1705  0.3818  0.1464
  187SLPC  H17X21625   5.303   6.291   8.051  2.3679 -0.7412  1.0641
  187SLPC  H17Y21626   5.288   6.133   8.143  0.7373  0.3352 -1.1540
  187SLPC  C31821627   5.229   6.308   8.251  0.5699 -0.4558  0.2098
  187SLPC  H18X21628   5.155   6.257   8.316 -2.0773  1.7856 -0.8528
  187SLPC  H18Y21629   5.197   6.415   8.247  1.1533 -0.1023  2.9923
  187SLPC  H18Z21630   5.327   6.314   8.303 -0.1935  2.1522  1.5185
  188SLPC     N21631   6.731   1.178   6.249 -0.6416 -0.5865  0.6259
  188SLPC   C1321632   6.848   1.227   6.176 -0.1521  0.0981 -0.6971
  188SLPC  H13A21633   6.862   1.170   6.085  0.0944 -0.0445 -0.5706
  188SLPC  H13B21634   6.819   1.328   6.154 -1.3573 -0.3973 -1.5368
  188SLPC  H13C21635   6.933   1.222   6.242 -1.0023 -0.6059  0.3879
  188SLPC   C1421636   6.712   1.257   6.370 -0.5052  0.5140 -0.0506
  188SLPC  H14A21637   6.711   1.364   6.354  1.2561  0.8135  1.5905
  188SLPC  H14B21638   6.624   1.231   6.427 -2.0755  2.2098 -1.5666
  188SLPC  H14C21639   6.793   1.241   6.439 -2.6933 -0.5322  2.4771
  188SLPC   C1521640   6.757   1.030   6.280 -0.6197  0.0437  0.3124
  188SLPC  H15A21641   6.681   0.999   6.350 -0.0480 -1.5092  0.2903
  188SLPC  H15B21642   6.743   0.965   6.196  2.2758  0.9494 -1.0025
  188SLPC  H15C21643   6.846   1.019   6.340 -0.5471  0.4152  0.2733
  188SLPC   C1221644   6.605   1.188   6.158 -0.0670 -0.3286 -0.7275
  188SLPC  H12A21645   6.517   1.166   6.216  0.3101  1.2873  0.5445
  188SLPC  H12B21646   6.612   1.105   6.090 -1.8079 -0.4124 -0.8523
  188SLPC   C1121647   6.592   1.323   6.073 -0.3484  0.5241 -0.3100
  188SLPC  H11A21648   6.504   1.314   6.006 -1.5330 -2.5471  1.4289
  188SLPC  H11B21649   6.675   1.326   5.998  0.3449  1.4128  0.4689
  188SLPC     P21650   6.455   1.507   6.187  0.2898  0.0286  0.0757
  188SLPC   O1321651   6.449   1.622   6.103 -0.4463  0.5377 -0.8806
  188SLPC   O1421652   6.344   1.404   6.177 -0.7199 -0.6138  0.1986
  188SLPC   O1221653   6.593   1.444   6.152  0.4627  0.8942 -0.1050
  188SLPC   O1121654   6.476   1.559   6.337 -0.2003  0.6981 -0.2811
  188SLPC    C121655   6.374   1.568   6.436  0.8372  0.8551 -0.4170
  188SLPC    HA21656   6.286   1.506   6.413 -0.9094  2.3264  1.7940
  188SLPC    HB21657   6.419   1.552   6.536  0.7012  1.4323 -0.2556
  188SLPC    C221658   6.315   1.711   6.443 -0.4713 -0.7779 -0.1123
  188SLPC    HS21659   6.286   1.741   6.340 -0.4508  1.4650  0.4699
  188SLPC   O2121660   6.417   1.801   6.498 -0.2495 -0.4967  0.3895
  188SLPC   C2121661   6.411   1.923   6.462  0.5880 -0.0248 -0.0790
  188SLPC   O2221662   6.326   1.960   6.379 -0.4559  0.1842  0.1930
  188SLPC   C2221663   6.522   2.012   6.522 -0.4003  0.4113  0.1572
  188SLPC   H2R21664   6.565   1.949   6.603 -0.2893  1.3288  0.8296
  188SLPC   H2S21665   6.609   2.020   6.453  0.3692 -1.2510  0.8676
  188SLPC    C321666   6.177   1.702   6.529 -0.0994 -0.5701  0.0140
  188SLPC    HX21667   6.108   1.630   6.480 -1.5110  0.1421  0.8834
  188SLPC    HY21668   6.129   1.801   6.519  2.4261  0.7358 -0.0524
  188SLPC   O3121669   6.193   1.663   6.664  0.0546 -0.0210 -0.6286
  188SLPC   C3121670   6.222   1.757   6.748 -0.8849  0.2032 -0.3775
  188SLPC   O3221671   6.256   1.872   6.714 -0.4778  0.2770  0.0824
  188SLPC   C3221672   6.225   1.697   6.890 -0.1016  0.1568 -0.4177
  188SLPC   H2X21673   6.317   1.636   6.893  1.2440  2.1007 -0.0746
  188SLPC   H2Y21674   6.139   1.628   6.897  1.0139 -1.2538 -0.2252
  188SLPC   C2321675   6.482   2.157   6.554  0.1723  0.5761 -1.3440
  188SLPC   H3R21676   6.429   2.189   6.462 -1.7594  1.9402  0.1628
  188SLPC   H3S21677   6.579   2.209   6.570  0.7029 -0.8154  0.2548
  188SLPC   C2421678   6.380   2.168   6.669  0.0540 -0.4174  0.0878
  188SLPC   H4R21679   6.287   2.123   6.628 -0.6359  1.1118 -0.0964
  188SLPC   H4S21680   6.345   2.273   6.671 -0.2224 -0.4445 -1.4138
  188SLPC   C2521681   6.429   2.130   6.806 -0.5326 -0.0704 -0.2117
  188SLPC   H5R21682   6.535   2.163   6.805 -0.5571  0.1106 -2.3482
  188SLPC   H5S21683   6.432   2.019   6.809 -0.4673 -0.0381  1.6066
  188SLPC   C2621684   6.348   2.200   6.917 -0.1891 -0.2093 -0.0846
  188SLPC   H6R21685   6.254   2.144   6.938  1.2552 -2.4220  0.8686
  188SLPC   H6S21686   6.334   2.298   6.866  3.0155  0.6546  0.4853
  188SLPC   C2721687   6.430   2.224   7.040  0.1443  0.2200  0.2960
  188SLPC   H7R21688   6.524   2.277   7.011 -0.0437 -0.6078 -2.0401
  188SLPC   H7S21689   6.457   2.127   7.087 -2.8963 -2.8166 -3.4731
  188SLPC   C2821690   6.358   2.312   7.147 -0.0826  0.2787 -0.6298
  188SLPC   H8R21691   6.312   2.404   7.106  0.2455 -0.1832 -2.1086
  188SLPC   H8S21692   6.432   2.336   7.226  1.3246  0.7254 -2.0271
  188SLPC   C2921693   6.247   2.227   7.212 -0.0839 -0.2724  0.0131
  188SLPC   H9R21694   6.192   2.170   7.135 -1.9345  0.8159  0.4722
  188SLPC  C21021695   6.212   2.212   7.340 -0.0026 -0.6553  0.5581
  188SLPC  H10R21696   6.125   2.149   7.366  0.5942 -1.4979  0.5606
  188SLPC  C21121697   6.278   2.292   7.453  0.1208  0.1517 -0.9232
  188SLPC  H11R21698   6.370   2.350   7.426  0.6345 -0.1941  0.0402
  188SLPC  H11S21699   6.321   2.213   7.518  1.1967  1.9589  0.6850
  188SLPC  C21221700   6.168   2.376   7.522  0.2053  0.1724  0.2780
  188SLPC  H12R21701   6.099   2.424   7.451  1.4731  1.1373 -0.3430
  188SLPC  C21321702   6.140   2.387   7.655  0.0745  0.0915 -0.0199
  188SLPC  H13R21703   6.046   2.429   7.693  0.5287  0.6099  0.5563
  188SLPC  C21421704   6.219   2.322   7.760 -0.5201 -0.5276 -1.1706
  188SLPC  H14R21705   6.231   2.396   7.842  3.4799 -0.9348 -1.1930
  188SLPC  H14S21706   6.325   2.314   7.729  0.0914  2.8322 -0.3794
  188SLPC  C21521707   6.170   2.188   7.822  0.0470  0.0023  0.3973
  188SLPC  H15R21708   6.261   2.142   7.865 -0.0099 -0.5852 -0.1039
  188SLPC  H15S21709   6.134   2.114   7.748  0.9300  1.4002 -1.5276
  188SLPC  C21621710   6.060   2.195   7.932 -0.4161 -0.3583  0.3258
  188SLPC  H16R21711   6.043   2.088   7.955 -0.8315 -0.3177  0.2163
  188SLPC  H16S21712   5.970   2.244   7.890  0.5945  1.3669  0.0811
  188SLPC  C21721713   6.103   2.264   8.060 -0.1751  0.4318 -0.3666
  188SLPC  H17R21714   6.125   2.372   8.051 -1.4850  0.9007  1.5668
  188SLPC  H17S21715   6.187   2.218   8.117 -1.5753 -0.3062  1.2050
  188SLPC  C21821716   5.973   2.250   8.144  0.3372  0.3314 -0.3009
  188SLPC  H18R21717   5.982   2.299   8.243  0.0757 -1.7740  0.8189
  188SLPC  H18S21718   5.955   2.140   8.144  1.7663  0.0816 -1.2236
  188SLPC  H18T21719   5.887   2.299   8.094  2.1472  3.0404 -0.9724
  188SLPC   C3321720   6.237   1.808   6.994  0.0269  0.5756 -0.1510
  188SLPC   H3X21721   6.145   1.869   6.985 -0.6544 -0.1297  1.7214
  188SLPC   H3Y21722   6.325   1.875   6.981 -1.5916  2.4261 -2.6818
  188SLPC   C3421723   6.240   1.748   7.140  0.1411 -0.8029 -0.0860
  188SLPC   H4X21724   6.333   1.690   7.159  0.6260 -0.3597 -1.0417
  188SLPC   H4Y21725   6.162   1.670   7.153 -0.3272 -0.3824 -0.3595
  188SLPC   C3521726   6.221   1.855   7.253 -1.0643  0.2172  0.1723
  188SLPC   H5X21727   6.133   1.920   7.238 -0.9105  0.6401  1.0530
  188SLPC   H5Y21728   6.299   1.932   7.234 -0.6993 -0.4295 -1.0819
  188SLPC   C3621729   6.224   1.792   7.389 -0.7525  0.1337 -0.2286
  188SLPC   H6X21730   6.322   1.745   7.408 -1.3085 -0.8233  0.3345
  188SLPC   H6Y21731   6.147   1.712   7.393 -0.5319 -0.3506 -3.1653
  188SLPC   C3721732   6.204   1.890   7.506  0.3510 -0.3236 -0.0548
  188SLPC   H7X21733   6.121   1.964   7.508  1.3028  0.7674 -0.2200
  188SLPC   H7Y21734   6.297   1.951   7.507  1.1472 -1.4842 -0.8328
  188SLPC   C3821735   6.213   1.830   7.647  0.4960  0.0435  0.2936
  188SLPC   H8X21736   6.241   1.903   7.725 -0.4773 -0.1289  0.8239
  188SLPC   H8Y21737   6.296   1.756   7.655  0.3725 -0.0051  1.1979
  188SLPC   C3921738   6.072   1.761   7.687  0.2277  0.6771  0.7222
  188SLPC   H9X21739   6.052   1.674   7.620  1.0390  1.3752 -0.4576
  188SLPC   H9Y21740   5.990   1.835   7.692 -0.6611 -0.0903 -1.1711
  188SLPC  C31021741   6.078   1.693   7.823 -0.0514  0.7857 -0.2007
  188SLPC  H10X21742   6.171   1.631   7.819 -0.3566  0.4010 -1.9861
  188SLPC  H10Y21743   5.993   1.625   7.847  0.2978  0.9399  1.6769
  188SLPC  C31121744   6.095   1.786   7.948  0.2014  0.2130  0.0104
  188SLPC  H11X21745   6.005   1.760   8.008  0.0782  3.5563  1.5478
  188SLPC  H11Y21746   6.077   1.886   7.904  0.3931  0.1663 -0.1731
  188SLPC  C31221747   6.230   1.785   8.019  0.5292 -0.5581  0.0686
  188SLPC  H12X21748   6.324   1.782   7.959  0.5062 -2.1495  0.0772
  188SLPC  H12Y21749   6.220   1.691   8.078  0.2374 -1.1490 -0.9163
  188SLPC  C31321750   6.254   1.899   8.126 -0.1007 -0.2209 -0.3807
  188SLPC  H13X21751   6.178   1.882   8.206 -1.5623  0.3778 -1.6010
  188SLPC  H13Y21752   6.217   1.986   8.069 -1.6451 -1.1275 -0.8234
  188SLPC  C31421753   6.395   1.896   8.184  0.1600  0.1972  0.4955
  188SLPC  H14X21754   6.466   1.956   8.123  1.0232 -0.9676  0.3152
  188SLPC  H14Y21755   6.428   1.791   8.167  0.4046  0.1372  1.2968
  188SLPC  C31521756   6.417   1.939   8.332 -0.1518 -0.7306  0.0481
  188SLPC  H15X21757   6.382   2.044   8.348 -0.1317 -0.7884  0.4988
  188SLPC  H15Y21758   6.523   1.961   8.356 -0.7409  2.0645  0.4952
  188SLPC  C31621759   6.363   1.848   8.447 -0.0660 -0.3159  0.3071
  188SLPC  H16X21760   6.253   1.860   8.436 -0.2720 -0.8819  1.5938
  188SLPC  H16Y21761   6.386   1.893   8.546  0.8876 -0.8158  0.3275
  188SLPC  C31721762   6.396   1.701   8.438 -0.3949  0.1885  0.3764
  188SLPC  H17X21763   6.362   1.663   8.339 -2.2148  1.3910  0.4905
  188SLPC  H17Y21764   6.338   1.641   8.511 -3.3550  0.3447 -1.6758
  188SLPC  C31821765   6.554   1.685   8.459  0.3085  0.1184 -0.3400
  188SLPC  H18X21766   6.576   1.576   8.452 -0.7239 -0.1914  0.8024
  188SLPC  H18Y21767   6.596   1.712   8.558  2.2926 -0.7556 -0.8902
  188SLPC  H18Z21768   6.608   1.733   8.374 -3.1920 -0.1927 -3.0108
  189SLPC     N21769   6.273   3.764   6.036 -0.2423 -0.3479 -0.1693
  189SLPC   C1321770   6.409   3.783   5.984 -0.5942  0.4112 -0.7034
  189SLPC  H13A21771   6.431   3.888   5.997 -1.8125  0.5227  0.8093
  189SLPC  H13B21772   6.487   3.724   6.030 -0.0989  1.0891 -0.6722
  189SLPC  H13C21773   6.412   3.759   5.879  2.0340  3.5042 -1.4665
  189SLPC   C1421774   6.238   3.619   6.021 -0.1393  0.4077 -0.1128
  189SLPC  H14A21775   6.240   3.584   5.919  0.5237  0.9631 -0.2923
  189SLPC  H14B21776   6.315   3.556   6.063 -0.4916  0.2496  0.3132
  189SLPC  H14C21777   6.142   3.595   6.066 -0.6205  1.0703 -0.7595
  189SLPC   C1521778   6.191   3.849   5.939 -0.4647  0.3566 -0.3095
  189SLPC  H15A21779   6.216   3.954   5.949 -0.2779  0.1561  1.5853
  189SLPC  H15B21780   6.218   3.817   5.839 -1.2824 -0.6035 -0.2434
  189SLPC  H15C21781   6.083   3.846   5.950 -0.3734 -0.1017  0.5592
  189SLPC   C1221782   6.254   3.816   6.184  0.0106 -0.1543 -0.2104
  189SLPC  H12A21783   6.155   3.791   6.218 -0.0516 -0.4226 -0.5824
  189SLPC  H12B21784   6.257   3.922   6.166  1.3892 -0.1679 -0.1552
  189SLPC   C1121785   6.356   3.785   6.299 -0.2950  0.1898  0.1478
  189SLPC  H11A21786   6.341   3.677   6.324 -0.6068 -0.0528 -1.0477
  189SLPC  H11B21787   6.324   3.848   6.385 -1.8791 -1.4471  0.8167
  189SLPC     P21788   6.558   3.947   6.267 -0.0484 -0.2981 -0.1029
  189SLPC   O1321789   6.704   3.934   6.246  0.2672 -0.0227  0.1243
  189SLPC   O1421790   6.477   4.040   6.181 -0.1934  0.1976 -0.2189
  189SLPC   O1221791   6.494   3.806   6.258 -0.1923 -0.3764  0.5615
  189SLPC   O1121792   6.543   3.990   6.424 -0.0932 -0.2819  0.3201
  189SLPC    C121793   6.576   3.883   6.518  0.4080 -0.3180  0.6847
  189SLPC    HA21794   6.487   3.825   6.550  0.3033 -0.3973  0.2523
  189SLPC    HB21795   6.640   3.806   6.470  1.5944  1.5183 -0.8129
  189SLPC    C221796   6.650   3.927   6.649 -0.1530 -0.5147  0.1554
  189SLPC    HS21797   6.680   3.839   6.710 -0.3332 -0.8937 -0.3002
  189SLPC   O2121798   6.567   4.011   6.733  0.1642  0.4323 -0.0392
  189SLPC   C2121799   6.481   3.943   6.806 -0.0335 -0.0363  0.3286
  189SLPC   O2221800   6.451   3.822   6.782  0.1660  0.0905 -0.4262
  189SLPC   C2221801   6.426   4.037   6.916  0.3438 -0.3195  0.7364
  189SLPC   H2R21802   6.505   4.089   6.973  1.8597 -0.1761 -1.3812
  189SLPC   H2S21803   6.368   4.114   6.860  4.4260  2.5468 -0.0063
  189SLPC    C321804   6.770   4.004   6.616  0.0750  0.0743 -1.2366
  189SLPC    HX21805   6.740   4.091   6.553 -0.2675  1.6246  0.9465
  189SLPC    HY21806   6.833   3.949   6.543  0.8883 -2.3351  1.1288
  189SLPC   O3121807   6.838   4.051   6.738 -0.3633  0.2728  0.7055
  189SLPC   C3121808   6.953   3.987   6.757  0.2662  0.0314  0.1296
  189SLPC   O3221809   6.977   3.875   6.717  0.1306 -0.3624  0.0961
  189SLPC   C3221810   7.038   4.085   6.841  0.0253 -0.1561  0.1510
  189SLPC   H2X21811   7.043   4.186   6.795  1.3635  0.6256  1.8994
  189SLPC   H2Y21812   7.140   4.042   6.850  0.0370 -0.6540 -1.7995
  189SLPC   C2321813   6.322   3.976   7.014 -0.5283  0.9791  0.2353
  189SLPC   H3R21814   6.385   3.976   7.106  0.4179 -0.3070 -0.3821
  189SLPC   H3S21815   6.304   3.867   7.005 -1.4693  1.2206 -1.0679
  189SLPC   C2421816   6.196   4.050   7.025  0.7094 -0.1024  0.4930
  189SLPC   H4R21817   6.133   4.033   6.935  1.3376 -0.1659  0.0550
  189SLPC   H4S21818   6.221   4.158   7.027  0.4549  0.0502 -1.7242
  189SLPC   C2521819   6.115   4.014   7.154 -0.1563 -0.0846  0.1640
  189SLPC   H5R21820   6.060   3.921   7.130 -1.3055  0.7584 -0.6456
  189SLPC   H5S21821   6.035   4.089   7.172 -0.2824 -0.3499  0.7092
  189SLPC   C2621822   6.195   3.995   7.286 -0.8573  0.3070  1.0328
  189SLPC   H6R21823   6.271   3.915   7.282 -1.7366 -0.5602  1.2905
  189SLPC   H6S21824   6.116   3.960   7.357 -0.1155 -1.9513  0.8300
  189SLPC   C2721825   6.263   4.123   7.345 -0.3910 -0.0994 -0.0053
  189SLPC   H7R21826   6.186   4.203   7.347  0.8839  1.2599 -2.0178
  189SLPC   H7S21827   6.340   4.159   7.274 -0.6319  2.1909  0.8364
  189SLPC   C2821828   6.312   4.095   7.490  0.1076 -0.8941 -0.1032
  189SLPC   H8R21829   6.358   4.190   7.526 -1.9190 -1.1501  3.7000
  189SLPC   H8S21830   6.383   4.010   7.494 -0.6229 -1.5767 -1.1752
  189SLPC   C2921831   6.193   4.071   7.581  0.3010 -0.1394  0.6946
  189SLPC   H9R21832   6.156   3.968   7.571  0.3745 -0.2066  1.0982
  189SLPC  C21021833   6.125   4.148   7.665 -0.6002 -0.1444  0.2549
  189SLPC  H10R21834   6.033   4.111   7.712  0.7299 -2.8325  0.9898
  189SLPC  C21121835   6.158   4.292   7.693 -0.2636  1.2254  0.0097
  189SLPC  H11R21836   6.067   4.347   7.662 -0.5628  0.5226 -0.3954
  189SLPC  H11S21837   6.235   4.327   7.620  0.8938 -3.1815 -1.1890
  189SLPC  C21221838   6.198   4.315   7.839  0.0861  0.0253 -0.4971
  189SLPC  H12R21839   6.120   4.371   7.893  1.1328 -0.3262  1.4356
  189SLPC  C21321840   6.300   4.265   7.907  0.0490  0.5023 -0.3799
  189SLPC  H13R21841   6.313   4.293   8.013 -0.7089  1.5637 -0.5529
  189SLPC  C21421842   6.416   4.188   7.857 -0.4277  0.0295 -0.5521
  189SLPC  H14R21843   6.387   4.138   7.762 -0.9634 -0.1974 -0.2740
  189SLPC  H14S21844   6.451   4.102   7.918  3.0540  0.7139 -1.3736
  189SLPC  C21521845   6.538   4.276   7.829  0.1211  0.1005  0.2711
  189SLPC  H15R21846   6.584   4.324   7.918  1.6931  0.9351 -0.9479
  189SLPC  H15S21847   6.512   4.350   7.750  0.7690  0.8490  0.7431
  189SLPC  C21621848   6.656   4.192   7.775  0.1072 -0.0117  0.6529
  189SLPC  H16R21849   6.734   4.270   7.759 -2.2549  2.3749 -0.1930
  189SLPC  H16S21850   6.610   4.166   7.677 -0.5057  3.5958 -0.1733
  189SLPC  C21721851   6.709   4.077   7.853  0.0575 -0.6930 -0.4218
  189SLPC  H17R21852   6.798   4.046   7.795 -0.1741 -0.9416 -0.6461
  189SLPC  H17S21853   6.645   3.987   7.839 -1.2762  0.4725 -2.2208
  189SLPC  C21821854   6.736   4.111   8.002 -0.2215 -0.1849 -0.5402
  189SLPC  H18R21855   6.810   4.193   7.995 -0.3855  0.2460  1.8552
  189SLPC  H18S21856   6.765   4.022   8.060  2.7862  0.5942 -0.6921
  189SLPC  H18T21857   6.647   4.159   8.050 -0.2176  0.4276 -1.1214
  189SLPC   C3321858   6.978   4.106   6.984  0.5195 -0.4186  0.1672
  189SLPC   H3X21859   6.949   4.007   7.025 -1.4390  0.0149 -0.0790
  189SLPC   H3Y21860   6.890   4.173   6.982  1.5481  0.9678 -1.2439
  189SLPC   C3421861   7.067   4.172   7.087  0.1353 -0.6789  0.2982
  189SLPC   H4X21862   7.160   4.113   7.103 -0.0839 -0.5199  2.4189
  189SLPC   H4Y21863   7.015   4.175   7.185 -0.0840  0.1285  0.1599
  189SLPC   C3521864   7.110   4.315   7.053  0.0457 -0.2887  0.2325
  189SLPC   H5X21865   7.024   4.372   7.014 -1.8635 -1.8921  1.8800
  189SLPC   H5Y21866   7.179   4.306   6.967  1.4390  0.0039  1.2806
  189SLPC   C3621867   7.162   4.383   7.174 -0.1318  0.0590 -0.3495
  189SLPC   H6X21868   7.211   4.306   7.236 -1.6668 -0.7013 -0.0230
  189SLPC   H6Y21869   7.068   4.411   7.227 -0.5934 -0.0740 -1.0870
  189SLPC   C3721870   7.248   4.508   7.167 -0.3565  0.8447  0.9436
  189SLPC   H7X21871   7.184   4.585   7.120 -1.2324 -0.2189  0.3523
  189SLPC   H7Y21872   7.324   4.483   7.090 -2.4942 -2.0002 -0.3958
  189SLPC   C3821873   7.296   4.558   7.307 -0.3383 -0.2257 -0.1110
  189SLPC   H8X21874   7.213   4.562   7.379 -0.7605 -0.0769 -0.5983
  189SLPC   H8Y21875   7.337   4.660   7.295  1.1530 -0.9791 -2.2042
  189SLPC   C3921876   7.397   4.469   7.380 -0.8735  0.8201  0.0034
  189SLPC   H9X21877   7.494   4.458   7.327 -0.6825 -0.2611  0.5699
  189SLPC   H9Y21878   7.367   4.364   7.400  2.7658 -0.3622 -0.0621
  189SLPC  C31021879   7.433   4.530   7.516  0.2679  0.0142  0.2945
  189SLPC  H10X21880   7.344   4.566   7.572 -0.8815 -0.6713 -1.0435
  189SLPC  H10Y21881   7.497   4.617   7.488 -0.6137  0.2280 -1.1212
  189SLPC  C31121882   7.495   4.423   7.610  0.1071  0.1528  0.2642
  189SLPC  H11X21883   7.562   4.369   7.539 -0.4042 -2.0468  1.3511
  189SLPC  H11Y21884   7.418   4.347   7.636  2.6609 -2.5561  0.4858
  189SLPC  C31221885   7.582   4.457   7.727 -0.4193  0.0369  0.4581
  189SLPC  H12X21886   7.653   4.542   7.714 -1.4468  0.9623  0.7558
  189SLPC  H12Y21887   7.649   4.373   7.755 -1.2618 -0.5764  0.6797
  189SLPC  C31321888   7.498   4.498   7.854 -0.8885  0.1933 -0.0039
  189SLPC  H13X21889   7.412   4.430   7.874  1.0974 -2.5299 -0.1278
  189SLPC  H13Y21890   7.458   4.596   7.822  0.1667  0.3747 -0.8207
  189SLPC  C31421891   7.592   4.508   7.979 -0.1756 -0.5517  0.2607
  189SLPC  H14X21892   7.680   4.566   7.944 -1.1072  0.5568 -0.3135
  189SLPC  H14Y21893   7.624   4.406   8.008 -0.2002 -1.0456 -1.3305
  189SLPC  C31521894   7.533   4.576   8.102 -0.5110  0.7730 -0.9605
  189SLPC  H15X21895   7.448   4.641   8.071 -1.8457 -0.3911  0.1091
  189SLPC  H15Y21896   7.601   4.636   8.166 -1.1670 -0.5710  1.1038
  189SLPC  C31621897   7.484   4.471   8.204 -0.2360 -0.2141 -0.5772
  189SLPC  H16X21898   7.570   4.434   8.265 -1.5599  1.8935  2.8420
  189SLPC  H16Y21899   7.425   4.394   8.149 -1.2749  1.3527 -1.7326
  189SLPC  C31721900   7.393   4.530   8.317  0.5307  0.3162  1.0432
  189SLPC  H17X21901   7.313   4.573   8.253 -1.9434 -2.9710  1.6535
  189SLPC  H17Y21902   7.450   4.610   8.367  0.3705  0.5172  0.9053
  189SLPC  C31821903   7.348   4.429   8.424  0.1177  0.1377  0.1700
  189SLPC  H18X21904   7.293   4.488   8.500 -0.0836 -0.2056  0.2927
  189SLPC  H18Y21905   7.429   4.375   8.476  0.3226 -0.3397 -0.6232
  189SLPC  H18Z21906   7.270   4.358   8.388 -0.1443 -1.2340  3.1194
  190SLPC     N21907   0.977   3.145   6.125 -0.4237  0.1972  0.2182
  190SLPC   C1321908   0.978   3.097   5.983  0.2118 -0.3839  0.0622
  190SLPC  H13A21909   0.898   3.143   5.925 -0.1605 -0.9990  0.0804
  190SLPC  H13B21910   1.068   3.122   5.929  1.2800  0.6181  2.1974
  190SLPC  H13C21911   0.954   2.992   5.978 -0.4123 -0.2441 -0.0637
  190SLPC   C1421912   0.978   3.294   6.135 -0.3904 -0.0070 -0.3656
  190SLPC  H14A21913   0.957   3.339   6.231 -2.4856 -2.0582  0.2140
  190SLPC  H14B21914   1.081   3.315   6.110 -0.1178  0.8702  1.3220
  190SLPC  H14C21915   0.915   3.339   6.061  0.2220  1.3346 -0.1008
  190SLPC   C1521916   1.102   3.087   6.191  0.1230  0.1858 -0.6486
  190SLPC  H15A21917   1.107   3.105   6.297 -0.1250 -2.6412 -0.1016
  190SLPC  H15B21918   1.096   2.981   6.173  2.2073 -0.0096 -0.4179
  190SLPC  H15C21919   1.200   3.117   6.155  1.5411 -1.1990  1.8199
  190SLPC   C1221920   0.861   3.083   6.192  0.0153 -0.1155  0.2723
  190SLPC  H12A21921   0.773   3.112   6.137  0.0790 -1.7994 -0.8027
  190SLPC  H12B21922   0.850   3.135   6.286  0.1237  1.2733 -0.4486
  190SLPC   C1121923   0.854   2.928   6.216  0.7163  0.9072 -0.3477
  190SLPC  H11A21924   0.753   2.901   6.252  1.0421 -1.1069 -0.8288
  190SLPC  H11B21925   0.926   2.898   6.296  0.7728  1.6175 -0.1267
  190SLPC     P21926   0.966   2.731   6.091 -0.0332  0.2290  0.2917
  190SLPC   O1321927   0.936   2.664   5.961  0.4826 -0.3284 -0.0644
  190SLPC   O1421928   1.104   2.773   6.114  0.6317 -0.2182 -0.0813
  190SLPC   O1221929   0.862   2.844   6.105 -0.0883 -0.0586 -0.2271
  190SLPC   O1121930   0.936   2.635   6.200 -0.5122  1.1056 -0.7431
  190SLPC    C121931   0.810   2.592   6.244  0.5784  0.8160 -0.3939
  190SLPC    HA21932   0.731   2.633   6.177  1.5982  0.7688 -1.6811
  190SLPC    HB21933   0.802   2.483   6.221  2.9116  0.3366  0.7696
  190SLPC    C221934   0.779   2.616   6.395  0.5169 -0.7089  0.4033
  190SLPC    HS21935   0.734   2.717   6.406  0.2316 -0.9239  1.3173
  190SLPC   O2121936   0.898   2.594   6.471 -0.0484  0.3904 -0.6048
  190SLPC   C2121937   0.949   2.707   6.515 -0.5030  0.3923  0.4975
  190SLPC   O2221938   0.904   2.820   6.514  0.0358 -0.0736 -0.3886
  190SLPC   C2221939   1.076   2.662   6.582  0.6622  0.0821 -0.1637
  190SLPC   H2R21940   1.117   2.582   6.518 -0.4817 -0.9945  0.4266
  190SLPC   H2S21941   1.151   2.744   6.573  0.2544  0.3419 -1.3170
  190SLPC    C321942   0.678   2.515   6.438 -0.5081  0.7139  0.6068
  190SLPC    HX21943   0.732   2.418   6.443  0.0262  1.0576  1.8631
  190SLPC    HY21944   0.606   2.511   6.353  0.1055  1.9192  0.0035
  190SLPC   O3121945   0.621   2.553   6.562  0.1962  0.1572  0.1662
  190SLPC   C3121946   0.674   2.499   6.677  0.3807 -0.3159 -0.0241
  190SLPC   O3221947   0.756   2.415   6.680  0.4352  0.2708  0.5981
  190SLPC   C3221948   0.607   2.556   6.801 -0.2752 -0.5072 -0.2757
  190SLPC   H2X21949   0.503   2.518   6.799 -0.5829 -0.1510  3.2646
  190SLPC   H2Y21950   0.613   2.667   6.794  0.9654 -0.5213  0.3385
  190SLPC   C2321951   1.050   2.613   6.723 -0.0498 -0.1930 -0.0047
  190SLPC   H3R21952   1.146   2.571   6.762 -0.7318 -2.5399 -0.6666
  190SLPC   H3S21953   0.980   2.527   6.733  0.0424 -0.2920 -0.1962
  190SLPC   C2421954   0.999   2.726   6.817  0.0812  0.1840 -0.8934
  190SLPC   H4R21955   0.890   2.731   6.796 -0.2724 -2.6875 -0.0949
  190SLPC   H4S21956   1.036   2.829   6.793 -0.9577  0.6831 -0.4178
  190SLPC   C2521957   1.034   2.705   6.966  0.5156  0.3093 -0.4867
  190SLPC   H5R21958   1.144   2.723   6.970  0.2815  1.7202  2.5372
  190SLPC   H5S21959   1.026   2.597   6.993  1.4991  0.3444  0.0136
  190SLPC   C2621960   0.970   2.800   7.075 -0.1769 -0.1397 -0.4988
  190SLPC   H6R21961   0.861   2.781   7.069 -0.0495 -1.7894  1.3093
  190SLPC   H6S21962   0.978   2.908   7.052  0.3559 -0.0300  0.1855
  190SLPC   C2721963   1.019   2.776   7.219 -0.4385  0.2113  0.3421
  190SLPC   H7R21964   1.128   2.800   7.217 -0.2615 -0.2842 -3.7194
  190SLPC   H7S21965   1.001   2.670   7.244  0.8350 -0.8042 -2.5710
  190SLPC   C2821966   0.937   2.856   7.322 -0.4443 -0.1176  0.1164
  190SLPC   H8R21967   0.971   2.829   7.425  1.7487  0.2714 -0.4458
  190SLPC   H8S21968   0.833   2.817   7.318  0.5692 -3.2397  1.3286
  190SLPC   C2921969   0.946   3.012   7.318 -0.8303  0.1240 -0.2171
  190SLPC   H9R21970   0.919   3.054   7.220  0.0056  0.0467 -0.4841
  190SLPC  C21021971   1.008   3.084   7.411  0.4079 -0.8219 -0.1469
  190SLPC  H10R21972   0.996   3.193   7.404 -3.0788 -1.1153 -0.4529
  190SLPC  C21121973   1.071   3.028   7.537 -0.6054 -0.3732  0.0805
  190SLPC  H11R21974   0.997   2.972   7.599 -1.0802 -0.8306 -0.8787
  190SLPC  H11S21975   1.105   3.113   7.600 -0.9904  0.5865 -0.9722
  190SLPC  C21221976   1.196   2.953   7.499  0.5623 -0.5292 -0.6191
  190SLPC  H12R21977   1.235   2.993   7.405 -1.2358 -0.8976 -1.5832
  190SLPC  C21321978   1.238   2.844   7.565 -0.6068  0.0505  0.4156
  190SLPC  H13R21979   1.318   2.787   7.515 -0.7916  0.7357 -0.6946
  190SLPC  C21421980   1.185   2.784   7.690 -0.5030  0.0944  0.2457
  190SLPC  H14R21981   1.163   2.682   7.652 -0.2682  0.2204 -0.2355
  190SLPC  H14S21982   1.088   2.829   7.718 -1.2023 -0.7096 -0.8205
  190SLPC  C21521983   1.279   2.793   7.807  0.3197  0.7125  0.4410
  190SLPC  H15R21984   1.360   2.716   7.800 -0.9955 -0.6442 -0.5166
  190SLPC  H15S21985   1.211   2.763   7.889 -1.4305 -0.9392 -1.4910
  190SLPC  C21621986   1.331   2.930   7.855 -0.3033 -0.7066  0.2900
  190SLPC  H16R21987   1.243   2.988   7.890 -0.2390 -1.2372  1.3991
  190SLPC  H16S21988   1.373   2.979   7.765  0.0259  0.0910  0.8681
  190SLPC  C21721989   1.446   2.917   7.951  0.6714  0.5354 -0.4400
  190SLPC  H17R21990   1.474   3.022   7.973  0.5917  0.6354 -0.7996
  190SLPC  H17S21991   1.528   2.879   7.886  1.4428  3.6705 -1.4842
  190SLPC  C21821992   1.416   2.825   8.071  0.4522 -0.1340  0.6398
  190SLPC  H18R21993   1.490   2.838   8.153  1.2544  1.3185 -0.2675
  190SLPC  H18S21994   1.417   2.718   8.043  0.2505  0.0170  0.0315
  190SLPC  H18T21995   1.316   2.857   8.108  0.7550  0.3179  1.0957
  190SLPC   C3321996   0.689   2.512   6.935 -0.3031  0.5536  0.9367
  190SLPC   H3X21997   0.774   2.582   6.947 -0.7944  1.4474 -0.5597
  190SLPC   H3Y21998   0.725   2.407   6.920  2.5496  1.6322 -0.6001
  190SLPC   C3421999   0.603   2.527   7.057  0.1036 -0.3301  0.2890
  190SLPC   H4X22000   0.513   2.462   7.060 -1.5130  1.7876  0.0061
  190SLPC   H4Y22001   0.552   2.626   7.059 -0.6572 -0.6908 -0.6388
  190SLPC   C3522002   0.680   2.526   7.191  0.2945  0.4026  0.3634
  190SLPC   H5X22003   0.770   2.588   7.172  0.8655 -1.3333 -3.7508
  190SLPC   H5Y22004   0.719   2.427   7.226  0.8625  0.7659  0.7742
  190SLPC   C3622005   0.599   2.589   7.294 -0.0939 -0.7643 -0.1925
  190SLPC   H6X22006   0.504   2.535   7.316 -0.0507 -0.7808 -0.0449
  190SLPC   H6Y22007   0.560   2.692   7.281 -1.3562 -1.3306 -1.1487
  190SLPC   C3722008   0.675   2.598   7.438  0.3152 -0.2785  0.3619
  190SLPC   H7X22009   0.750   2.679   7.427 -1.7159  1.6435 -0.0500
  190SLPC   H7Y22010   0.736   2.507   7.452  0.2221 -0.5148 -0.6577
  190SLPC   C3822011   0.597   2.614   7.563  0.0195 -1.2204 -0.1181
  190SLPC   H8X22012   0.514   2.541   7.552 -0.7657 -0.7470  2.1219
  190SLPC   H8Y22013   0.538   2.707   7.581  1.5067 -0.2482 -0.1297
  190SLPC   C3922014   0.682   2.588   7.683  0.0331  0.0814 -0.3412
  190SLPC   H9X22015   0.784   2.630   7.669  1.0687 -1.7184  1.2422
  190SLPC   H9Y22016   0.672   2.477   7.690 -0.6130  0.2460  2.6005
  190SLPC  C31022017   0.616   2.636   7.811 -0.3334  0.2912  0.2681
  190SLPC  H10X22018   0.537   2.561   7.833 -1.0679  0.8349 -0.4488
  190SLPC  H10Y22019   0.566   2.734   7.797 -0.8998  0.2522  1.8474
  190SLPC  C31122020   0.711   2.643   7.937  0.0828 -0.2580 -1.0336
  190SLPC  H11X22021   0.788   2.719   7.911  1.6488 -2.4554 -3.3146
  190SLPC  H11Y22022   0.749   2.540   7.955 -0.6522 -0.0957  1.9980
  190SLPC  C31222023   0.629   2.670   8.056 -0.1104  0.3442 -0.1984
  190SLPC  H12X22024   0.563   2.582   8.072  1.6980 -0.8560  1.1983
  190SLPC  H12Y22025   0.571   2.764   8.045 -0.6855  0.0798  0.4975
  190SLPC  C31322026   0.722   2.685   8.174  0.3623  0.3361  0.8871
  190SLPC  H13X22027   0.798   2.764   8.154  0.7252 -0.5662 -1.6732
  190SLPC  H13Y22028   0.782   2.592   8.172  0.2349  0.2637 -0.9699
  190SLPC  C31422029   0.649   2.711   8.306 -0.3978 -1.2970  0.0657
  190SLPC  H14X22030   0.578   2.630   8.333  0.7752 -1.6359  2.3798
  190SLPC  H14Y22031   0.590   2.805   8.293 -2.9870 -2.7156  0.9086
  190SLPC  C31522032   0.739   2.743   8.425 -0.1655  0.5366 -0.1786
  190SLPC  H15X22033   0.824   2.799   8.381  0.0042  1.0532  0.7753
  190SLPC  H15Y22034   0.784   2.651   8.469 -2.2562 -0.2509  0.4324
  190SLPC  C31622035   0.684   2.831   8.537  0.1075  0.6168 -0.0926
  190SLPC  H16X22036   0.642   2.921   8.487  0.8680 -0.0306 -2.0060
  190SLPC  H16Y22037   0.769   2.856   8.603  2.0771 -0.3759 -2.0949
  190SLPC  C31722038   0.563   2.765   8.615 -0.1828  0.0905  0.1308
  190SLPC  H17X22039   0.613   2.681   8.667 -3.0893 -0.4279  2.3843
  190SLPC  H17Y22040   0.491   2.721   8.542  0.3618 -0.5071 -0.0501
  190SLPC  C31822041   0.493   2.860   8.716  0.5025  0.6476  1.1193
  190SLPC  H18X22042   0.422   2.931   8.669  0.0061 -0.1188  0.6872
  190SLPC  H18Y22043   0.567   2.932   8.755 -0.4095  2.2304  0.0181
  190SLPC  H18Z22044   0.453   2.797   8.799 -0.0549  2.4967  2.2936
  191SLPC     N22045   0.524   3.183   5.644  0.0129 -0.3923 -0.4185
  191SLPC   C1322046   0.509   3.031   5.625 -0.4617  0.0126 -0.5053
  191SLPC  H13A22047   0.446   3.017   5.539 -2.0266  2.3426  0.1746
  191SLPC  H13B22048   0.601   2.975   5.617 -0.8777 -0.7343 -0.1971
  191SLPC  H13C22049   0.444   2.989   5.700 -2.8550  0.7677 -2.0687
  191SLPC   C1422050   0.540   3.257   5.512  0.1550  0.6762 -0.5321
  191SLPC  H14A22051   0.610   3.214   5.441 -0.7998 -0.5528 -0.7710
  191SLPC  H14B22052   0.445   3.279   5.466 -0.1439  0.0289 -0.2328
  191SLPC  H14C22053   0.589   3.347   5.545  0.2294 -0.1017  1.6651
  191SLPC   C1522054   0.645   3.204   5.719 -0.2790 -0.0437  0.2425
  191SLPC  H15A22055   0.733   3.193   5.657  0.1815 -1.7239  1.1361
  191SLPC  H15B22056   0.651   3.304   5.761  0.1927 -0.9955  2.6020
  191SLPC  H15C22057   0.664   3.132   5.797  1.4012  0.7138  0.5752
  191SLPC   C1222058   0.396   3.239   5.699 -0.2013 -1.0121 -0.0376
  191SLPC  H12A22059   0.368   3.193   5.792 -0.9258  2.4169  1.5812
  191SLPC  H12B22060   0.320   3.203   5.631  1.8059 -3.7870 -1.0081
  191SLPC   C1122061   0.385   3.393   5.723  0.0818 -0.0221  0.4001
  191SLPC  H11A22062   0.280   3.423   5.740  0.4342  0.3748  1.9939
  191SLPC  H11B22063   0.407   3.449   5.629 -1.3717 -1.8777 -1.1296
  191SLPC     P22064   0.536   3.571   5.840  0.0915  0.0424  0.0408
  191SLPC   O1322065   0.603   3.595   5.714  0.3039 -0.1046  0.1704
  191SLPC   O1422066   0.444   3.671   5.892  0.0005 -0.5868 -0.6680
  191SLPC   O1222067   0.465   3.429   5.836  0.3193 -0.2045  0.0209
  191SLPC   O1122068   0.656   3.549   5.941 -0.2398 -0.0685  0.0583
  191SLPC    C122069   0.678   3.608   6.064 -0.1437  0.0867  0.1484
  191SLPC    HA22070   0.783   3.592   6.097  0.5148  1.3473 -1.2104
  191SLPC    HB22071   0.668   3.719   6.061  0.6026  0.2982  2.9954
  191SLPC    C222072   0.586   3.547   6.170 -0.2775 -0.0673 -0.2401
  191SLPC    HS22073   0.477   3.562   6.156 -0.2775  0.6272  0.4203
  191SLPC   O2122074   0.620   3.596   6.304 -0.0528 -0.3315 -0.4231
  191SLPC   C2122075   0.590   3.721   6.325 -0.6939  0.1716 -0.4061
  191SLPC   O2222076   0.515   3.788   6.255 -0.0865 -0.1381 -0.4246
  191SLPC   C2222077   0.630   3.755   6.469 -0.0578 -0.5684 -0.1415
  191SLPC   H2R22078   0.553   3.715   6.539 -0.1642  0.4922  0.3623
  191SLPC   H2S22079   0.732   3.714   6.485  1.0205  2.1912  0.4706
  191SLPC    C322080   0.599   3.391   6.166  0.8291 -0.8010 -0.8148
  191SLPC    HX22081   0.706   3.363   6.172  1.3934  1.1799 -0.7472
  191SLPC    HY22082   0.570   3.352   6.066 -0.9579 -0.5387 -0.4326
  191SLPC   O3122083   0.512   3.336   6.262 -0.9301  0.1185  0.2661
  191SLPC   C3122084   0.501   3.201   6.270  0.0770  0.3587 -0.5137
  191SLPC   O3222085   0.565   3.127   6.198  0.3348  0.1569 -0.8923
  191SLPC   C3222086   0.412   3.161   6.395 -0.4618  0.5413 -0.1209
  191SLPC   H2X22087   0.315   3.210   6.376  1.3359  4.2910 -0.4690
  191SLPC   H2Y22088   0.457   3.200   6.489  2.4447 -0.7397 -0.8522
  191SLPC   C2322089   0.627   3.914   6.502 -0.5811  0.7419 -0.3969
  191SLPC   H3R22090   0.519   3.926   6.480 -0.3655  0.1305 -1.9434
  191SLPC   H3S22091   0.694   3.966   6.430  2.1175  0.9544  2.0738
  191SLPC   C2422092   0.656   3.948   6.647 -0.4083  0.0552 -0.2032
  191SLPC   H4R22093   0.766   3.948   6.660 -0.1445 -1.0749 -1.9800
  191SLPC   H4S22094   0.610   3.866   6.707 -0.6544 -1.0239 -1.7820
  191SLPC   C2522095   0.599   4.089   6.682  0.1678  0.2539  0.2890
  191SLPC   H5R22096   0.493   4.101   6.649 -0.7062 -4.0972  0.8438
  191SLPC   H5S22097   0.655   4.161   6.619  0.3221 -0.0296  0.0946
  191SLPC   C2622098   0.593   4.125   6.830 -0.6175 -0.0081  1.5585
  191SLPC   H6R22099   0.517   4.074   6.893 -1.4463 -1.7726 -0.7069
  191SLPC   H6S22100   0.584   4.236   6.835  0.0120  0.0486  1.5102
  191SLPC   C2722101   0.726   4.099   6.903  0.0094  0.3515 -0.1715
  191SLPC   H7R22102   0.802   4.119   6.825  0.7919  1.5077  0.8503
  191SLPC   H7S22103   0.728   3.994   6.938 -0.6503  1.0672  2.1917
  191SLPC   C2822104   0.747   4.185   7.028  0.1370 -0.3635  0.3727
  191SLPC   H8R22105   0.747   4.286   6.981 -0.1260 -1.6978 -2.7521
  191SLPC   H8S22106   0.847   4.160   7.069  0.7517  1.6756  0.2067
  191SLPC   C2922107   0.634   4.173   7.139  0.2203 -0.0743 -0.1707
  191SLPC   H9R22108   0.537   4.218   7.115  0.4944  1.4744  1.4280
  191SLPC  C21022109   0.647   4.106   7.255  0.4899  0.1299 -0.3586
  191SLPC  H10R22110   0.561   4.089   7.321  1.2760  0.0467  0.6663
  191SLPC  C21122111   0.760   4.022   7.314 -0.6838  0.0062  0.1742
  191SLPC  H11R22112   0.826   3.989   7.231  1.6575  3.6131  0.3976
  191SLPC  H11S22113   0.721   3.931   7.364  0.6861 -1.0324 -0.6087
  191SLPC  C21222114   0.842   4.117   7.405 -0.3410  1.1685  0.7175
  191SLPC  H12R22115   0.884   4.208   7.362 -1.3715  2.6488  2.6616
  191SLPC  C21322116   0.872   4.085   7.532 -0.2536  0.6511 -0.1387
  191SLPC  H13R22117   0.930   4.160   7.588 -3.3443  4.2376 -1.2667
  191SLPC  C21422118   0.825   3.967   7.606 -0.0106  0.4035 -0.4261
  191SLPC  H14R22119   0.908   3.906   7.650 -1.0562  0.5164  1.8936
  191SLPC  H14S22120   0.760   3.898   7.548 -1.8602  0.9006  0.9454
  191SLPC  C21522121   0.732   4.004   7.722  0.0712  0.3808  0.4795
  191SLPC  H15R22122   0.696   3.909   7.768 -0.4962  0.5330  0.3593
  191SLPC  H15S22123   0.646   4.069   7.695 -0.0271 -0.0588 -0.3101
  191SLPC  C21622124   0.804   4.074   7.843  0.6624  0.2979  0.3094
  191SLPC  H16R22125   0.859   4.166   7.813  1.7450 -0.4582 -0.0998
  191SLPC  H16S22126   0.879   4.008   7.893 -1.3498 -1.9447  0.5979
  191SLPC  C21722127   0.716   4.114   7.959  0.2324 -0.3621  0.5582
  191SLPC  H17R22128   0.641   4.178   7.908  1.2058  0.3983  0.0164
  191SLPC  H17S22129   0.780   4.169   8.032  1.1904  0.5389 -0.9074
  191SLPC  C21822130   0.647   4.013   8.049  0.0576  0.2987  0.8163
  191SLPC  H18R22131   0.592   3.929   8.002 -3.4993  2.0976  1.4340
  191SLPC  H18S22132   0.571   4.075   8.103 -0.2997 -0.0653  0.7356
  191SLPC  H18T22133   0.714   3.972   8.128  2.0682  0.9346 -0.4859
  191SLPC   C3322134   0.400   3.015   6.420  0.1536 -0.0667  0.2579
  191SLPC   H3X22135   0.353   2.961   6.335  1.2294 -1.4202  0.4716
  191SLPC   H3Y22136   0.319   3.011   6.496  1.4049 -0.2539  1.6301
  191SLPC   C3422137   0.530   2.944   6.460  0.0907  0.0543  0.7723
  191SLPC   H4X22138   0.599   2.969   6.377 -0.8073 -0.0018 -0.0169
  191SLPC   H4Y22139   0.508   2.836   6.465 -1.1915  0.2606  0.0610
  191SLPC   C3522140   0.597   2.987   6.594 -0.1328  0.7930 -0.8528
  191SLPC   H5X22141   0.649   3.084   6.594  1.1344  0.1612  1.2686
  191SLPC   H5Y22142   0.677   2.916   6.624 -1.0839  0.1875  0.3305
  191SLPC   C3622143   0.504   3.007   6.716 -0.0953  0.3279  0.3982
  191SLPC   H6X22144   0.466   2.905   6.740  2.3076 -1.4072 -2.4663
  191SLPC   H6Y22145   0.429   3.087   6.700  0.8364  0.8345 -1.7913
  191SLPC   C3722146   0.584   3.055   6.837 -0.1375  0.6849  0.1058
  191SLPC   H7X22147   0.626   3.157   6.819  1.8704  0.7508  4.0972
  191SLPC   H7Y22148   0.678   2.999   6.859  0.8427  2.6789  1.3645
  191SLPC   C3822149   0.492   3.055   6.959 -0.1943 -0.4853 -0.2737
  191SLPC   H8X22150   0.434   2.962   6.977  1.0464 -1.1753  0.3377
  191SLPC   H8Y22151   0.422   3.140   6.954 -1.5780 -1.6150 -0.7791
  191SLPC   C3922152   0.583   3.067   7.086 -0.3331 -0.2066 -0.5101
  191SLPC   H9X22153   0.642   3.161   7.084  1.6479 -1.3958 -2.8113
  191SLPC   H9Y22154   0.655   2.982   7.080 -0.6664 -0.4812 -0.7102
  191SLPC  C31022155   0.492   3.039   7.204 -0.5847  0.1250  0.4136
  191SLPC  H10X22156   0.438   2.942   7.200  0.4504 -0.4443 -0.0898
  191SLPC  H10Y22157   0.429   3.130   7.212  1.1274  1.4687 -0.7020
  191SLPC  C31122158   0.581   3.046   7.329 -0.3581 -0.4915  0.1582
  191SLPC  H11X22159   0.633   3.144   7.327  2.3472 -1.8454 -0.9557
  191SLPC  H11Y22160   0.660   2.968   7.323 -1.0884 -1.5590  2.7702
  191SLPC  C31222161   0.491   3.036   7.453  0.3894 -0.3637 -0.5007
  191SLPC  H12X22162   0.422   2.950   7.440  0.9673 -0.7938 -0.7948
  191SLPC  H12Y22163   0.423   3.123   7.453  2.7177  1.6629  2.2712
  191SLPC  C31322164   0.566   3.028   7.591 -0.4245  0.0500 -0.5042
  191SLPC  H13X22165   0.622   2.932   7.591 -1.2129 -0.4363  0.9489
  191SLPC  H13Y22166   0.495   3.033   7.676  0.6440 -1.2858  0.5034
  191SLPC  C31422167   0.664   3.141   7.622 -0.0070  0.2384  0.0485
  191SLPC  H14X22168   0.618   3.242   7.622  0.0480  0.2658 -0.3488
  191SLPC  H14Y22169   0.749   3.139   7.550 -0.3859  2.0287 -0.4902
  191SLPC  C31522170   0.734   3.115   7.755  0.1890  0.2941 -0.4551
  191SLPC  H15X22171   0.822   3.183   7.763  2.1208 -2.3040  2.2491
  191SLPC  H15Y22172   0.782   3.016   7.745  0.2216  0.2119  0.4621
  191SLPC  C31622173   0.642   3.121   7.879  0.2445  0.0026  0.3915
  191SLPC  H16X22174   0.546   3.066   7.869 -0.7489  1.7407 -0.0721
  191SLPC  H16Y22175   0.614   3.228   7.891  1.2377  0.0949  2.1459
  191SLPC  C31722176   0.709   3.077   8.014  0.4266 -0.0526 -0.6767
  191SLPC  H17X22177   0.804   3.134   8.018  0.6612 -0.5104  0.9181
  191SLPC  H17Y22178   0.737   2.970   8.011 -0.2090 -0.3355  1.6039
  191SLPC  C31822179   0.618   3.098   8.139 -0.1955  0.2380 -0.0724
  191SLPC  H18X22180   0.600   3.207   8.149 -0.3824  0.6225 -3.5712
  191SLPC  H18Y22181   0.666   3.062   8.233  2.5636  1.5324 -0.8731
  191SLPC  H18Z22182   0.520   3.047   8.130 -0.5168  0.8360 -0.0468
  192SLPC     N22183   3.018   5.276   6.045  0.6983  0.1517  0.0731
  192SLPC   C1322184   2.945   5.398   5.981 -0.1657  0.1707 -0.3990
  192SLPC  H13A22185   2.858   5.375   5.921 -0.8410  1.1028  0.1831
  192SLPC  H13B22186   2.901   5.454   6.063  2.2637 -1.6613  2.3788
  192SLPC  H13C22187   3.011   5.456   5.918  0.4212  1.2759  1.1618
  192SLPC   C1422188   3.142   5.333   6.115  0.2064  1.1411 -0.9553
  192SLPC  H14A22189   3.198   5.257   6.167  0.8731  0.6453 -2.3632
  192SLPC  H14B22190   3.213   5.378   6.048  0.4131  1.4704 -0.5219
  192SLPC  H14C22191   3.111   5.411   6.184 -0.3966  0.8157 -0.8533
  192SLPC   C1522192   3.057   5.196   5.927 -0.1725  0.3286 -0.2576
  192SLPC  H15A22193   3.128   5.119   5.955 -0.3024 -0.0856 -1.0429
  192SLPC  H15B22194   2.979   5.138   5.881  2.3049 -2.3064 -1.5220
  192SLPC  H15C22195   3.106   5.254   5.850  1.5839 -0.3757  0.2709
  192SLPC   C1222196   2.944   5.187   6.141  0.3841 -0.5272  0.5405
  192SLPC  H12A22197   2.993   5.092   6.156  0.2906 -0.6639 -0.0011
  192SLPC  H12B22198   2.852   5.160   6.091 -0.4193  1.7159  0.7076
  192SLPC   C1122199   2.893   5.250   6.277  0.4582 -0.0369 -0.2684
  192SLPC  H11A22200   2.985   5.272   6.336  1.1404 -0.3332 -1.1863
  192SLPC  H11B22201   2.840   5.167   6.328  1.3597 -0.6202 -0.2621
  192SLPC     P22202   2.653   5.364   6.254  0.1807 -0.3519  0.2108
  192SLPC   O1322203   2.606   5.441   6.138  0.3147  0.0685 -0.1637
  192SLPC   O1422204   2.595   5.233   6.284  0.1800 -0.0877  0.3319
  192SLPC   O1222205   2.804   5.365   6.261 -0.3973  0.1517  0.8123
  192SLPC   O1122206   2.608   5.460   6.373 -0.1839  0.1893  0.1515
  192SLPC    C122207   2.688   5.513   6.485 -0.4469  0.0625  0.1521
  192SLPC    HA22208   2.788   5.547   6.454  0.4748 -2.5129  0.0279
  192SLPC    HB22209   2.641   5.602   6.532  2.4371  0.6559  2.1233
  192SLPC    C222210   2.703   5.404   6.596  0.1959 -0.2228  0.1671
  192SLPC    HS22211   2.751   5.313   6.555 -3.5662 -1.8991 -0.9451
  192SLPC   O2122212   2.574   5.373   6.641  0.7739  0.0292 -0.1180
  192SLPC   C2122213   2.551   5.254   6.686  0.7368 -0.8452 -0.0300
  192SLPC   O2222214   2.630   5.160   6.690  0.1164  0.1763 -0.1393
  192SLPC   C2222215   2.415   5.250   6.760  0.7574  0.1030  0.4102
  192SLPC   H2R22216   2.401   5.344   6.817 -0.2791  0.1809  0.0506
  192SLPC   H2S22217   2.334   5.249   6.684 -0.2967 -0.4902  1.5100
  192SLPC    C322218   2.783   5.462   6.718  1.4693  0.2685  0.2500
  192SLPC    HX22219   2.748   5.554   6.769  1.6272 -0.6252  2.0568
  192SLPC    HY22220   2.875   5.478   6.657  0.1832 -1.7534 -2.4314
  192SLPC   O3122221   2.798   5.360   6.822 -0.1561  0.0706 -0.2459
  192SLPC   C3122222   2.903   5.290   6.823  0.3410  0.1620  0.1809
  192SLPC   O3222223   2.980   5.281   6.729 -0.2950  0.7989 -0.2303
  192SLPC   C3222224   2.925   5.231   6.969  0.3307  0.7892 -0.4752
  192SLPC   H2X22225   2.828   5.184   6.997  0.2086  1.9333  1.1657
  192SLPC   H2Y22226   2.935   5.320   7.035  1.2348  1.2714 -1.2287
  192SLPC   C2322227   2.388   5.126   6.851  0.2187 -0.4639 -0.4341
  192SLPC   H3R22228   2.410   5.035   6.791 -0.6567  0.2763 -1.9469
  192SLPC   H3S22229   2.283   5.123   6.886  1.2937 -0.4144  3.2427
  192SLPC   C2422230   2.483   5.114   6.969 -0.0476 -0.7089 -0.2336
  192SLPC   H4R22231   2.579   5.088   6.920 -0.9352  0.7715 -2.9346
  192SLPC   H4S22232   2.451   5.038   7.043 -1.8953 -1.3198 -1.5965
  192SLPC   C2522233   2.499   5.249   7.042  0.3396  0.0710 -0.2012
  192SLPC   H5R22234   2.542   5.323   6.971  0.0261 -0.1964 -0.6765
  192SLPC   H5S22235   2.570   5.238   7.127  1.5599 -1.0278 -1.3301
  192SLPC   C2622236   2.368   5.311   7.095  0.4801  0.8792 -0.3687
  192SLPC   H6R22237   2.320   5.246   7.170 -0.7214  1.9899 -0.1354
  192SLPC   H6S22238   2.298   5.347   7.017 -0.1409  1.7783  0.5839
  192SLPC   C2722239   2.403   5.436   7.176  0.1410 -0.1103  0.7784
  192SLPC   H7R22240   2.420   5.520   7.105 -0.6545  2.2696  3.2211
  192SLPC   H7S22241   2.503   5.424   7.224  0.6535 -0.9947 -0.4437
  192SLPC   C2822242   2.302   5.480   7.282 -0.1219 -0.3568 -1.0514
  192SLPC   H8R22243   2.309   5.395   7.354  2.6443 -1.7512 -2.8057
  192SLPC   H8S22244   2.203   5.498   7.234 -0.9210  1.1494  1.0004
  192SLPC   C2922245   2.347   5.612   7.347  0.3181  0.0320 -0.6151
  192SLPC   H9R22246   2.381   5.683   7.271  1.7972 -0.2930 -0.2911
  192SLPC  C21022247   2.370   5.622   7.483 -0.3656 -0.1140  0.4027
  192SLPC  H10R22248   2.425   5.711   7.518  0.7608 -0.6481  0.0134
  192SLPC  C21122249   2.337   5.514   7.589  0.1917 -0.1367  0.0195
  192SLPC  H11R22250   2.248   5.451   7.569 -0.2251 -0.3412  2.2341
  192SLPC  H11S22251   2.317   5.563   7.687 -1.3603 -0.2809 -0.1900
  192SLPC  C21222252   2.457   5.421   7.607  0.1452  0.0412 -0.6585
  192SLPC  H12R22253   2.522   5.407   7.519  1.2797  0.1926  0.1463
  192SLPC  C21322254   2.485   5.362   7.724 -0.1836  0.7570  0.6162
  192SLPC  H13R22255   2.575   5.300   7.733 -0.2185  0.6363  0.1559
  192SLPC  C21422256   2.409   5.375   7.857  0.4115  0.0884 -0.6125
  192SLPC  H14R22257   2.373   5.276   7.892  0.0732  0.4514  0.0921
  192SLPC  H14S22258   2.314   5.431   7.851 -0.8769 -1.8156  0.6462
  192SLPC  C21522259   2.506   5.430   7.964 -0.5843 -0.1454 -0.8080
  192SLPC  H15R22260   2.556   5.525   7.933 -1.7240  0.6930 -0.1351
  192SLPC  H15S22261   2.587   5.357   7.987 -2.0275 -2.1042 -1.6520
  192SLPC  C21622262   2.445   5.478   8.091  0.2012  0.5470 -0.8275
  192SLPC  H16R22263   2.364   5.554   8.083 -2.7912 -2.2487  0.5328
  192SLPC  H16S22264   2.518   5.513   8.167 -1.0537 -0.8790  1.1247
  192SLPC  C21722265   2.363   5.361   8.156  0.6262  0.3642 -0.7038
  192SLPC  H17R22266   2.346   5.404   8.257  1.2389  2.8600 -1.5999
  192SLPC  H17S22267   2.265   5.346   8.106 -0.5494 -1.4494  1.8997
  192SLPC  C21822268   2.435   5.223   8.167 -0.5628  0.4666  0.4238
  192SLPC  H18R22269   2.391   5.165   8.250  0.3382  1.0147  1.3056
  192SLPC  H18S22270   2.541   5.249   8.189  0.0602 -1.2634 -0.3788
  192SLPC  H18T22271   2.430   5.157   8.078 -3.2132 -2.4144  2.5214
  192SLPC   C3322272   3.045   5.132   6.973  0.0265  0.1188 -0.0501
  192SLPC   H3X22273   3.127   5.169   6.909 -0.8391 -0.6053 -1.6267
  192SLPC   H3Y22274   3.023   5.032   6.929  0.8612  1.4455 -3.8473
  192SLPC   C3422275   3.107   5.119   7.119  0.1777  0.2140  0.8556
  192SLPC   H4X22276   3.012   5.094   7.170 -0.9694 -3.0810 -2.4550
  192SLPC   H4Y22277   3.136   5.221   7.153  1.5738 -0.0560  0.5190
  192SLPC   C3522278   3.203   5.001   7.134 -0.1711  0.9233 -0.1099
  192SLPC   H5X22279   3.307   5.019   7.100 -0.6960  0.4990 -2.1033
  192SLPC   H5Y22280   3.178   4.922   7.059  1.3885  0.2217  0.0716
  192SLPC   C3622281   3.199   4.951   7.277  0.5657  0.5706 -0.7554
  192SLPC   H6X22282   3.253   4.855   7.291 -0.5770  0.3099  2.8707
  192SLPC   H6Y22283   3.100   4.945   7.327  0.2348 -1.1989 -1.5317
  192SLPC   C3722284   3.279   5.049   7.371 -0.5845 -0.2524 -0.7308
  192SLPC   H7X22285   3.242   5.153   7.360 -0.3583  0.0018  0.6966
  192SLPC   H7Y22286   3.385   5.047   7.340 -0.2495 -0.7661  0.3924
  192SLPC   C3822287   3.270   5.012   7.520 -0.3473 -1.2303 -0.0594
  192SLPC   H8X22288   3.323   4.917   7.542 -1.6649 -1.7179  1.1363
  192SLPC   H8Y22289   3.163   5.008   7.549  0.0679  2.4132  2.6399
  192SLPC   C3922290   3.341   5.126   7.605  0.1853 -0.0353 -0.7205
  192SLPC   H9X22291   3.277   5.217   7.600 -0.5816 -0.3856  1.6705
  192SLPC   H9Y22292   3.437   5.139   7.550 -0.0591  1.1018 -0.8970
  192SLPC  C31022293   3.362   5.079   7.751 -0.3086 -0.6304  0.0640
  192SLPC  H10X22294   3.390   5.164   7.817  1.5231  0.3699 -1.8825
  192SLPC  H10Y22295   3.450   5.012   7.744  0.6040  0.6365 -1.2985
  192SLPC  C31122296   3.247   5.011   7.822  0.1670  0.3986  0.3709
  192SLPC  H11X22297   3.226   4.909   7.783 -1.8114  1.1063 -0.5190
  192SLPC  H11Y22298   3.157   5.070   7.795 -0.4594 -0.7690 -0.1416
  192SLPC  C31222299   3.264   5.006   7.975  0.3651 -0.5379 -0.0800
  192SLPC  H12X22300   3.171   4.967   8.021 -0.2789  0.8630 -0.1386
  192SLPC  H12Y22301   3.279   5.112   8.006 -2.1786 -0.0699 -0.2334
  192SLPC  C31322302   3.370   4.910   8.041 -0.0132 -0.3691  0.1247
  192SLPC  H13X22303   3.473   4.928   8.005 -0.2673 -0.9732 -0.9718
  192SLPC  H13Y22304   3.345   4.810   7.998  0.9748 -1.0630  1.1162
  192SLPC  C31422305   3.369   4.899   8.196  0.3598  0.7350 -0.2893
  192SLPC  H14X22306   3.268   4.860   8.221  0.4063 -0.5716 -2.0216
  192SLPC  H14Y22307   3.377   4.994   8.253  1.2406 -1.5198  3.7976
  192SLPC  C31522308   3.469   4.800   8.267  0.5369 -0.6108 -0.3724
  192SLPC  H15X22309   3.574   4.828   8.244  0.5926  0.2348  0.8184
  192SLPC  H15Y22310   3.448   4.698   8.228 -1.2618 -0.4510  0.0743
  192SLPC  C31622311   3.456   4.792   8.422 -0.4743 -0.7540 -0.2423
  192SLPC  H16X22312   3.366   4.729   8.441 -0.5314 -0.4740  0.4153
  192SLPC  H16Y22313   3.438   4.889   8.472 -0.7698 -1.0414  0.2205
  192SLPC  C31722314   3.571   4.729   8.491  0.0156  0.1870 -0.4894
  192SLPC  H17X22315   3.645   4.810   8.504 -1.3803  1.2157  1.8109
  192SLPC  H17Y22316   3.609   4.645   8.428  2.6305  0.8394  0.1337
  192SLPC  C31822317   3.542   4.681   8.632  0.1004  0.1264  0.7735
  192SLPC  H18X22318   3.479   4.590   8.635  2.0780 -1.2985  0.9262
  192SLPC  H18Y22319   3.498   4.762   8.695 -2.3763 -0.1363 -0.4890
  192SLPC  H18Z22320   3.636   4.649   8.680 -0.6238 -1.8538  0.9540
  193SOD    SOD22321   0.799   4.371  17.007  0.2600 -0.0250 -0.5478
  194SOD    SOD22322   5.996   5.110  10.715 -0.4006  0.3236 -0.0867
  195SOD    SOD22323   0.552   3.082  12.715 -0.0550  0.4241 -0.4155
  196SOD    SOD22324   2.136   2.495   2.812  0.6112 -0.0410 -0.3336
  197SOD    SOD22325   4.463   0.676  14.899 -0.3232  0.2472 -0.3446
  198SOD    SOD22326   0.482   2.318  15.316 -0.7814  0.1981 -0.7317
  199SOD    SOD22327   3.972   5.548  14.867  0.0702 -0.4416  0.1431
  200SOD    SOD22328   3.248   3.110   3.254 -0.2131 -0.0945 -0.0974
  201SOD    SOD22329   0.471   3.270   4.988  0.5825 -0.4134  0.0550
  202SOD    SOD22330   0.139   2.282  13.034  0.1485 -0.2060  0.5153
  203SOD    SOD22331   2.058   5.210   2.462  0.0499  0.0900 -0.1817
  204SOD    SOD22332   5.199   3.225   5.222 -0.5436  0.3866  0.0906
  205SOD    SOD22333   0.008   0.958   1.215 -0.5388 -0.2883 -0.1366
  206SOD    SOD22334   1.596   0.069   1.776  0.6739 -0.0587  0.1787
  207SOD    SOD22335   3.085   5.996   6.144  0.3024  0.2007  0.3750
  208SOD    SOD22336   2.060   2.212   2.048 -0.5197  0.7229  0.3216
  209SOD    SOD22337   3.122   1.525   3.743  0.0851  0.2132  0.0986
  210SOD    SOD22338   1.981   1.101  13.599 -0.4173 -0.5603 -0.6310
  211SOD    SOD22339   6.756   1.306  16.813 -0.3390  0.8061  0.0647
  212SOD    SOD22340   4.255   5.064   4.770  0.2537  0.0969 -0.1216
  213SOD    SOD22341   5.147   6.196  11.861  0.1661 -0.3448 -0.2623
  214SOD    SOD22342   1.200   2.859  14.880  0.1710 -0.0792 -0.3615
  215SOD    SOD22343   5.862   0.312   0.811 -0.3202  0.3680  0.5443
  216SOD    SOD22344   2.658   2.189   6.160  0.0779  0.1227 -0.6742
  217SOD    SOD22345   5.233   2.840  11.490 -0.7178  0.1053  0.1015
  218SOD    SOD22346   5.572   0.460   6.252 -0.5657 -0.4450 -0.0906
  219SOD    SOD22347   6.178   1.297   2.082 -0.4295  0.3227  0.1127
  220SOD    SOD22348   1.592   0.397   2.830 -0.2862 -0.0110 -0.2390
  221SOD    SOD22349   5.941   6.391  14.041 -0.4332 -0.1290 -0.0743
  222SOD    SOD22350   1.759   5.399  11.260  0.1088  0.4132  0.0843
  223SOD    SOD22351   0.189   1.040  15.364 -0.0660 -0.6505  0.0951
  224SOD    SOD22352   0.431   1.396   5.935  0.3156 -0.4155 -0.4090
  225SOD    SOD22353   1.982   6.054   4.170 -0.2239 -0.2745  0.0509
  226SOD    SOD22354   4.568   2.613  16.664  0.4418  0.0070  0.1818
  227SOD    SOD22355   6.037   0.357  13.314 -0.1424  0.0640 -0.0155
  228SOD    SOD22356   3.492   2.239  16.521 -0.5684 -0.0265 -0.3076
  229SOD    SOD22357   5.133   0.647  12.147  0.3074  0.0604  0.1921
  230SOD    SOD22358   5.446   2.204   4.960  0.0755  0.3588  0.2066
  231SOD    SOD22359   0.211   2.575  14.778 -0.1024 -0.0848 -0.0873
  232SOD    SOD22360   4.544   3.022   1.559  0.1669  0.1801 -0.7405
  233SOD    SOD22361   3.393   1.657   4.240 -0.2468 -0.4285 -0.0722
  234SOD    SOD22362   1.669   1.295   4.029  0.0979  0.4870  0.2780
  235SOD    SOD22363   4.523   4.591  12.547 -0.4287 -0.0182  0.0804
  236SOD    SOD22364   4.249   5.082   6.111 -0.4342 -0.0863  0.6551
  237SOD    SOD22365   0.112   0.649   1.899  0.2269 -0.1732 -0.0595
  238SOD    SOD22366   6.203   4.650   3.949  0.3627 -0.0767 -0.7262
  239SOD    SOD22367   1.184   5.588  15.548  0.1344  0.8057  0.2564
  240SOD    SOD22368   6.297   2.291   4.759 -0.0421 -0.0205  0.2984
  241SOD    SOD22369   4.726   6.785   3.374  0.1833 -0.3694  0.1473
  242SOD    SOD22370   4.640   6.763   2.135  0.2779  0.1618 -0.0690
  243SOD    SOD22371   3.760   3.351  15.359 -0.0469 -0.0125 -0.0756
  244SOD    SOD22372   4.947   3.678   3.216  0.1623  0.3447 -0.4011
  245SOD    SOD22373   1.124   4.334  12.992 -0.4194  0.0672  0.2643
  246SOD    SOD22374   2.784   4.108   3.458  0.6102 -0.3349  0.0953
  247SOD    SOD22375   1.960   6.701   2.778 -0.4696 -0.4083  0.0856
  248SOD    SOD22376   6.443   0.276   2.332 -0.1945 -0.0630 -0.4520
  249SOD    SOD22377   3.886   5.501  11.624 -0.0922  0.9406 -0.2691
  250SOD    SOD22378   2.224   4.112   5.232 -0.0209 -0.2996  0.1318
  251SOD    SOD22379   3.894   5.650   1.465 -0.1469 -0.0734  0.1065
  252SOD    SOD22380   0.374   2.944  10.979  0.0062  0.2179  0.0688
  253SOD    SOD22381   3.345   4.907   6.639 -0.8832 -0.4487  0.0314
  254SOD    SOD22382   2.293   4.050  17.057 -0.2682  0.2661 -0.1343
  255SOD    SOD22383   2.669   0.951  11.830  0.3877 -0.0559  0.1974
  256SOD    SOD22384   5.064   3.448  13.315 -0.0231 -0.2572  0.1503
  257SOD    SOD22385   0.901   4.881   6.026 -0.0087 -0.3551 -0.1231
  258SOD    SOD22386   4.004   1.014  11.534  0.1816  0.1580 -0.1983
  259SOD    SOD22387   5.897   2.809  11.038 -0.2962 -0.1074  0.1653
  260SOD    SOD22388   0.310   4.413  13.608  0.2136 -0.6444 -0.1965
  261SOD    SOD22389   0.810   5.382  11.134  0.2866 -0.3203  0.2168
  262SOD    SOD22390   3.908   1.658  11.039 -0.1247 -0.0367 -0.6373
  263SOD    SOD22391   5.799   3.945   0.811  0.6035  0.3595  0.0679
  264SOD    SOD22392   5.540   3.881   6.297  0.1064 -0.3352 -0.2952
  265SOD    SOD22393   5.746   1.485  10.461  0.5907 -0.0616 -0.3655
  266CLA    CLA22394   3.055   2.727   1.886 -0.1926 -0.4805 -0.4867
  267CLA    CLA22395   6.037   2.384   2.764 -0.1622 -0.0195 -0.2870
  268CLA    CLA22396   5.356   2.002  14.152 -0.0936  0.5239  0.3911
  269CLA    CLA22397   6.729   6.083   4.158 -0.5620  0.1747 -0.1393
  270CLA    CLA22398   1.243   5.073   4.747 -0.1355  0.3668  0.1538
  271CLA    CLA22399   3.482   0.174   1.286 -0.0773  0.0641 -0.1365
  272CLA    CLA22400   0.122   2.297   3.132  0.4404 -0.0945 -0.3428
  273CLA    CLA22401   5.422   0.118  13.011 -0.1426  0.0399 -0.1430
  274CLA    CLA22402   5.278   2.337   4.753  0.3426 -0.6144  0.0605
  275CLA    CLA22403   4.810   6.131  14.570 -0.0119 -0.0601  0.1294
  276CLA    CLA22404   4.582   4.843  12.474 -0.0177 -0.2173  0.0271
  277CLA    CLA22405   6.145   4.924   5.058  0.0885  0.1570 -0.0076
  278CLA    CLA22406   1.508   0.830  13.764 -0.3029 -0.3135  0.1183
  279CLA    CLA22407   1.480   5.154   3.205  0.6000 -0.0033 -0.0465
  280CLA    CLA22408   6.523   4.939   0.466  0.2147 -0.2768 -0.2970
  281CLA    CLA22409   2.647   5.978  11.390 -0.4486 -0.0699  0.0942
  282CLA    CLA22410   1.660   1.260   0.706 -0.4673  0.2281  0.1057
  283CLA    CLA22411   6.388   1.202   1.579 -0.3403 -0.0129 -0.0198
  284CLA    CLA22412   1.214   5.933  15.834 -0.1186 -0.1253  0.2451
  285CLA    CLA22413   3.806   2.092   5.367 -0.0620  0.0285 -0.1655
  286CLA    CLA22414   3.684   6.068  14.535  0.0629  0.1958 -0.1417
  287CLA    CLA22415   0.935   4.196   0.253 -0.0923  0.3443 -0.0629
  288CLA    CLA22416   1.876   1.994   3.456 -0.0057  0.1135  0.4624
  289CLA    CLA22417   4.331   6.548  16.148 -0.4442  0.0581  0.6858
  290CLA    CLA22418   2.836   0.470   2.604 -0.0412  0.1115 -0.1900
  291CLA    CLA22419   0.669   0.049   0.618  0.5388 -0.0086  0.1373
  292CLA    CLA22420   6.827   4.770  13.430  0.2796  0.2996 -0.1689
  293CLA    CLA22421   1.522   1.034  15.531 -0.0216 -0.2700 -0.4918
  294CLA    CLA22422   1.921   5.702   2.630 -0.3143  0.3923  0.1420
  295CLA    CLA22423   0.458   2.436   2.797  0.2207 -0.0458  0.3196
  296CLA    CLA22424   2.303   1.473  13.682 -0.3802 -0.0855  0.2361
  297CLA    CLA22425   2.227   5.238  12.130 -0.0762 -0.2017  0.3177
  298CLA    CLA22426   2.261   3.370  15.566 -0.5059  0.0122 -0.3887
  299CLA    CLA22427   1.459   2.483  14.320 -0.3066  0.4140  0.1695
  300CLA    CLA22428   3.946   5.999   4.078  0.0058  0.0308  0.0036
  301CLA    CLA22429   3.022   6.180   3.099 -0.0446 -0.5319 -0.1054
  302CLA    CLA22430   6.443   1.945   3.390 -0.2982  0.1986 -0.4278
  303CLA    CLA22431   4.622   5.562  12.651 -0.3249  0.5693  0.4393
  304CLA    CLA22432   3.827   5.052   4.534 -0.2645 -0.5880 -0.0536
  305CLA    CLA22433   5.860   5.435   3.673 -0.2881 -0.1729  0.0412
  306CLA    CLA22434   5.470   2.670  12.369  0.2523  0.0606 -0.0298
  307CLA    CLA22435   6.811   6.095  14.730 -0.0774 -0.0096 -0.0823
  308CLA    CLA22436   6.554   0.712   2.186 -0.0518  0.4165 -0.1008
  309CLA    CLA22437   5.484   1.742   4.892 -0.1996  0.1740  0.0774
  310CLA    CLA22438   6.209   4.477  14.894  0.1842  0.1955  0.1820
  311CLA    CLA22439   0.078   4.290   1.609  0.3404 -0.2245  0.1670
  312CLA    CLA22440   5.897   4.110   3.991  0.0033 -0.0200  0.1547
  313CLA    CLA22441   0.524   2.096  14.762 -0.0655 -0.1819  0.2929
  314CLA    CLA22442   2.630   3.471   0.027  0.5391 -0.0645 -0.0796
  315CLA    CLA22443   5.735   5.739  13.889 -0.5456  0.1233 -0.1316
  316CLA    CLA22444   4.918   6.315   0.778 -0.1985  0.1792 -0.2005
  317CLA    CLA22445   1.407   3.905  15.098 -0.1230  0.2011 -0.1849
  318CLA    CLA22446   3.246   3.548   3.410 -0.0757  0.5505  0.5402
  319TIP3   OH222447   2.255   3.019  12.428  0.4786  0.0773  0.0408
  319TIP3    H122448   2.170   3.013  12.471  1.1875 -0.2349  1.4483
  319TIP3    H222449   2.269   3.113  12.415  0.2282  0.1713  0.4384
  320TIP3   OH222450   3.073   0.576   2.439  0.6891  0.3225 -0.7319
  320TIP3    H122451   3.002   0.548   2.497 -0.1348  1.7160 -1.0105
  320TIP3    H222452   3.087   0.501   2.381  0.0822 -0.3198 -0.0780
  321TIP3   OH222453   1.744   4.141   0.272 -0.1082 -0.6388 -0.0317
  321TIP3    H122454   1.790   4.065   0.306  0.0470 -0.8530 -0.6956
  321TIP3    H222455   1.812   4.193   0.229 -0.0236  0.4096  1.2928
  322TIP3   OH222456   3.501   1.997   0.610  0.1731  0.0663  0.0994
  322TIP3    H122457   3.531   1.906   0.609  0.5486  0.1936 -1.0804
  322TIP3    H222458   3.577   2.048   0.584 -0.0828  0.7227  0.5927
  323TIP3   OH222459   2.363   5.622  11.262  0.6595 -0.5782  0.0619
  323TIP3    H122460   2.348   5.564  11.187  0.1644  1.8808 -1.8712
  323TIP3    H222461   2.458   5.635  11.263  0.4329  3.6543 -3.8443
  324TIP3   OH222462   2.855   2.219  14.926 -0.3120 -0.3137  0.4422
  324TIP3    H122463   2.796   2.146  14.945 -0.4854 -0.0066  1.1015
  324TIP3    H222464   2.920   2.217  14.997  0.1141 -0.2712  0.0620
  325TIP3   OH222465   4.576   1.180  14.965 -0.0134 -0.5693 -0.1350
  325TIP3    H122466   4.622   1.228  14.895  0.8153 -1.0324  0.0725
  325TIP3    H222467   4.645   1.130  15.009 -0.3411  0.5028  1.6905
  326TIP3   OH222468   6.505   5.117  14.746 -0.1532 -0.0932 -0.1023
  326TIP3    H122469   6.511   5.147  14.837 -0.6319  0.4291 -0.2362
  326TIP3    H222470   6.593   5.129  14.711  1.0306 -3.5281  1.2385
  327TIP3   OH222471   4.014   6.537  14.014 -0.7027 -0.6070 -0.0238
  327TIP3    H122472   4.024   6.448  13.979 -0.8306  0.3388 -2.7558
  327TIP3    H222473   3.968   6.525  14.097  0.2700 -3.1468  0.2466
  328TIP3   OH222474   5.546   1.695   0.454  0.3304 -0.4565  0.2784
  328TIP3    H122475   5.506   1.690   0.367  1.6591  0.8526 -0.4580
  328TIP3    H222476   5.472   1.692   0.514 -0.6240 -1.4086 -0.8737
  329TIP3   OH222477   4.775   5.896   5.017 -0.3110 -0.3137 -0.1346
  329TIP3    H122478   4.813   5.943   5.092  0.5531 -0.4796 -0.4663
  329TIP3    H222479   4.797   5.950   4.941  0.1599 -0.9351 -0.4483
  330TIP3   OH222480   5.970   5.557   4.447  0.0183 -0.2413  0.5194
  330TIP3    H122481   5.978   5.622   4.377 -1.5843  0.2527  0.7645
  330TIP3    H222482   5.968   5.609   4.527 -1.7528 -0.5274  0.6876
  331TIP3   OH222483   4.156   3.135  15.282  0.3257  0.0744 -0.5150
  331TIP3    H122484   4.196   3.048  15.285 -0.0689 -0.1022 -0.3158
  331TIP3    H222485   4.117   3.141  15.195 -2.0915 -1.0676  0.3934
  332TIP3   OH222486   1.732   2.534  14.114  0.1110  0.1243 -0.4662
  332TIP3    H122487   1.653   2.571  14.152 -0.8689 -2.0873 -0.1875
  332TIP3    H222488   1.738   2.572  14.027 -1.8241 -0.3677 -0.8531
  333TIP3   OH222489   1.329   6.045  14.353  0.5507  0.3451 -0.3061
  333TIP3    H122490   1.322   6.094  14.272  1.2067  2.3929  0.7955
  333TIP3    H222491   1.400   6.088  14.402 -0.3576 -0.2802  1.6878
  334TIP3   OH222492   4.223   4.042  14.055  0.0302  0.7538  0.1546
  334TIP3    H122493   4.154   4.045  13.989 -1.3637 -2.1730  1.3014
  334TIP3    H222494   4.194   4.102  14.124 -0.8378  0.3536  0.1445
  335TIP3   OH222495   4.742   5.189   3.944  0.4175 -0.1294 -0.0443
  335TIP3    H122496   4.709   5.163   3.859 -0.4966 -0.4680  0.3979
  335TIP3    H222497   4.669   5.236   3.985  0.8132 -0.0364  0.5793
  336TIP3   OH222498   1.450   3.863   5.244 -0.3567 -0.0030 -0.1645
  336TIP3    H122499   1.429   3.955   5.225 -0.3666  0.0636  0.1624
  336TIP3    H222500   1.441   3.819   5.160 -1.5894  0.0701 -0.0912
  337TIP3   OH222501   6.470   4.689   3.194 -0.0163  0.4247 -0.2610
  337TIP3    H122502   6.556   4.733   3.197  0.4429 -0.3370 -1.5371
  337TIP3    H222503   6.457   4.656   3.283  0.5453  1.4103  0.2101
  338TIP3   OH222504   3.634   1.995   3.735 -0.9056  0.3618  0.1355
  338TIP3    H122505   3.653   1.905   3.710 -0.7373  0.2361  0.6991
  338TIP3    H222506   3.615   1.990   3.829 -0.9289  0.9098  0.1629
  339TIP3   OH222507   1.042   1.829  14.036  0.0791  0.4447  0.5097
  339TIP3    H122508   1.031   1.799  13.946  2.4187  1.3086 -0.1331
  339TIP3    H222509   0.976   1.781  14.086 -3.9954  2.6786 -2.1601
  340TIP3   OH222510   2.474   2.402  16.216 -0.0400  0.5473 -0.0566
  340TIP3    H122511   2.529   2.339  16.263  0.5492  1.0427 -0.0628
  340TIP3    H222512   2.529   2.431  16.143 -0.3609  0.9634 -0.1341
  341TIP3   OH222513   1.449   3.370  13.887  0.7703 -0.0298 -0.2597
  341TIP3    H122514   1.357   3.387  13.908  0.0643 -1.8016 -1.6493
  341TIP3    H222515   1.465   3.281  13.919  1.9608  0.1912 -0.1973
  342TIP3   OH222516   0.661   4.879   5.219  0.4929  0.2681  0.1581
  342TIP3    H122517   0.746   4.921   5.206  0.0391  0.8280 -1.1659
  342TIP3    H222518   0.599   4.952   5.228 -0.0220 -0.1303 -0.1160
  343TIP3   OH222519   4.227   2.556   4.330 -0.7797 -0.2383 -0.1639
  343TIP3    H122520   4.238   2.508   4.411  1.7982  1.5543  0.6772
  343TIP3    H222521   4.242   2.648   4.354 -1.1613  0.4967 -2.4523
  344TIP3   OH222522   6.443   5.084   5.181  1.0022  0.4927  0.6128
  344TIP3    H122523   6.371   5.036   5.139  2.2652 -0.4195 -0.5816
  344TIP3    H222524   6.429   5.175   5.154  0.9634  0.1407 -0.6289
  345TIP3   OH222525   1.109   5.997  16.550  0.4940 -0.2564  0.0080
  345TIP3    H122526   1.143   5.957  16.469 -0.0929 -0.8293  0.0278
  345TIP3    H222527   1.024   6.034  16.524  0.9744  0.8902  0.0229
  346TIP3   OH222528   0.955   1.644  13.819 -0.6266  0.4764 -0.4388
  346TIP3    H122529   0.870   1.639  13.776 -1.0258  1.4971  0.2031
  346TIP3    H222530   1.003   1.568  13.785 -1.7497 -0.0627 -0.8794
  347TIP3   OH222531   1.658   6.334  14.078 -0.4299  0.3068 -0.1177
  347TIP3    H122532   1.614   6.378  14.005  1.7316 -0.1036 -1.7640
  347TIP3    H222533   1.731   6.393  14.101 -0.7297  0.1485  1.3567
  348TIP3   OH222534   4.644   5.171   1.110 -0.1224 -0.3849  0.4518
  348TIP3    H122535   4.554   5.195   1.086 -0.8403 -2.0636  1.2981
  348TIP3    H222536   4.679   5.250   1.152 -1.0574  0.4275 -0.2317
  349TIP3   OH222537   1.823   2.827  14.846  0.3662 -0.3515 -0.3608
  349TIP3    H122538   1.877   2.905  14.862  0.3895 -0.3909 -0.2490
  349TIP3    H222539   1.886   2.759  14.823  0.2049  0.2392 -2.7839
  350TIP3   OH222540   6.432   2.131   1.977 -0.3478 -0.1169  0.0950
  350TIP3    H122541   6.440   2.044   1.939  1.1036  0.5771 -1.3197
  350TIP3    H222542   6.517   2.172   1.959 -0.2007  0.8548  2.6509
  351TIP3   OH222543   4.670   0.925   2.481  0.3572  0.4306  0.1646
  351TIP3    H122544   4.645   1.001   2.428  1.5955  0.1998 -0.7982
  351TIP3    H222545   4.700   0.860   2.417 -0.1721 -0.6707  1.0156
  352TIP3   OH222546   2.999   4.470  12.887  0.6473  0.3476  0.1304
  352TIP3    H122547   3.011   4.541  12.824 -0.0886  2.0877  1.8677
  352TIP3    H222548   2.905   4.471  12.907  0.8318 -0.2991  1.0917
  353TIP3   OH222549   5.985   1.823  12.303  0.1379  0.2056 -0.0374
  353TIP3    H122550   6.062   1.767  12.296 -0.1009  0.0013 -1.0939
  353TIP3    H222551   5.926   1.776  12.362  0.1905 -0.3537 -0.4346
  354TIP3   OH222552   2.976   5.827  14.830  0.4124 -0.5734  0.2163
  354TIP3    H122553   2.941   5.835  14.741  0.3531  3.6556  0.4484
  354TIP3    H222554   2.898   5.812  14.884 -0.4685  2.6478  0.0484
  355TIP3   OH222555   5.716   2.131  13.182 -0.0870  0.0516 -0.5968
  355TIP3    H122556   5.705   2.037  13.171  0.1998 -0.1651  0.8210
  355TIP3    H222557   5.636   2.170  13.146 -0.8175 -0.8175  0.0689
  356TIP3   OH222558   1.402   4.754  12.728  0.1615 -0.5423 -0.4339
  356TIP3    H122559   1.372   4.696  12.658  0.9336 -2.2663  0.5703
  356TIP3    H222560   1.468   4.809  12.687  0.3598 -1.2960 -1.1537
  357TIP3   OH222561   3.393   4.473   3.253 -0.5836  0.4152 -0.6215
  357TIP3    H122562   3.302   4.502   3.249 -0.9352 -0.0737  2.0792
  357TIP3    H222563   3.443   4.551   3.276 -0.7424  0.1250  0.7806
  358TIP3   OH222564   1.624   2.661   0.321 -0.0660  0.2958  0.8521
  358TIP3    H122565   1.581   2.586   0.278  0.5279  0.2061  0.4093
  358TIP3    H222566   1.670   2.706   0.250 -1.2953  1.7234  0.9066
  359TIP3   OH222567   6.076   5.267  11.463  1.0759 -0.5369 -0.4617
  359TIP3    H122568   6.154   5.320  11.477  0.2059  1.0816 -1.4498
  359TIP3    H222569   6.047   5.243  11.551  2.7044 -1.2480 -0.0834
  360TIP3   OH222570   2.716   1.488  16.088  0.1341  0.0733 -0.4534
  360TIP3    H122571   2.629   1.450  16.074  0.0239 -0.0763  0.5563
  360TIP3    H222572   2.732   1.477  16.181  0.4361  1.8037 -0.2613
  361TIP3   OH222573   0.221   0.610  16.922  0.9734 -0.1627 -0.1923
  361TIP3    H122574   0.190   0.612  16.831  4.1088  2.2921 -1.3970
  361TIP3    H222575   0.312   0.581  16.916  1.1601 -0.2818  2.2187
  362TIP3   OH222576   4.158   5.294  12.994  1.1803  0.4501  0.1871
  362TIP3    H122577   4.087   5.331  13.046  0.2469 -1.8234  0.6206
  362TIP3    H222578   4.185   5.366  12.936  0.7754  2.3742  2.2287
  363TIP3   OH222579   1.703   1.007   9.966 -0.5644 -0.5910  0.2382
  363TIP3    H122580   1.792   1.034   9.985 -0.9368  0.8169  0.0873
  363TIP3    H222581   1.651   1.087   9.972 -1.5230 -1.0289 -1.5162
  364TIP3   OH222582   2.773   3.122   2.824  0.0710  0.4492  0.0943
  364TIP3    H122583   2.821   3.139   2.906 -0.1904  1.8148 -0.0118
  364TIP3    H222584   2.817   3.045   2.786  1.4545  0.9757  0.5601
  365TIP3   OH222585   0.243   2.722   3.077  0.2783  0.3981 -0.3015
  365TIP3    H122586   0.322   2.685   3.117 -0.1373 -2.4991 -1.8753
  365TIP3    H222587   0.172   2.695   3.134  0.1257  0.1016 -0.6253
  366TIP3   OH222588   0.963   2.234  12.261  0.5290 -0.0474 -0.1338
  366TIP3    H122589   1.042   2.227  12.314  0.4982 -2.3571 -0.2826
  366TIP3    H222590   0.995   2.240  12.171  0.5293  0.1655 -0.1215
  367TIP3   OH222591   6.037   2.476   2.455 -0.7283 -0.6997  0.1740
  367TIP3    H122592   6.093   2.400   2.438  0.4856  0.0174  0.8703
  367TIP3    H222593   6.034   2.484   2.550  2.3246  2.3229  0.1990
  368TIP3   OH222594   1.074   1.798  14.388 -0.4779  0.4004 -0.6088
  368TIP3    H122595   1.145   1.845  14.345  0.2521 -0.2442 -0.1301
  368TIP3    H222596   1.112   1.715  14.415 -1.8043 -0.6049 -1.6513
  369TIP3   OH222597   3.958   5.010  14.850  0.4444 -0.0739 -0.7746
  369TIP3    H122598   3.920   5.065  14.919  2.9246  2.2618 -1.1160
  369TIP3    H222599   3.890   5.007  14.783 -0.1129  1.9130 -0.3732
  370TIP3   OH222600   0.105   0.127  17.046  0.3162  0.1939 -0.0670
  370TIP3    H122601   0.093   0.060  17.113 -1.1043 -1.0973 -1.5112
  370TIP3    H222602   0.148   0.080  16.973 -0.4902  0.8805 -1.0117
  371TIP3   OH222603   6.528   1.868  12.281 -0.5453  0.1733 -0.1284
  371TIP3    H122604   6.492   1.816  12.353 -0.4526  0.5828  0.2149
  371TIP3    H222605   6.466   1.855  12.209 -0.4071 -0.5917 -0.1175
  372TIP3   OH222606   4.618   0.310  15.390 -0.1065  0.1468  0.5618
  372TIP3    H122607   4.592   0.402  15.388  0.6844  0.3799  0.5349
  372TIP3    H222608   4.714   0.312  15.381 -0.2874 -0.8211 -2.6227
  373TIP3   OH222609   5.748   1.347  11.853  0.0497  0.0042 -0.2492
  373TIP3    H122610   5.834   1.389  11.844 -0.7360  1.4302 -1.7955
  373TIP3    H222611   5.686   1.416  11.829 -1.5735 -0.8951  1.1258
  374TIP3   OH222612   1.011   0.538   6.313 -0.0861  0.0074 -0.0582
  374TIP3    H122613   1.049   0.481   6.380 -1.1956  0.0559  0.6534
  374TIP3    H222614   1.067   0.615   6.313 -0.0233 -0.0220  0.7780
  375TIP3   OH222615   2.657   3.335  16.864  0.8402  0.0396  0.1140
  375TIP3    H122616   2.572   3.379  16.861  0.7187 -0.1705  0.4196
  375TIP3    H222617   2.716   3.398  16.904  1.5654  1.3723 -2.7980
  376TIP3   OH222618   2.866   1.527   3.374  0.2990  0.0421  0.5343
  376TIP3    H122619   2.850   1.528   3.469 -1.8240 -1.4321  0.2665
  376TIP3    H222620   2.814   1.600   3.341 -1.1223 -1.0378  0.2856
  377TIP3   OH222621   2.735   3.135  12.925  0.0325  0.2450 -0.4640
  377TIP3    H122622   2.685   3.077  12.867 -0.1390  0.6289 -0.7091
  377TIP3    H222623   2.826   3.120  12.901  0.3733 -2.7532  2.0778
  378TIP3   OH222624   1.519   5.532   4.111 -0.3547 -0.2316  0.0084
  378TIP3    H122625   1.545   5.618   4.144 -2.9227  0.2715  0.9680
  378TIP3    H222626   1.441   5.549   4.058  0.1361 -1.7906 -1.3060
  379TIP3   OH222627   3.100   3.101   2.572  0.0530 -0.2998  0.8595
  379TIP3    H122628   3.030   3.082   2.509 -0.5911  1.5241  0.9745
  379TIP3    H222629   3.159   3.161   2.525  0.5760 -0.4052  1.3665
  380TIP3   OH222630   5.253   1.977   3.062  0.0787  0.3185  0.2786
  380TIP3    H122631   5.319   2.000   2.997 -0.1360 -0.0233 -0.0673
  380TIP3    H222632   5.286   2.014   3.144  0.6071  0.3103  0.0750
  381TIP3   OH222633   2.600   3.973   3.492 -0.1194  0.1588  0.2166
  381TIP3    H122634   2.514   3.957   3.530  0.2469 -0.3768  0.8425
  381TIP3    H222635   2.588   3.958   3.399 -0.4824 -0.8666  0.4184
  382TIP3   OH222636   1.780   4.627   0.099  0.1980  0.2547 -0.0456
  382TIP3    H122637   1.834   4.548   0.097 -1.2399 -0.7885  0.4416
  382TIP3    H222638   1.697   4.598   0.137 -0.6760  1.8170 -0.6697
  383TIP3   OH222639   5.059   1.736  12.298 -0.8664  0.1022  0.4464
  383TIP3    H122640   4.978   1.761  12.343 -1.0736 -1.9147  1.2868
  383TIP3    H222641   5.075   1.646  12.326  2.3071  0.7752  1.2338
  384TIP3   OH222642   4.889   3.121  15.460 -0.5139  0.5488  0.6249
  384TIP3    H122643   4.960   3.183  15.476  0.0086  0.1699 -0.1450
  384TIP3    H222644   4.919   3.040  15.499 -0.7068  0.4945  0.6600
  385TIP3   OH222645   5.624   0.287   6.455  0.4883 -0.0089  0.2518
  385TIP3    H122646   5.532   0.265   6.438  0.5686  1.1180 -2.1007
  385TIP3    H222647   5.669   0.203   6.453  0.0714 -0.3049 -3.2657
  386TIP3   OH222648   0.304   2.964   2.021  0.1188  0.2730 -0.0541
  386TIP3    H122649   0.345   2.897   1.967  1.9088  1.5002 -0.3233
  386TIP3    H222650   0.322   2.937   2.111  0.8413  0.3587 -0.1615
  387TIP3   OH222651   5.507   0.856   0.597 -0.7467 -0.1555 -0.4976
  387TIP3    H122652   5.578   0.902   0.642 -1.7395  0.8895  0.0563
  387TIP3    H222653   5.439   0.847   0.663 -0.0020 -4.0369 -0.0240
  388TIP3   OH222654   3.762   1.804  12.184  0.7875  0.3120  0.4727
  388TIP3    H122655   3.704   1.811  12.109  0.5692 -1.8679  0.3766
  388TIP3    H222656   3.850   1.809  12.147  0.6815  0.9022  0.2909
  389TIP3   OH222657   5.656   1.980   1.512  0.5858  0.5065  0.5226
  389TIP3    H122658   5.596   2.000   1.440  1.6162 -0.1599 -0.5579
  389TIP3    H222659   5.708   2.060   1.524  1.6698  0.0265 -0.7611
  390TIP3   OH222660   0.912   3.994   0.802  0.5817 -0.2536  0.8475
  390TIP3    H122661   1.006   3.986   0.787  0.9597  2.8426  0.9108
  390TIP3    H222662   0.875   4.015   0.716  0.1084 -0.2523  1.0467
  391TIP3   OH222663   3.946   4.373   3.618  0.0280  0.0874 -0.3745
  391TIP3    H122664   3.861   4.330   3.622  0.5442 -0.9440 -0.1569
  391TIP3    H222665   3.976   4.360   3.528  0.7361 -1.1268  0.0191
  392TIP3   OH222666   2.934   0.617   0.197 -0.3057  0.0902  0.1681
  392TIP3    H122667   2.927   0.547   0.262  0.9643 -1.1442 -0.9682
  392TIP3    H222668   2.979   0.688   0.243 -1.2341  0.0297  1.2144
  393TIP3   OH222669   6.084   0.597   6.094 -0.0014  0.2579 -0.4210
  393TIP3    H122670   6.032   0.677   6.102 -1.1591 -0.5095 -0.0551
  393TIP3    H222671   6.108   0.574   6.184  0.0762  0.0339 -0.4968
  394TIP3   OH222672   0.167   3.288  15.098 -0.4005 -0.2541 -0.7335
  394TIP3    H122673   0.218   3.365  15.069  0.9890 -0.3871  1.1648
  394TIP3    H222674   0.104   3.323  15.160 -0.1280 -0.5482 -0.2807
  395TIP3   OH222675   0.209   1.385  10.940  0.5701 -0.0196  0.2121
  395TIP3    H122676   0.139   1.409  11.001  1.4817  1.1060  0.8537
  395TIP3    H222677   0.225   1.292  10.956  0.1223  0.0351  0.9967
  396TIP3   OH222678   2.098   0.975  10.336  0.5634  0.0981 -0.3798
  396TIP3    H122679   2.174   0.923  10.364 -0.2900 -1.9703 -1.7195
  396TIP3    H222680   2.030   0.910  10.317 -0.9014  1.7918 -1.1562
  397TIP3   OH222681   6.451   4.110   5.679  0.6675  0.0067 -0.8606
  397TIP3    H122682   6.360   4.080   5.683  0.9558 -0.7636  0.9633
  397TIP3    H222683   6.454   4.184   5.740  1.2186  0.1492 -1.0582
  398TIP3   OH222684   2.879   2.698   2.182 -0.0896  0.3165 -0.7639
  398TIP3    H122685   2.812   2.694   2.114 -0.7744 -0.5912 -0.0572
  398TIP3    H222686   2.960   2.672   2.138 -0.9790 -3.0243 -0.6822
  399TIP3   OH222687   2.590   5.551  14.931 -0.2151  0.2400 -0.3455
  399TIP3    H122688   2.499   5.568  14.956  0.5468  2.2047  1.4253
  399TIP3    H222689   2.589   5.461  14.899 -2.5248 -0.3203  1.0327
  400TIP3   OH222690   4.361   3.837  17.095 -0.2421 -0.0309 -0.4154
  400TIP3    H122691   4.306   3.773  17.050  0.5748  0.0777 -1.6158
  400TIP3    H222692   4.357   3.915  17.040 -1.6225  1.1747  1.2946
  401TIP3   OH222693   0.891   5.399  10.903 -0.0959 -0.0198 -0.2038
  401TIP3    H122694   0.841   5.389  10.823  2.0595  0.2958 -1.6797
  401TIP3    H222695   0.946   5.321  10.908 -1.9403 -1.3059  2.3902
  402TIP3   OH222696   3.578   5.157  15.225  0.1004  0.1800 -0.0735
  402TIP3    H122697   3.572   5.173  15.131  0.3994  2.2835  0.2220
  402TIP3    H222698   3.669   5.174  15.247 -0.1305  0.4370  0.7268
  403TIP3   OH222699   2.587   2.915  11.418 -0.5664 -0.1091  0.4975
  403TIP3    H122700   2.546   2.883  11.499 -1.4943  0.3072  0.2074
  403TIP3    H222701   2.558   2.854  11.351  0.1282 -0.3989  0.4579
  404TIP3   OH222702   3.488   0.740  11.781 -0.3653  0.4902 -0.5409
  404TIP3    H122703   3.405   0.725  11.828 -0.1152  3.7389  1.2388
  404TIP3    H222704   3.506   0.656  11.738 -3.0929 -1.2464  1.3159
  405TIP3   OH222705   0.015   2.150   4.978 -0.1887  0.6754 -0.4683
  405TIP3    H122706  -0.070   2.117   5.010  0.4723 -1.2851 -0.6060
  405TIP3    H222707   0.055   2.190   5.055 -0.2860 -0.4936  0.2241
  406TIP3   OH222708   4.502   6.375  14.933  0.0435  0.0854  0.1019
  406TIP3    H122709   4.556   6.314  14.983  1.2045  0.7838 -0.2774
  406TIP3    H222710   4.540   6.461  14.949 -0.9621  0.6010 -0.1677
  407TIP3   OH222711   6.543   3.810   5.219 -0.3362  0.2410 -0.0984
  407TIP3    H122712   6.633   3.787   5.239 -0.4538  0.1728  0.3775
  407TIP3    H222713   6.514   3.860   5.296 -0.3164  1.3265 -0.7754
  408TIP3   OH222714   5.529   6.582   2.627  0.2675  0.1646  0.1133
  408TIP3    H122715   5.569   6.496   2.635 -1.0344 -0.6330 -1.3794
  408TIP3    H222716   5.508   6.607   2.717  0.6844 -1.0548  0.5700
  409TIP3   OH222717   4.370   4.300   2.319  0.0311 -0.0483  0.7316
  409TIP3    H122718   4.379   4.393   2.337  0.0307  0.2146 -0.5719
  409TIP3    H222719   4.327   4.265   2.397  0.8273  0.8761  1.6067
  410TIP3   OH222720   0.483   5.995  15.610  0.0900  0.0905 -0.5614
  410TIP3    H122721   0.448   5.922  15.662  1.1811 -0.5366 -0.6764
  410TIP3    H222722   0.528   6.051  15.673  0.6905 -0.2271 -0.7008
  411TIP3   OH222723   5.827   0.638   5.571  0.6087 -0.1181  0.1755
  411TIP3    H122724   5.877   0.644   5.489 -0.6887 -1.7465 -0.7731
  411TIP3    H222725   5.894   0.645   5.639  1.8494  0.1694 -1.0143
  412TIP3   OH222726   3.303   5.397  13.437  0.4432  0.0210 -0.2267
  412TIP3    H122727   3.235   5.343  13.478 -0.4310  1.0848 -0.2212
  412TIP3    H222728   3.360   5.422  13.509  0.3049 -0.1092 -0.0696
  413TIP3   OH222729   4.611   3.564   5.405  0.2340  0.2427 -0.0325
  413TIP3    H122730   4.572   3.595   5.487 -0.1347 -0.0821 -0.0860
  413TIP3    H222731   4.675   3.498   5.432 -1.5548 -1.6302 -0.1199
  414TIP3   OH222732   0.893   2.447  11.843  0.8366 -0.8123 -0.6276
  414TIP3    H122733   0.946   2.392  11.900 -2.3783 -1.5267  2.0142
  414TIP3    H222734   0.855   2.387  11.779 -0.0406 -1.1515  0.1736
  415TIP3   OH222735   1.112   3.649   2.445  0.0369  0.4132 -0.0035
  415TIP3    H122736   1.175   3.603   2.390 -0.3030 -0.8116  0.6090
  415TIP3    H222737   1.167   3.707   2.499  0.4920  0.5269 -0.5749
  416TIP3   OH222738   1.856   3.836   0.124  0.1633  0.0917  0.0871
  416TIP3    H122739   1.928   3.832   0.188  0.1146 -0.8716  0.0870
  416TIP3    H222740   1.899   3.835   0.039  0.1296 -1.4457  0.0698
  417TIP3   OH222741   4.033   3.604   4.632 -0.4942 -0.1144  0.0963
  417TIP3    H122742   4.030   3.680   4.574 -0.6414 -1.4874 -1.7803
  417TIP3    H222743   3.982   3.537   4.587  1.7033 -2.1560  0.4209
  418TIP3   OH222744   2.375   0.887  16.198  0.7253  0.4674  0.1977
  418TIP3    H122745   2.341   0.954  16.257  0.0095  0.3052 -0.0121
  418TIP3    H222746   2.396   0.813  16.254  2.5023  1.2076  0.5647
  419TIP3   OH222747   3.046   6.359  11.056 -0.2353  0.0532  0.2145
  419TIP3    H122748   3.046   6.447  11.019  0.4302  0.2950  0.7775
  419TIP3    H222749   3.000   6.306  10.991  0.2768  0.6105 -0.6271
  420TIP3   OH222750   0.025   6.836  14.961 -0.0359  0.8809  0.2954
  420TIP3    H122751   0.027   6.843  15.056 -1.9314 -0.8084  0.5167
  420TIP3    H222752  -0.018   6.753  14.944 -1.2918  1.9200 -2.0525
  421TIP3   OH222753   5.747   3.899  14.427  0.4381  0.6498  0.2426
  421TIP3    H122754   5.754   3.969  14.493 -0.5672  1.4810 -0.5009
  421TIP3    H222755   5.654   3.896  14.406  0.3445 -1.4345  0.7802
  422TIP3   OH222756   3.284   2.363   2.959  0.0116 -0.4800 -0.5373
  422TIP3    H122757   3.269   2.289   2.900 -0.0254 -0.0236 -1.1109
  422TIP3    H222758   3.259   2.439   2.907 -2.0672 -0.1998  0.7506
  423TIP3   OH222759   2.666   0.050  16.312 -0.2120  0.3071 -0.0459
  423TIP3    H122760   2.671   0.022  16.221 -0.1789 -0.1747  0.1031
  423TIP3    H222761   2.583   0.014  16.344 -0.3925  0.7686  0.0178
  424TIP3   OH222762   3.427   5.838   1.627  0.0863  0.0802  0.0956
  424TIP3    H122763   3.405   5.745   1.619 -0.5629  0.2452 -0.1173
  424TIP3    H222764   3.459   5.848   1.716 -1.1606 -0.0988  0.5855
  425TIP3   OH222765   1.376   6.215  11.695  0.5532 -0.2042  0.2715
  425TIP3    H122766   1.326   6.296  11.697 -2.3740 -1.7567 -1.5131
  425TIP3    H222767   1.406   6.207  11.604  1.6167 -0.6509  0.6517
  426TIP3   OH222768   2.713   4.974   0.590  0.2131  0.4751  0.2562
  426TIP3    H122769   2.760   4.959   0.508  0.6234 -0.9219  0.7289
  426TIP3    H222770   2.620   4.968   0.566  0.3112  0.8671 -0.2399
  427TIP3   OH222771   0.282   4.805  16.796  0.0217 -0.6482  1.1335
  427TIP3    H122772   0.376   4.822  16.791  0.3388 -2.3123  0.9613
  427TIP3    H222773   0.251   4.812  16.706 -0.0533 -0.0344  1.1989
  428TIP3   OH222774   2.396   2.377  14.889  0.4174 -0.0241 -0.1545
  428TIP3    H122775   2.429   2.397  14.976 -0.5064 -2.8992  0.9747
  428TIP3    H222776   2.311   2.421  14.885  0.1609 -0.4311  0.6691
  429TIP3   OH222777   3.464   0.733   1.132 -0.2899  0.2506  0.7391
  429TIP3    H122778   3.475   0.661   1.194  0.7363  0.5660  0.9485
  429TIP3    H222779   3.433   0.806   1.186 -1.8081 -0.1511  0.4444
  430TIP3   OH222780   1.166   0.963  14.012 -0.3745  0.0136  0.7325
  430TIP3    H122781   1.249   0.950  13.967 -0.1384 -1.9498  1.5884
  430TIP3    H222782   1.191   0.986  14.102 -0.7201 -0.7324  1.0333
  431TIP3   OH222783   0.470   1.335  12.386 -0.4497  0.0945  0.4743
  431TIP3    H122784   0.532   1.336  12.313 -1.3169 -3.9876 -0.5768
  431TIP3    H222785   0.384   1.334  12.345 -1.0606  0.8085  1.6987
  432TIP3   OH222786   0.903   0.036   5.285 -0.0074  0.3455 -0.0446
  432TIP3    H122787   0.958  -0.009   5.220  1.1749  0.8223  0.5980
  432TIP3    H222788   0.818   0.043   5.242  0.0223 -1.6180 -0.5521
  433TIP3   OH222789   6.237   2.181  15.520 -0.6719  0.5331 -0.2890
  433TIP3    H122790   6.220   2.124  15.446 -1.6363 -0.5651  0.7507
  433TIP3    H222791   6.250   2.122  15.594  1.7511  1.5308  0.1886
  434TIP3   OH222792   0.186   3.127   0.341 -0.3652 -0.1564 -0.1203
  434TIP3    H122793   0.232   3.197   0.296 -0.6188  0.4305  0.5253
  434TIP3    H222794   0.251   3.089   0.400 -0.4868  0.1629  0.2230
  435TIP3   OH222795   3.827   2.450   3.321 -0.7244  0.2139 -0.2483
  435TIP3    H122796   3.904   2.447   3.264 -0.4974 -0.8374  0.0896
  435TIP3    H222797   3.754   2.427   3.264 -0.7129  0.6739 -0.4493
  436TIP3   OH222798   0.554   2.232   2.615  0.1644  0.1248  0.0974
  436TIP3    H122799   0.518   2.282   2.688  0.3434  1.7393 -0.8647
  436TIP3    H222800   0.493   2.159   2.604 -2.2495  2.1118 -0.7442
  437TIP3   OH222801   1.583   5.177   2.418  0.0864 -0.2736 -0.1330
  437TIP3    H122802   1.598   5.110   2.352 -0.8010 -0.9041  0.2857
  437TIP3    H222803   1.610   5.137   2.500  1.5772  0.6500 -0.1338
  438TIP3   OH222804   6.610   4.112  15.160 -0.0677 -0.0465 -0.1441
  438TIP3    H122805   6.550   4.186  15.167  1.2965  1.0281  0.7616
  438TIP3    H222806   6.600   4.065  15.243 -0.1181 -0.2308 -0.2534
  439TIP3   OH222807   4.851   4.247  12.452 -0.2361 -0.1027  0.0787
  439TIP3    H122808   4.773   4.302  12.440  0.0333  0.3319  0.2969
  439TIP3    H222809   4.860   4.239  12.547  0.8153  1.0552  0.0915
  440TIP3   OH222810   2.200   0.034  14.716  0.9536  0.3868 -0.0268
  440TIP3    H122811   2.205   0.077  14.802  1.1226  1.1141 -0.3905
  440TIP3    H222812   2.291   0.025  14.689  0.9324 -0.4300  0.1467
  441TIP3   OH222813   6.123   4.489  16.390 -0.4075 -0.4447  0.2199
  441TIP3    H122814   6.071   4.500  16.469 -0.9829 -0.6112 -0.1328
  441TIP3    H222815   6.127   4.576  16.351 -0.1499 -0.3688  0.4069
  442TIP3   OH222816   3.360   1.895   3.636 -0.3507 -0.0168 -0.1913
  442TIP3    H122817   3.410   1.966   3.596 -0.9179  0.4510 -0.0869
  442TIP3    H222818   3.335   1.839   3.563  0.9386 -0.6619 -0.1628
  443TIP3   OH222819   5.197   5.782   5.092  0.4039  0.4406  0.2964
  443TIP3    H122820   5.152   5.706   5.056  0.8620 -0.2239  1.1163
  443TIP3    H222821   5.147   5.857   5.058  0.0254 -0.2086 -0.6153
  444TIP3   OH222822   2.855   0.821   0.830 -0.3212  0.3092 -0.0989
  444TIP3    H122823   2.762   0.803   0.847  0.0060 -1.7600 -0.2238
  444TIP3    H222824   2.901   0.782   0.904  0.5412 -0.2126 -0.8853
  445TIP3   OH222825   0.647   0.716   0.282 -0.1429  0.0216 -0.7318
  445TIP3    H122826   0.656   0.697   0.189 -2.2624 -2.2593 -0.5532
  445TIP3    H222827   0.553   0.728   0.296  0.2268  1.4795  0.9654
  446TIP3   OH222828   6.764   0.330  13.981 -0.4167 -0.3293  0.3385
  446TIP3    H122829   6.802   0.271  14.046 -0.5034 -0.3602  0.3613
  446TIP3    H222830   6.832   0.396  13.965  0.0505 -0.9587 -0.3675
  447TIP3   OH222831   6.295   5.833  15.169 -0.0374 -0.9434  0.1187
  447TIP3    H122832   6.294   5.878  15.253  0.0133 -0.1167 -0.3124
  447TIP3    H222833   6.387   5.812  15.154  0.1300  0.0176 -0.2943
  448TIP3   OH222834   5.354   5.794   0.175 -0.1608 -0.4062  0.4281
  448TIP3    H122835   5.354   5.885   0.205  0.1558 -0.7636  1.5274
  448TIP3    H222836   5.265   5.764   0.191 -0.2220 -0.3450  0.2113
  449TIP3   OH222837   1.738   3.427  14.051 -0.1638 -0.7060 -0.1138
  449TIP3    H122838   1.676   3.410  13.980  0.2552 -3.3832  0.0387
  449TIP3    H222839   1.683   3.442  14.128 -0.6044  0.1483 -0.5834
  450TIP3   OH222840   3.817   6.743   2.346 -0.1404 -0.4068  0.4319
  450TIP3    H122841   3.853   6.799   2.415  0.4138 -1.1104  0.7164
  450TIP3    H222842   3.776   6.670   2.392  0.5746 -1.0851  0.0131
  451TIP3   OH222843   4.412   2.122   5.624  0.1513 -0.3554 -0.3579
  451TIP3    H122844   4.321   2.151   5.622  0.3739  0.6946  1.9625
  451TIP3    H222845   4.430   2.095   5.534 -1.9689  0.9019 -1.2381
  452TIP3   OH222846   0.141   0.883  16.492 -0.4377 -0.1290 -0.0011
  452TIP3    H122847   0.211   0.866  16.430 -0.6871 -0.7925 -0.1061
  452TIP3    H222848   0.070   0.920  16.439 -1.5990 -2.9879 -0.6048
  453TIP3   OH222849   2.787   3.742   0.017  0.3232  0.2968 -0.2569
  453TIP3    H122850   2.761   3.650   0.021  1.3077 -0.0644 -1.4479
  453TIP3    H222851   2.723   3.783  -0.040  0.5143  0.0999 -0.6178
  454TIP3   OH222852   4.394   2.451  12.453  0.3016 -0.0981  0.2873
  454TIP3    H122853   4.489   2.464  12.458  0.1415  0.9813  0.8059
  454TIP3    H222854   4.371   2.414  12.538 -0.0179  1.6954  1.0252
  455TIP3   OH222855   1.919   5.488  13.303  0.0008 -0.1167  0.9443
  455TIP3    H122856   1.846   5.430  13.281  0.5033 -1.1165  1.8310
  455TIP3    H222857   1.880   5.575  13.311 -0.9583 -0.5165  0.6902
  456TIP3   OH222858   6.272   2.234   0.539 -0.5168 -0.0150 -0.4173
  456TIP3    H122859   6.223   2.277   0.469 -0.5581 -0.4262 -0.6483
  456TIP3    H222860   6.335   2.300   0.568 -1.7158  0.8096  0.4406
  457TIP3   OH222861   3.452   4.806  14.312  0.3889  0.4976 -0.0966
  457TIP3    H122862   3.471   4.848  14.396 -0.8783  0.8557  0.0255
  457TIP3    H222863   3.515   4.845  14.251 -0.9480  2.9168 -0.0733
  458TIP3   OH222864   0.110   4.329   0.305 -0.1557  0.1961 -0.4059
  458TIP3    H122865   0.101   4.245   0.261 -1.0030 -0.3318  0.7045
  458TIP3    H222866   0.040   4.384   0.268 -1.5690 -0.5900  0.9636
  459TIP3   OH222867   3.245   4.281  16.690 -0.4269  0.4367 -0.4318
  459TIP3    H122868   3.282   4.197  16.660  0.1931  0.6041 -0.1557
  459TIP3    H222869   3.240   4.334  16.611 -0.6933  0.1895 -0.5846
  460TIP3   OH222870   0.036   0.626  11.945  0.6313 -0.5163  0.3254
  460TIP3    H122871   0.066   0.535  11.946 -0.2496 -0.8418 -0.6579
  460TIP3    H222872   0.079   0.665  11.869 -0.4772 -0.6634 -0.3989
  461TIP3   OH222873   3.175   1.721   4.359  0.1216 -0.6332  0.2153
  461TIP3    H122874   3.139   1.744   4.445  0.5162 -0.8938  0.4577
  461TIP3    H222875   3.108   1.667   4.319  0.3180 -1.2845  0.7437
  462TIP3   OH222876   3.989   2.089  17.106 -0.0332  0.0628 -0.3964
  462TIP3    H122877   3.967   2.107  17.197  0.0462  0.2170 -0.4055
  462TIP3    H222878   3.968   2.170  17.059 -1.3778 -0.4671 -0.7542
  463TIP3   OH222879   6.264   3.168   1.601 -0.0746  0.2574  0.0375
  463TIP3    H122880   6.358   3.179   1.592 -0.0701  2.1061  1.6493
  463TIP3    H222881   6.253   3.112   1.678 -0.2661  0.6888  0.3350
  464TIP3   OH222882   5.493   3.136  10.931 -0.3898  0.2671  0.0719
  464TIP3    H122883   5.451   3.058  10.896  4.7617 -2.5229 -0.8598
  464TIP3    H222884   5.521   3.185  10.854  1.4209 -0.1098  0.4448
  465TIP3   OH222885   0.468   6.670  11.213 -0.1447  0.2165  0.6290
  465TIP3    H122886   0.511   6.669  11.299  3.6556  3.5026 -0.8942
  465TIP3    H222887   0.433   6.759  11.205 -1.1355 -0.2814 -0.9109
  466TIP3   OH222888   2.776   1.790   3.274  0.3957  0.3930  0.3183
  466TIP3    H122889   2.696   1.743   3.253  1.0648 -0.5919 -0.0676
  466TIP3    H222890   2.818   1.807   3.189  2.2932 -2.1703  0.6090
  467TIP3   OH222891   5.638   1.903   2.105 -0.3392 -0.2038  0.4596
  467TIP3    H122892   5.701   1.972   2.088  0.2255 -1.1175 -1.3801
  467TIP3    H222893   5.555   1.948   2.118  0.2754  0.8759  0.7394
  468TIP3   OH222894   1.996   4.436  12.231  0.4156  0.0191  0.3841
  468TIP3    H122895   1.968   4.351  12.197 -0.3447  0.1682  0.6114
  468TIP3    H222896   2.067   4.463  12.172  1.4304 -1.2574  0.9786
  469TIP3   OH222897   3.022   1.584  15.104 -0.3900  0.2751  0.0528
  469TIP3    H122898   2.973   1.511  15.066  2.3836 -1.0865 -1.2302
  469TIP3    H222899   3.013   1.571  15.199 -1.4199 -0.6538 -0.1394
  470TIP3   OH222900   4.943   0.967   4.801 -0.2714  0.4072  0.4426
  470TIP3    H122901   4.916   1.009   4.719 -2.9858 -0.4719  0.8012
  470TIP3    H222902   4.867   0.974   4.858  0.4575 -1.7516  1.8073
  471TIP3   OH222903   2.785   6.117  16.055 -0.3429 -0.1905 -0.3064
  471TIP3    H122904   2.870   6.156  16.037 -0.6214  1.5269  1.6688
  471TIP3    H222905   2.804   6.023  16.067  0.7275 -0.3746 -2.7887
  472TIP3   OH222906   0.927   1.083  14.052  0.0712  0.5856 -0.2965
  472TIP3    H122907   0.959   1.147  14.115  0.7252  0.7153 -0.7475
  472TIP3    H222908   1.005   1.033  14.027 -0.3985 -0.2738 -0.0817
  473TIP3   OH222909   2.341   0.768   2.227  0.3826  0.3827  0.1639
  473TIP3    H122910   2.294   0.706   2.282  0.9611 -1.1743 -1.0323
  473TIP3    H222911   2.429   0.772   2.266  1.0373 -1.3302 -1.0309
  474TIP3   OH222912   0.633   0.251   1.199  0.2273 -0.1545 -0.0275
  474TIP3    H122913   0.702   0.239   1.134  0.6962 -1.1014  0.6086
  474TIP3    H222914   0.679   0.286   1.276 -0.0523 -0.4253  0.2680
  475TIP3   OH222915   1.772   1.214  13.584 -0.5631 -0.6368  0.7077
  475TIP3    H122916   1.772   1.305  13.555  1.2607 -0.7785  0.1041
  475TIP3    H222917   1.682   1.184  13.570 -0.7250  0.4872 -1.0133
  476TIP3   OH222918   0.112   4.205  16.675 -0.6803  0.6146 -0.1092
  476TIP3    H122919   0.069   4.257  16.744  0.7067 -0.0499  1.3257
  476TIP3    H222920   0.043   4.147  16.642 -1.5366  1.3912  0.2713
  477TIP3   OH222921   4.073   4.393   3.882 -0.4038  0.0181  0.0190
  477TIP3    H122922   4.036   4.392   3.794  0.7293  0.9446 -0.4980
  477TIP3    H222923   4.167   4.386   3.869 -0.3064 -1.7712  1.2717
  478TIP3   OH222924   4.278   5.634   4.140 -0.0275  0.6694  0.4391
  478TIP3    H122925   4.191   5.676   4.141 -0.1502  0.5406 -1.3785
  478TIP3    H222926   4.263   5.547   4.178 -0.2512  1.3606  2.0223
  479TIP3   OH222927   6.633   3.538   3.468  0.1115  0.1324 -0.6427
  479TIP3    H122928   6.667   3.522   3.381  0.2250 -1.1788 -0.3772
  479TIP3    H222929   6.617   3.451   3.505 -3.0728  0.6043 -0.5550
  480TIP3   OH222930   4.783   2.649   1.361  0.3731 -0.2667  0.1938
  480TIP3    H122931   4.729   2.622   1.286 -1.1404 -0.5504  1.3328
  480TIP3    H222932   4.842   2.575   1.377 -0.0006 -0.6323 -0.0903
  481TIP3   OH222933   3.851   4.718  17.041 -0.1642  0.4989 -0.1356
  481TIP3    H122934   3.897   4.635  17.027 -0.1860  0.6425 -1.1074
  481TIP3    H222935   3.917   4.776  17.078  0.0123  0.2374 -0.0355
  482TIP3   OH222936   4.206   6.303   0.836 -0.0944 -0.3256  0.9106
  482TIP3    H122937   4.155   6.322   0.758  2.3256 -0.7030 -0.8882
  482TIP3    H222938   4.195   6.380   0.892 -0.4552  0.7776 -0.6253
  483TIP3   OH222939   2.071   4.729  14.607 -0.0653  0.1765 -0.1933
  483TIP3    H122940   2.087   4.733  14.701 -1.2693 -0.6747  0.0802
  483TIP3    H222941   1.981   4.759  14.597  0.5080  1.6679 -1.2659
  484TIP3   OH222942   5.137   2.353   0.959 -0.4726 -0.1112  0.2901
  484TIP3    H122943   5.168   2.442   0.949  0.6347 -0.4619  0.4363
  484TIP3    H222944   5.069   2.359   1.026 -0.9383  0.7268 -0.2512
  485TIP3   OH222945   2.998   2.596  11.693  0.1933  0.4471  0.2046
  485TIP3    H122946   3.001   2.575  11.599  1.6423  0.2256  0.2854
  485TIP3    H222947   3.015   2.691  11.696 -0.9514  0.6704  0.1936
  486TIP3   OH222948   0.347   3.412  14.333 -0.5406 -0.2023 -0.2435
  486TIP3    H122949   0.330   3.500  14.368  1.4789  0.2034 -0.1798
  486TIP3    H222950   0.320   3.353  14.404  0.2410  0.4819  0.6564
  487TIP3   OH222951   6.073   5.366  16.510  0.0779 -0.2299  0.2657
  487TIP3    H122952   6.121   5.442  16.477 -2.2820  0.4850 -1.7783
  487TIP3    H222953   5.983   5.379  16.479 -0.7071 -3.1738  1.0417
  488TIP3   OH222954   6.765   6.131  10.676  0.6746 -0.5829 -0.4620
  488TIP3    H122955   6.845   6.079  10.682  0.1842 -1.2593  4.7357
  488TIP3    H222956   6.694   6.067  10.682 -0.0965  0.3118  0.2624
  489TIP3   OH222957   2.746   3.872   4.599  0.6333 -0.1639  0.0559
  489TIP3    H122958   2.720   3.785   4.570  1.3615 -0.6393  0.7842
  489TIP3    H222959   2.840   3.864   4.618  0.5344  0.5621  0.9201
  490TIP3   OH222960   6.267   6.749   0.537 -0.2092  0.1507 -0.5722
  490TIP3    H122961   6.199   6.750   0.605  0.0452  1.8775 -0.2889
  490TIP3    H222962   6.338   6.802   0.573 -0.1025  1.1901 -2.1901
  491TIP3   OH222963   0.859   1.860  13.496 -0.1734  0.0172  0.0118
  491TIP3    H122964   0.903   1.903  13.422  1.2423 -1.0192  0.2021
  491TIP3    H222965   0.844   1.771  13.467  0.3423 -0.3856  0.9254
  492TIP3   OH222966   4.922   6.280   3.132 -0.1009  0.0357  0.5484
  492TIP3    H122967   4.982   6.343   3.173 -1.2696  0.5409  1.5719
  492TIP3    H222968   4.895   6.323   3.051  0.9841 -0.2497  0.0122
  493TIP3   OH222969   0.714   2.323  12.211  0.0056 -0.5437  0.2702
  493TIP3    H122970   0.798   2.278  12.217 -1.9847 -4.7797  0.3375
  493TIP3    H222971   0.653   2.266  12.258 -3.4925  0.6329 -2.3908
  494TIP3   OH222972   3.140   1.569  10.949  0.4462  0.7436 -0.0693
  494TIP3    H122973   3.154   1.488  10.900  2.9482 -0.7452  2.8146
  494TIP3    H222974   3.221   1.618  10.940 -0.0332  1.6763  0.4617
  495TIP3   OH222975   3.698   5.622  11.678  0.0555  0.0848 -0.2904
  495TIP3    H122976   3.650   5.688  11.628 -0.1861  0.3497  0.2905
  495TIP3    H222977   3.659   5.624  11.765  0.2350 -0.6301 -0.1845
  496TIP3   OH222978   0.402   0.097   5.281 -0.3269 -0.4836 -0.8816
  496TIP3    H122979   0.430   0.121   5.369  0.0972  0.1491 -1.1800
  496TIP3    H222980   0.335   0.030   5.294 -0.4935 -0.1660 -0.0679
  497TIP3   OH222981   3.505   6.126  10.888  0.2727  0.0652 -0.6573
  497TIP3    H122982   3.593   6.088  10.889 -0.1256 -0.9578 -1.9960
  497TIP3    H222983   3.447   6.052  10.876 -0.8499  0.6696  0.6604
  498TIP3   OH222984   4.113   5.950  15.600  0.2530 -0.4946  0.4127
  498TIP3    H122985   4.178   5.976  15.535 -1.5283  1.7477 -0.6270
  498TIP3    H222986   4.161   5.948  15.683  1.7476  0.5693 -0.3723
  499TIP3   OH222987   5.538   4.284  11.695  0.1692  0.4003 -0.3588
  499TIP3    H122988   5.519   4.378  11.703  0.3742  0.5176 -1.1581
  499TIP3    H222989   5.547   4.270  11.601  2.5475  0.0444 -0.1386
  500TIP3   OH222990   3.904   3.182   5.554  0.3954 -0.0020 -0.7860
  500TIP3    H122991   3.929   3.274   5.545  0.7174 -0.1082 -0.9992
  500TIP3    H222992   3.912   3.146   5.466  1.3149 -0.4875 -0.5281
  501TIP3   OH222993   5.565   0.143  14.103 -0.0339 -0.1081  0.0088
  501TIP3    H122994   5.523   0.229  14.096  0.0032  0.0623  1.5337
  501TIP3    H222995   5.650   0.155  14.063 -0.4126  0.2839 -0.7021
  502TIP3   OH222996   2.912   6.066   6.032  0.1783  0.4297 -0.1253
  502TIP3    H122997   2.894   6.025   5.947  0.2157  2.0249 -0.9422
  502TIP3    H222998   2.837   6.123   6.047  0.9275  1.3621  0.1483
  503TIP3   OH222999   0.516   1.775  15.624 -0.2333 -0.5057 -0.0133
  503TIP3    H123000   0.544   1.751  15.535 -1.3580  2.2377 -1.2231
  503TIP3    H223001   0.510   1.871  15.622  1.0434 -0.2099  3.4872
  504TIP3   OH223002   5.988   5.284   1.386  0.1840 -0.7151 -0.2050
  504TIP3    H123003   6.029   5.291   1.472  1.2902  2.6814 -0.8723
  504TIP3    H223004   6.052   5.238   1.333 -0.6300 -3.1156  0.7450
  505TIP3   OH223005   2.462   5.619   1.145 -0.7986 -0.2098 -0.7827
  505TIP3    H123006   2.454   5.712   1.168  2.2187  0.8383 -3.1880
  505TIP3    H223007   2.536   5.588   1.197  0.3013 -0.2816 -2.3185
  506TIP3   OH223008   2.891   3.383   1.084 -0.7693  0.2360 -0.4802
  506TIP3    H123009   2.953   3.352   1.018 -0.0474  1.1554 -0.2621
  506TIP3    H223010   2.926   3.467   1.112 -1.8551  0.5396  0.0276
  507TIP3   OH223011   1.547   4.974   4.805  0.6463  0.2166  0.0321
  507TIP3    H123012   1.455   4.988   4.829  0.9902  0.5146  1.2362
  507TIP3    H223013   1.589   5.059   4.821  1.1313  0.0933 -0.5433
  508TIP3   OH223014   5.629   1.713   1.651 -0.4084  0.1069  0.1867
  508TIP3    H123015   5.719   1.747   1.656  0.0755 -0.6883 -2.0254
  508TIP3    H223016   5.575   1.790   1.632 -0.1751  0.5404  1.2140
  509TIP3   OH223017   0.788   3.645   2.690 -0.9311  0.7713  0.0443
  509TIP3    H123018   0.800   3.590   2.767  0.1764 -1.0853 -1.3505
  509TIP3    H223019   0.694   3.663   2.688 -1.2814 -0.7760  0.7863
  510TIP3   OH223020   1.748   4.051   3.676  0.0888  0.2461 -0.0025
  510TIP3    H123021   1.675   4.031   3.735 -1.5300  1.0620 -1.6151
  510TIP3    H223022   1.822   4.004   3.713 -1.0903 -0.1181  2.0676
  511TIP3   OH223023   2.591   0.966   4.743  0.0974 -0.0216 -0.6616
  511TIP3    H123024   2.554   0.901   4.683  1.0151 -0.1865 -1.0545
  511TIP3    H223025   2.556   0.941   4.829  1.8575 -2.1749 -0.4963
  512TIP3   OH223026   3.301   6.109  11.956  0.2802  0.4248 -0.2330
  512TIP3    H123027   3.317   6.201  11.939 -1.9857  0.9440  0.1639
  512TIP3    H223028   3.324   6.097  12.049  1.7185  0.2747 -0.5902
  513TIP3   OH223029   4.691   6.100   5.612  0.1845 -0.0091 -0.2357
  513TIP3    H123030   4.751   6.032   5.582  0.0639 -0.0807 -0.3186
  513TIP3    H223031   4.614   6.051   5.642 -0.3398  0.1418 -1.2982
  514TIP3   OH223032   1.009   0.463  11.638 -0.5556 -0.1775  0.6236
  514TIP3    H123033   0.931   0.512  11.612 -0.3402  0.1129  0.5155
  514TIP3    H223034   1.040   0.422  11.558  1.1966  2.2458 -0.0580
  515TIP3   OH223035   6.749   0.957  12.172 -0.5176  0.0755 -0.0564
  515TIP3    H123036   6.716   0.896  12.106 -1.2130  0.3816  0.0021
  515TIP3    H223037   6.834   0.985  12.137  0.5245 -2.0319  0.6272
  516TIP3   OH223038   5.505   5.327   1.382  0.2360  0.5399  0.1804
  516TIP3    H123039   5.571   5.261   1.406  0.4948  1.0290  0.8598
  516TIP3    H223040   5.536   5.362   1.299 -1.1185 -1.7810 -1.4363
  517TIP3   OH223041   1.749   3.996  12.981 -0.5288 -0.1666 -0.0033
  517TIP3    H123042   1.751   4.078  12.932 -2.5026 -0.3261 -0.4318
  517TIP3    H223043   1.824   4.002  13.041  0.5125  1.0812 -1.3462
  518TIP3   OH223044   2.962   2.483   5.649  0.3407 -0.2595  0.4396
  518TIP3    H123045   2.934   2.568   5.684  1.0670  0.7286 -1.2065
  518TIP3    H223046   2.898   2.420   5.683  0.6654  0.6731  2.9437
  519TIP3   OH223047   0.077   6.454  10.998  0.5043  0.0879 -0.0186
  519TIP3    H123048   0.038   6.417  11.077 -0.3788  2.9474  1.0535
  519TIP3    H223049   0.022   6.422  10.927  0.3360 -1.2701  0.6903
  520TIP3   OH223050   1.156   4.278   1.112  0.5522  0.0911 -0.3887
  520TIP3    H123051   1.066   4.290   1.083  0.1585 -0.5284  0.5296
  520TIP3    H223052   1.175   4.186   1.094  1.2340  0.3689 -1.1638
  521TIP3   OH223053   3.838   4.140   6.866  0.2821 -0.4165 -0.2128
  521TIP3    H123054   3.830   4.045   6.879  1.0889 -0.3750  0.6224
  521TIP3    H223055   3.817   4.153   6.773 -1.3744 -1.2242  0.0095
  522TIP3   OH223056   6.537   4.698   2.634 -0.2055  0.4816  1.0154
  522TIP3    H123057   6.531   4.644   2.713  0.7585 -0.4218  0.4829
  522TIP3    H223058   6.455   4.749   2.634 -0.1560  0.6237  2.6684
  523TIP3   OH223059   1.542   0.887   0.220  0.1549  0.0383  0.8350
  523TIP3    H123060   1.571   0.796   0.205 -2.5949 -0.7959 -0.0046
  523TIP3    H223061   1.583   0.912   0.303  1.5342 -1.7040  0.7421
  524TIP3   OH223062   2.331   3.775   4.227  0.1779  0.1591 -0.1701
  524TIP3    H123063   2.300   3.842   4.287 -0.0007  1.1988 -1.3769
  524TIP3    H223064   2.252   3.741   4.186  0.3723  0.3748 -0.7399
  525TIP3   OH223065   0.668   6.267   3.409 -0.0541 -0.2853  0.0672
  525TIP3    H123066   0.693   6.201   3.344  2.3321  0.6847 -0.1096
  525TIP3    H223067   0.643   6.216   3.487  1.5763 -1.4378 -0.1037
  526TIP3   OH223068   3.911   5.237  12.581  0.0603  0.1917 -0.2049
  526TIP3    H123069   4.002   5.224  12.610  0.0935  1.0864  0.1010
  526TIP3    H223070   3.861   5.248  12.662 -0.1262  0.9206 -0.4122
  527TIP3   OH223071   3.202   5.989   5.905 -0.5294  0.1787 -0.3424
  527TIP3    H123072   3.294   5.971   5.889 -0.3742  0.2086  0.4787
  527TIP3    H223073   3.167   6.015   5.820  0.3407  0.6831 -0.5554
  528TIP3   OH223074   1.020   3.748  13.337 -0.0400  0.0125 -0.7514
  528TIP3    H123075   1.068   3.808  13.393  2.5734 -0.5920 -2.1956
  528TIP3    H223076   1.062   3.756  13.252 -0.2503 -3.1045 -1.2489
  529TIP3   OH223077   6.759   6.430   3.710  0.6545  0.2537 -0.0428
  529TIP3    H123078   6.718   6.517   3.716  0.9383  0.3702  0.2420
  529TIP3    H223079   6.795   6.427   3.621  0.7452  0.4752 -0.0146
  530TIP3   OH223080   4.555   3.308   2.927  0.2721 -0.1635 -0.3581
  530TIP3    H123081   4.616   3.235   2.935  0.9262  0.4465  0.3719
  530TIP3    H223082   4.548   3.343   3.016 -0.8721 -0.0061 -0.5015
  531TIP3   OH223083   0.985   4.527  14.094  0.0393  0.7167  0.8236
  531TIP3    H123084   0.963   4.612  14.055  0.8783  1.0771  1.1103
  531TIP3    H223085   0.949   4.463  14.033  1.1279  1.2751 -0.4535
  532TIP3   OH223086   0.630   5.639  14.637  0.2799 -0.2468 -0.1109
  532TIP3    H123087   0.621   5.565  14.697  2.9010 -1.8656 -1.5184
  532TIP3    H223088   0.567   5.622  14.567 -2.8203  1.6714  1.9745
  533TIP3   OH223089   3.610   1.187   3.352 -0.2160 -0.4532  0.2165
  533TIP3    H123090   3.522   1.154   3.332  0.5450 -2.8487  0.5127
  533TIP3    H223091   3.649   1.207   3.267 -0.2987 -1.5030 -0.0797
  534TIP3   OH223092   4.718   3.848  15.523 -0.0567  0.1975  0.2100
  534TIP3    H123093   4.653   3.780  15.542  0.2763 -0.6281 -1.4038
  534TIP3    H223094   4.744   3.882  15.608 -1.9138 -0.0979  0.9463
  535TIP3   OH223095   5.640   4.829   4.542 -0.2300  0.1335  0.1840
  535TIP3    H123096   5.644   4.871   4.456  1.0231  0.3563  0.3357
  535TIP3    H223097   5.635   4.736   4.523  2.0508  0.0314 -0.1527
  536TIP3   OH223098   4.248   0.057  17.166  0.3967  0.3082 -0.0063
  536TIP3    H123099   4.222   0.148  17.148 -0.5853 -0.2961 -1.9446
  536TIP3    H223100   4.205   0.036  17.249 -3.0154  0.3297 -1.6119
  537TIP3   OH223101   1.010   4.506   0.873 -0.0857 -0.1016 -0.2646
  537TIP3    H123102   1.068   4.487   0.947 -1.2553 -1.0191  0.4436
  537TIP3    H223103   1.062   4.564   0.817  0.0183  2.6283  2.4287
  538TIP3   OH223104   1.960   0.701  12.292  0.2941 -0.2273 -0.2366
  538TIP3    H123105   2.016   0.778  12.301 -3.1648  2.5608 -0.1059
  538TIP3    H223106   1.913   0.696  12.375 -1.3170 -0.9448 -1.1488
  539TIP3   OH223107   1.141   1.480   0.693  0.3697 -0.3361 -0.4604
  539TIP3    H123108   1.065   1.423   0.697  0.3054 -0.2808 -0.8377
  539TIP3    H223109   1.194   1.446   0.621  0.5093 -0.1370 -0.4552
  540TIP3   OH223110   5.977   3.160  15.349 -0.0963 -0.1897 -0.0841
  540TIP3    H123111   5.927   3.135  15.427  1.8621  0.7707  1.5795
  540TIP3    H223112   5.920   3.135  15.276 -2.6984  0.2336  1.6292
  541TIP3   OH223113   1.952   6.515   5.174 -0.6932 -0.1651 -0.1807
  541TIP3    H123114   1.986   6.526   5.085 -0.7169 -1.4935 -0.3664
  541TIP3    H223115   1.875   6.571   5.177 -0.0272  0.7997 -0.6106
  542TIP3   OH223116   4.045   4.224   3.354  0.3968  0.3609 -0.0681
  542TIP3    H123117   4.133   4.198   3.381  0.5361  1.0623  0.1883
  542TIP3    H223118   4.057   4.311   3.315 -0.4214  1.2994  1.6458
  543TIP3   OH223119   6.137   1.186  16.210 -0.3333 -0.0661  0.6122
  543TIP3    H123120   6.041   1.185  16.204 -0.3281  1.9635 -1.2558
  543TIP3    H223121   6.156   1.233  16.291 -0.9412  0.7208  0.3061
  544TIP3   OH223122   2.619   4.109  11.858 -0.1898 -0.3217 -0.3288
  544TIP3    H123123   2.657   4.025  11.834  0.4018  0.0521 -0.7551
  544TIP3    H223124   2.565   4.091  11.935 -0.8096 -1.2546 -0.9577
  545TIP3   OH223125   6.121   6.258  11.180  0.3135 -0.0331  0.1055
  545TIP3    H123126   6.177   6.319  11.132 -1.0046  0.5698 -0.7504
  545TIP3    H223127   6.115   6.295  11.268  0.6313  0.3219 -0.0191
  546TIP3   OH223128   4.866   3.345  13.743  0.5042  0.2103  0.1483
  546TIP3    H123129   4.918   3.370  13.666  0.4131 -1.2166 -0.4039
  546TIP3    H223130   4.840   3.254  13.726 -0.5339  0.2671  1.3219
  547TIP3   OH223131   6.430   0.503   3.508  0.0124  0.0271 -0.0842
  547TIP3    H123132   6.457   0.593   3.489  0.7726 -0.5615 -2.0537
  547TIP3    H223133   6.400   0.506   3.599 -1.2188  2.5425 -0.4695
  548TIP3   OH223134   3.944   1.525   4.305 -0.1766 -0.4304  0.0856
  548TIP3    H123135   3.964   1.599   4.362  3.2026 -2.7252  2.2907
  548TIP3    H223136   3.995   1.540   4.226  0.1197 -0.1543  0.3288
  549TIP3   OH223137   0.287   3.363   0.249  0.6939 -0.4060  0.4016
  549TIP3    H123138   0.359   3.419   0.279  0.6079  0.1652 -0.4348
  549TIP3    H223139   0.250   3.410   0.174 -1.4479  0.0422  1.6540
  550TIP3   OH223140   4.331   1.866  12.915  0.1391 -0.1950  0.6035
  550TIP3    H123141   4.263   1.902  12.859  0.3296  0.6089  0.8802
  550TIP3    H223142   4.328   1.919  12.995  0.9101 -0.3162  0.7237
  551TIP3   OH223143   6.680   0.665  13.885 -0.0256  0.2458 -0.1504
  551TIP3    H123144   6.606   0.721  13.862  0.5678  0.6329 -1.1691
  551TIP3    H223145   6.691   0.608  13.809 -0.4083 -1.0536  0.7285
  552TIP3   OH223146   6.277   5.301   2.700  0.0909  0.0946 -0.0259
  552TIP3    H123147   6.284   5.234   2.769  1.0780  2.0178  1.8622
  552TIP3    H223148   6.367   5.332   2.688 -0.4388  1.5636 -0.3261
  553TIP3   OH223149   5.578   1.612  12.497 -0.5300 -0.0747 -0.6072
  553TIP3    H123150   5.504   1.603  12.438 -0.7394  0.5050 -0.4405
  553TIP3    H223151   5.539   1.637  12.581 -0.2016 -0.4514 -0.3351
  554TIP3   OH223152   3.101   2.786  14.787  0.2516 -0.1222 -0.0212
  554TIP3    H123153   3.019   2.750  14.754  0.2381  0.5080 -0.7030
  554TIP3    H223154   3.169   2.746  14.733  0.3412 -0.1960  0.1473
  555TIP3   OH223155   2.512   2.605  14.036  0.1684  0.2728 -0.0562
  555TIP3    H123156   2.536   2.653  13.957  0.3698  1.4170  0.6601
  555TIP3    H223157   2.589   2.613  14.093 -0.3385  0.3582  0.6397
  556TIP3   OH223158   6.317   2.587   1.358  0.6739  0.2649 -0.2989
  556TIP3    H123159   6.278   2.661   1.314  0.2955  0.6949  0.7223
  556TIP3    H223160   6.261   2.513   1.337 -1.4814  1.0825  2.1055
  557TIP3   OH223161   2.070   3.594  10.644 -0.0455 -0.2786 -0.0978
  557TIP3    H123162   2.129   3.565  10.574 -0.1123 -3.9816  1.1806
  557TIP3    H223163   2.127   3.637  10.707  0.3644  1.0072 -1.2857
  558TIP3   OH223164   5.996   4.235  13.606  0.3744  0.1803 -1.2041
  558TIP3    H123165   5.950   4.282  13.676  0.4979  1.2893 -1.8579
  558TIP3    H223166   5.927   4.183  13.564 -0.0876  1.0477 -1.5287
  559TIP3   OH223167   1.029   6.647  11.690 -0.0159 -0.8224  0.1687
  559TIP3    H123168   0.938   6.672  11.675  0.4582  0.5936 -0.5350
  559TIP3    H223169   1.066   6.721  11.738  1.2676 -0.4483 -1.3227
  560TIP3   OH223170   2.226   5.326  15.648 -0.3759 -0.4006 -0.7971
  560TIP3    H123171   2.255   5.235  15.646 -0.1033 -0.4156  1.2099
  560TIP3    H223172   2.152   5.327  15.709  0.3876  0.8723  0.1780
  561TIP3   OH223173   5.458   0.326   3.965 -0.0577  0.2547 -0.0350
  561TIP3    H123174   5.421   0.238   3.955 -0.1177  0.5160 -3.0833
  561TIP3    H223175   5.411   0.364   4.039 -2.3052 -1.2109 -0.6234
  562TIP3   OH223176   3.392   4.737   5.476 -0.0132  0.2179  0.1689
  562TIP3    H123177   3.468   4.772   5.523  0.8062 -0.2914 -0.7569
  562TIP3    H223178   3.327   4.808   5.480  1.3053  1.5648 -0.9584
  563TIP3   OH223179   1.629   1.863   3.649  0.6027 -0.6633  0.2771
  563TIP3    H123180   1.678   1.854   3.568 -1.1488 -0.8386 -0.8155
  563TIP3    H223181   1.623   1.774   3.684  0.2470 -0.7887 -0.0994
  564TIP3   OH223182   0.355   6.189  11.930 -0.0721 -0.3683 -0.1030
  564TIP3    H123183   0.324   6.149  12.012 -1.0678  0.1836 -0.1960
  564TIP3    H223184   0.317   6.277  11.931  1.0055  0.1160 -0.5369
  565TIP3   OH223185   2.761   0.432  15.526 -0.7790  0.0210 -0.1882
  565TIP3    H123186   2.688   0.395  15.477 -1.6411  0.2618  0.8653
  565TIP3    H223187   2.811   0.356  15.554 -1.7789 -0.3044  0.8006
  566TIP3   OH223188   0.713   4.769  14.361  0.2527 -0.0304  0.3985
  566TIP3    H123189   0.627   4.783  14.401  0.3120  1.5822  0.0208
  566TIP3    H223190   0.768   4.837  14.399  1.1395 -0.4791 -0.0631
  567TIP3   OH223191   5.362   6.460  13.902 -0.3031  0.4542 -0.2267
  567TIP3    H123192   5.373   6.389  13.965  0.6781  1.7332  1.1003
  567TIP3    H223193   5.413   6.433  13.826  0.4313 -0.0477  0.4325
  568TIP3   OH223194   5.579   4.057   5.138  0.1189  0.5487 -0.7149
  568TIP3    H123195   5.509   4.009   5.094  0.1577 -0.0748 -0.1194
  568TIP3    H223196   5.536   4.133   5.176 -0.0884  0.5853 -1.0213
  569TIP3   OH223197   4.491   4.959  15.658  0.3721 -0.3905  0.1215
  569TIP3    H123198   4.426   5.025  15.682  0.6146 -0.9702  2.6488
  569TIP3    H223199   4.487   4.956  15.563 -1.8099  1.0751  0.0798
  570TIP3   OH223200   1.390   4.951  10.457  0.7059  0.1200  1.1445
  570TIP3    H123201   1.456   4.947  10.388 -0.0967 -1.8689  0.4031
  570TIP3    H223202   1.353   5.039  10.450  1.4341  0.3456 -0.2091
  571TIP3   OH223203   6.313   4.516   1.643 -0.0510  0.0711 -0.0534
  571TIP3    H123204   6.255   4.592   1.651 -0.7111 -0.2927 -1.2102
  571TIP3    H223205   6.348   4.503   1.731 -0.3895  1.3535  0.2855
  572TIP3   OH223206   3.471   4.826   2.044 -0.2930 -0.0874 -0.1328
  572TIP3    H123207   3.505   4.755   1.990  0.9349 -0.0784  0.5907
  572TIP3    H223208   3.545   4.852   2.099 -0.1125  3.1007 -1.7213
  573TIP3   OH223209   5.662   5.823   1.591  0.2003  1.2522 -0.0439
  573TIP3    H123210   5.638   5.755   1.528 -0.0661  0.0721  1.2962
  573TIP3    H223211   5.751   5.848   1.566  0.2626  0.5012 -0.6225
  574TIP3   OH223212   4.477   3.177   3.343 -0.0490  0.2152  0.2405
  574TIP3    H123213   4.513   3.100   3.299 -0.7558 -1.4198  2.3255
  574TIP3    H223214   4.448   3.234   3.272 -0.5008 -1.9415 -1.4325
  575TIP3   OH223215   5.258   4.323   2.365 -0.0009  0.4029  0.6291
  575TIP3    H123216   5.224   4.326   2.454 -0.7123  0.0750  0.3720
  575TIP3    H223217   5.185   4.294   2.312  0.8363 -0.8739  0.1389
  576TIP3   OH223218   6.599   6.047  12.631 -0.5923  0.0162 -0.2921
  576TIP3    H123219   6.617   6.136  12.601  1.2797 -1.1229 -2.9241
  576TIP3    H223220   6.503   6.040  12.625 -0.8557  2.0068  0.6442
  577TIP3   OH223221   3.339   3.292  12.364  0.7992 -0.3149  0.2358
  577TIP3    H123222   3.256   3.339  12.370 -0.3204 -2.1261 -0.1260
  577TIP3    H223223   3.372   3.290  12.454  0.9980  1.2934  0.2262
  578TIP3   OH223224   0.843   3.564   5.095 -0.1648  0.1268  0.2438
  578TIP3    H123225   0.766   3.619   5.085  0.4074  1.4022  2.2580
  578TIP3    H223226   0.911   3.608   5.044 -0.0077  0.6526  0.9041
  579TIP3   OH223227   6.704   2.989  16.801  0.1289 -0.1462 -0.0784
  579TIP3    H123228   6.702   2.895  16.822  2.1464  0.1177  1.7339
  579TIP3    H223229   6.751   2.993  16.717  0.0314 -0.7564 -0.1715
  580TIP3   OH223230   2.680   6.572  12.780  0.2279 -0.2163 -0.2715
  580TIP3    H123231   2.679   6.576  12.684  1.6604 -2.2247 -0.4211
  580TIP3    H223232   2.645   6.486  12.801 -1.9476  0.9387  1.1590
  581TIP3   OH223233   0.893   1.953   1.058  0.2234 -0.1610 -0.0170
  581TIP3    H123234   0.836   1.882   1.030 -0.4198  0.2489  0.2237
  581TIP3    H223235   0.833   2.027   1.073  0.5776 -0.2578  2.0551
  582TIP3   OH223236   2.469   6.763   4.822  0.4517 -0.2473 -0.3447
  582TIP3    H123237   2.383   6.753   4.863  0.9856 -0.5734  0.7150
  582TIP3    H223238   2.484   6.680   4.777 -0.1120  0.0939 -1.2053
  583TIP3   OH223239   5.889   1.186   3.253  0.8011 -0.4260  0.4927
  583TIP3    H123240   5.865   1.231   3.334  0.6057 -0.3662  0.4010
  583TIP3    H223241   5.827   1.218   3.188  1.3427 -0.0149  0.1720
  584TIP3   OH223242   2.514   0.210   0.028 -0.5917 -0.0407 -0.3109
  584TIP3    H123243   2.568   0.283  -0.001 -0.0356 -0.1840  0.3363
  584TIP3    H223244   2.577   0.140   0.047 -1.0193 -0.2816  0.2394
  585TIP3   OH223245   0.154   6.280   2.496  0.2526 -0.0878  0.9070
  585TIP3    H123246   0.208   6.214   2.541  0.1937 -2.5836 -2.2792
  585TIP3    H223247   0.065   6.248   2.507  0.1007  0.1719  0.4145
  586TIP3   OH223248   0.655   0.717  10.570  0.2777 -0.4632 -0.0070
  586TIP3    H123249   0.737   0.765  10.582  0.6187 -0.5521 -1.7568
  586TIP3    H223250   0.645   0.666  10.651 -0.1095  2.4768  1.9725
  587TIP3   OH223251   1.966   1.074  12.286 -0.5579 -0.0833  0.0300
  587TIP3    H123252   1.920   1.142  12.335 -1.6638 -0.5045 -0.4070
  587TIP3    H223253   1.961   1.102  12.194  1.3237  0.6002  0.0919
  588TIP3   OH223254   0.495   0.919  14.519 -0.4899  0.0172 -0.2970
  588TIP3    H123255   0.470   1.010  14.502  0.4678  0.4099  0.2853
  588TIP3    H223256   0.588   0.916  14.496  0.1381 -0.1641  2.0206
  589TIP3   OH223257   2.889   5.808   1.505 -0.0812 -0.0998 -0.2501
  589TIP3    H123258   2.800   5.820   1.536  0.3600  0.3660  0.9216
  589TIP3    H223259   2.932   5.892   1.524  1.2428 -1.0988  1.5216
  590TIP3   OH223260   4.492   4.679  13.575  0.0411  0.0956  0.0253
  590TIP3    H123261   4.576   4.642  13.600 -0.2615 -1.3604 -0.9556
  590TIP3    H223262   4.496   4.770  13.603  1.2179 -0.4102  1.6447
  591TIP3   OH223263   6.151   4.302   2.858  0.3721  0.1549 -0.1992
  591TIP3    H123264   6.238   4.285   2.823 -0.7110 -0.7973 -2.6824
  591TIP3    H223265   6.105   4.218   2.849 -0.6068  0.4064  1.8035
  592TIP3   OH223266   2.345   6.799  16.649 -0.3496  0.7727  0.5060
  592TIP3    H123267   2.309   6.716  16.680 -1.1515  0.6286 -0.7212
  592TIP3    H223268   2.269   6.852  16.627  0.1636  1.5603  0.5669
  593TIP3   OH223269   4.843   1.682   0.245  0.1419 -0.2527 -0.6968
  593TIP3    H123270   4.773   1.716   0.300 -2.0698 -3.1253 -1.5381
  593TIP3    H223271   4.911   1.654   0.306  0.0913  1.4153  0.1899
  594TIP3   OH223272   0.409   3.087   0.529  0.3925  0.3993 -0.2212
  594TIP3    H123273   0.431   3.179   0.517  0.1715  0.1651 -2.9824
  594TIP3    H223274   0.490   3.040   0.513  0.2088  0.0298 -0.0915
  595TIP3   OH223275   5.259   1.624   3.193  0.1582 -0.1448 -1.0714
  595TIP3    H123276   5.299   1.703   3.157 -0.4049  1.1317  0.9547
  595TIP3    H223277   5.178   1.613   3.141 -0.2332  1.1730 -0.7718
  596TIP3   OH223278   3.928   3.886  17.002 -0.5383  0.2361  0.6320
  596TIP3    H123279   3.954   3.873  17.093 -1.7537  0.3548  1.0182
  596TIP3    H223280   3.965   3.971  16.978  0.2292 -0.0332  0.8406
  597TIP3   OH223281   6.218   3.268   2.103  0.1400  0.2886 -0.1741
  597TIP3    H123282   6.252   3.198   2.158 -1.1901 -0.0010  0.3254
  597TIP3    H223283   6.145   3.305   2.154 -0.2765  0.8876 -1.1675
  598TIP3   OH223284   5.961   3.304  16.168  0.2088 -0.0307 -0.2124
  598TIP3    H123285   5.900   3.367  16.206  0.2450 -0.6824  0.9866
  598TIP3    H223286   6.044   3.352  16.163  0.3996 -0.1358  1.2947
  599TIP3   OH223287   2.816   4.052   6.205 -0.4193  0.3981  0.2400
  599TIP3    H123288   2.731   4.009   6.191 -0.3090  0.5936 -1.1068
  599TIP3    H223289   2.804   4.141   6.171  0.6321  0.0904 -1.0155
  600TIP3   OH223290   1.713   3.599   1.290  0.4458  0.0368  0.3297
  600TIP3    H123291   1.688   3.640   1.373  0.8898 -2.0259  1.5269
  600TIP3    H223292   1.804   3.626   1.276  0.0203  1.3452 -0.1527
  601TIP3   OH223293   3.365   4.217  14.476 -0.1070 -0.7020 -0.1216
  601TIP3    H123294   3.356   4.307  14.506  0.7080 -0.0798 -1.6889
  601TIP3    H223295   3.317   4.166  14.542  0.2278  0.7502  1.3289
  602TIP3   OH223296   2.223   5.193  11.146  0.2425  0.5328  0.1761
  602TIP3    H123297   2.282   5.128  11.184  1.3004  0.6525 -1.1586
  602TIP3    H223298   2.230   5.179  11.051 -0.8994  1.4081 -0.0595
  603TIP3   OH223299   4.283   3.373   0.406 -0.2783 -0.1448 -0.2587
  603TIP3    H123300   4.188   3.387   0.403 -0.2319  0.1423 -0.4624
  603TIP3    H223301   4.304   3.373   0.500 -0.7730 -2.3845 -0.0907
  604TIP3   OH223302   4.444   0.288   5.258  1.0265  0.3498 -0.2651
  604TIP3    H123303   4.432   0.271   5.165  0.2455 -1.2314  0.0889
  604TIP3    H223304   4.488   0.373   5.261 -1.1747  1.6739 -1.9918
  605TIP3   OH223305   6.759   4.234   4.726 -0.5962  0.1019 -0.3125
  605TIP3    H123306   6.716   4.198   4.649 -0.0487 -1.0705 -0.0979
  605TIP3    H223307   6.719   4.188   4.800 -0.5298  0.6016  0.0418
  606TIP3   OH223308   0.702   2.211   4.089  0.3262  0.2986  0.4965
  606TIP3    H123309   0.608   2.194   4.082  0.0063  1.7132  0.9195
  606TIP3    H223310   0.743   2.126   4.075 -1.0007 -0.2924  0.0072
  607TIP3   OH223311   1.575   0.359   5.542  0.4547 -0.0237  0.2177
  607TIP3    H123312   1.641   0.428   5.547  1.5200 -1.0287  0.6513
  607TIP3    H223313   1.505   0.396   5.489  0.5022  1.7728  1.3324
  608TIP3   OH223314   2.297   4.781  12.355  0.1115  0.0688 -0.2357
  608TIP3    H123315   2.349   4.860  12.341  0.6751 -0.2772 -0.1515
  608TIP3    H223316   2.228   4.786  12.289 -0.6094  1.2370  0.5623
  609TIP3   OH223317   5.130   5.574  11.549 -0.0430 -0.3961  0.4435
  609TIP3    H123318   5.100   5.485  11.570  0.9199 -1.2062 -1.3564
  609TIP3    H223319   5.225   5.568  11.549  0.0579 -0.1267 -2.4011
  610TIP3   OH223320   4.353   4.934  13.151  0.3328 -0.0516  0.7789
  610TIP3    H123321   4.283   4.921  13.087  0.6525 -1.1732  0.6403
  610TIP3    H223322   4.371   5.028  13.148  0.3812 -0.0999 -0.8167
  611TIP3   OH223323   5.835   2.669  16.019 -0.4971  0.4399 -0.2116
  611TIP3    H123324   5.822   2.761  15.996 -2.0194  0.5738  0.9956
  611TIP3    H223325   5.748   2.630  16.008 -1.3339  0.4285  4.5474
  612TIP3   OH223326   6.155   5.112  14.780 -0.4995 -0.0919 -0.5142
  612TIP3    H123327   6.079   5.107  14.838 -1.3945  1.8401 -1.4041
  612TIP3    H223328   6.195   5.197  14.801  0.2992 -0.2441 -1.3597
  613TIP3   OH223329   3.009   4.911   0.655 -0.0809 -0.6681  0.2161
  613TIP3    H123330   3.063   4.873   0.586  0.7090 -1.1341  1.0781
  613TIP3    H223331   2.938   4.956   0.608  0.8585 -0.3308 -0.9129
  614TIP3   OH223332   0.818   5.873   5.468 -0.5773  0.2099  0.8977
  614TIP3    H123333   0.904   5.845   5.434  0.0745  0.2857  2.4168
  614TIP3    H223334   0.805   5.961   5.430 -0.2043  0.0177  0.3037
  615TIP3   OH223335   4.508   6.498   3.072  0.1284  0.3909  0.4703
  615TIP3    H123336   4.422   6.482   3.032  0.5258 -1.3193  0.2118
  615TIP3    H223337   4.570   6.491   2.999  0.6232 -0.0420  0.9254
  616TIP3   OH223338   6.743   0.449  16.828  0.1768  0.2937 -0.4360
  616TIP3    H123339   6.775   0.462  16.917 -0.8013 -0.4329  0.0391
  616TIP3    H223340   6.662   0.501  16.824  0.6187  0.9564 -1.1678
  617TIP3   OH223341   0.852   0.872  12.881  0.6136  0.4948 -0.2492
  617TIP3    H123342   0.773   0.917  12.852 -0.6448  0.5852  2.9249
  617TIP3    H223343   0.844   0.784  12.844 -0.7795  0.6205 -0.3081
  618TIP3   OH223344   3.759   0.660  15.998  0.2603  0.0586  0.1567
  618TIP3    H123345   3.720   0.697  16.078  1.8679 -0.7849  1.3957
  618TIP3    H223346   3.845   0.701  15.993  0.2034  0.0694 -1.1682
  619TIP3   OH223347   2.142   5.440   6.716  0.1188  0.2084  0.2182
  619TIP3    H123348   2.087   5.382   6.769  0.7752  0.4812  1.2286
  619TIP3    H223349   2.135   5.404   6.627 -1.7005  0.2679  0.3019
  620TIP3   OH223350   1.020   4.383   0.638 -0.5239  0.2127  0.4447
  620TIP3    H123351   1.116   4.387   0.634 -0.5222 -0.3804 -0.0983
  620TIP3    H223352   0.999   4.425   0.722  0.0878  2.0541 -0.2757
  621TIP3   OH223353   3.240   3.901   6.272 -0.3517 -0.1684  0.4874
  621TIP3    H123354   3.316   3.956   6.250 -1.1372  1.0767  0.8003
  621TIP3    H223355   3.264   3.814   6.239  0.4519  0.6000 -1.0886
  622TIP3   OH223356   5.861   6.830  13.692 -0.5795  0.5257 -0.1524
  622TIP3    H123357   5.802   6.775  13.744 -1.8345 -0.3964 -2.4037
  622TIP3    H223358   5.865   6.786  13.607  0.7721  2.3680 -1.0896
  623TIP3   OH223359   4.275   0.419  13.708 -0.4625  0.0806 -0.1470
  623TIP3    H123360   4.298   0.509  13.731  2.3189 -0.4223 -0.6870
  623TIP3    H223361   4.242   0.381  13.790 -0.8468  1.3018  0.2920
  624TIP3   OH223362   6.167   1.347   5.537  0.3012 -0.0239 -0.2491
  624TIP3    H123363   6.093   1.288   5.552  0.4247 -0.3936 -1.0727
  624TIP3    H223364   6.233   1.318   5.600 -0.1325  0.1097  0.2764
  625TIP3   OH223365   6.716   1.199  15.715  0.1254  0.7425  0.0508
  625TIP3    H123366   6.718   1.255  15.792 -1.4087  1.4997 -0.4245
  625TIP3    H223367   6.659   1.126  15.740  0.5996  0.3569  0.0263
  626TIP3   OH223368   0.832   4.603   3.821  0.1177 -0.0806  0.6203
  626TIP3    H123369   0.904   4.543   3.845 -0.1198 -0.9094 -0.6143
  626TIP3    H223370   0.850   4.625   3.729 -1.5393 -0.8237  0.0856
  627TIP3   OH223371   5.826   5.281   4.695  0.3537  0.2031  0.8350
  627TIP3    H123372   5.784   5.263   4.612 -0.5001 -0.5992  1.4242
  627TIP3    H223373   5.918   5.256   4.682  0.4246  0.8863 -0.1052
  628TIP3   OH223374   1.234   2.332  13.342  0.2246  0.1734 -0.6978
  628TIP3    H123375   1.199   2.283  13.267  1.5399 -2.4789  0.3124
  628TIP3    H223376   1.327   2.309  13.345  0.6700  1.9483  0.5008
  629TIP3   OH223377   4.540   3.678   4.738 -0.0856 -0.4792  0.2647
  629TIP3    H123378   4.585   3.688   4.822  1.4369  0.6472 -0.6510
  629TIP3    H223379   4.456   3.722   4.751 -1.0828 -2.6935  2.0236
  630TIP3   OH223380   4.805   0.408   1.510  0.3728 -0.3958  0.3776
  630TIP3    H123381   4.808   0.346   1.437  1.5476 -0.2753  0.3069
  630TIP3    H223382   4.868   0.476   1.486 -1.1222  1.0441  0.2817
  631TIP3   OH223383   0.475   5.803   6.007 -0.1427 -0.5353 -0.5258
  631TIP3    H123384   0.465   5.873   5.942 -0.4510 -0.2368 -0.1558
  631TIP3    H223385   0.543   5.746   5.970  1.1138  0.6946 -0.1780
  632TIP3   OH223386   0.929   3.695  15.354  0.2324  0.2333 -0.1272
  632TIP3    H123387   0.967   3.761  15.296  0.7867  2.8161  2.8486
  632TIP3    H223388   0.943   3.612  15.309  2.8868  1.7543 -2.4579
  633TIP3   OH223389   2.587   5.645   0.922  0.0368  0.1116 -0.1102
  633TIP3    H123390   2.667   5.684   0.958  1.2970 -2.3940  0.0953
  633TIP3    H223391   2.534   5.625   1.000 -0.2179  0.6316 -0.1499
  634TIP3   OH223392   1.008   1.874  11.739  0.4347 -0.3740 -0.9680
  634TIP3    H123393   0.984   1.790  11.700  0.2844 -0.7255 -0.1270
  634TIP3    H223394   1.025   1.854  11.831 -1.7649  0.8933 -0.2358
  635TIP3   OH223395   3.548   0.202  17.072 -0.1337 -0.5592  0.5647
  635TIP3    H123396   3.508   0.237  17.151 -0.3776  2.5891 -0.8266
  635TIP3    H223397   3.638   0.181  17.098  0.4763  2.4977  1.2406
  636TIP3   OH223398   5.007   1.211  11.182 -0.1298 -0.1337  0.4277
  636TIP3    H123399   5.065   1.172  11.117  0.2251 -1.0063  1.2392
  636TIP3    H223400   4.978   1.137  11.236  0.5782  0.7054  2.0258
  637TIP3   OH223401   5.358   2.632   4.686  0.1249 -0.1561  0.1436
  637TIP3    H123402   5.343   2.539   4.704  2.1476 -0.4227  0.5806
  637TIP3    H223403   5.284   2.657   4.630  0.3224 -2.4060 -1.2427
  638TIP3   OH223404   4.350   3.932   1.347 -0.0205  0.2193  0.2258
  638TIP3    H123405   4.266   3.917   1.302  0.0083 -0.7270  0.4569
  638TIP3    H223406   4.412   3.948   1.276 -0.2304  0.0283 -0.0074
  639TIP3   OH223407   3.894   2.264  16.705 -0.2425 -0.1222 -0.6064
  639TIP3    H123408   3.967   2.321  16.680 -0.5124  0.2274 -0.6012
  639TIP3    H223409   3.929   2.175  16.695  0.2345  0.0440 -0.4501
  640TIP3   OH223410   0.245   4.202   0.006  0.8049  0.3514  0.3028
  640TIP3    H123411   0.293   4.120   0.021 -0.4546 -0.3067  0.8229
  640TIP3    H223412   0.157   4.174  -0.017  0.4462  1.5688  0.1514
  641TIP3   OH223413   5.064   6.028   5.952  0.0446  0.1093  0.7886
  641TIP3    H123414   5.094   6.101   6.006  0.1742  0.7857 -0.1656
  641TIP3    H223415   5.011   5.975   6.011  0.6282  0.5237  1.7168
  642TIP3   OH223416   5.959   1.910  16.472  0.3559 -0.2045 -0.2622
  642TIP3    H123417   5.967   1.943  16.561  0.4738 -0.3700 -0.2123
  642TIP3    H223418   6.021   1.962  16.421  0.3718 -0.1894 -0.2280
  643TIP3   OH223419   1.557   4.713   5.763 -0.7776  0.4122 -0.0996
  643TIP3    H123420   1.547   4.658   5.841  1.1296 -0.9240 -0.7229
  643TIP3    H223421   1.552   4.652   5.689  1.8540  0.9043 -0.7986
  644TIP3   OH223422   3.961   0.086  12.780  0.0213  0.1808  0.6015
  644TIP3    H123423   4.014   0.006  12.789  0.7374  0.5551 -0.1287
  644TIP3    H223424   3.871   0.054  12.779  0.1752 -0.4272  2.3781
  645TIP3   OH223425   1.566   1.525   3.374  0.1299 -0.1226  0.2176
  645TIP3    H123426   1.486   1.555   3.332 -0.8903 -0.9739  1.4609
  645TIP3    H223427   1.631   1.592   3.354 -0.1925 -0.5802 -2.8501
  646TIP3   OH223428   6.591   4.341  16.703  0.1998 -0.0570 -0.7508
  646TIP3    H123429   6.673   4.390  16.702 -0.1871  0.6643  0.3543
  646TIP3    H223430   6.570   4.332  16.796 -0.3357 -1.3280 -0.9771
  647TIP3   OH223431   1.756   6.454   3.497  0.0127 -0.1654 -0.4033
  647TIP3    H123432   1.668   6.470   3.532  0.4266  1.0168  0.1319
  647TIP3    H223433   1.816   6.486   3.564  0.8859 -1.4855 -0.5126
  648TIP3   OH223434   1.906   4.403   0.199 -0.4395  0.4563 -0.1964
  648TIP3    H123435   1.980   4.346   0.221 -1.7352 -1.2204  0.0039
  648TIP3    H223436   1.900   4.464   0.273  1.0057  0.9453 -0.4421
  649TIP3   OH223437   5.607   2.205  13.608  0.2860  0.3325 -0.4428
  649TIP3    H123438   5.589   2.139  13.675 -0.1199  0.7811 -0.1017
  649TIP3    H223439   5.682   2.254  13.642  0.0293  0.6120 -0.2764
  650TIP3   OH223440   4.412   4.244   3.038 -0.0404 -0.1159  1.1632
  650TIP3    H123441   4.390   4.263   2.947 -0.1918 -1.3464  0.9226
  650TIP3    H223442   4.341   4.188   3.069  0.9087 -1.1831  1.4785
  651TIP3   OH223443   0.883   3.272   6.445 -0.0249  0.3826 -0.0567
  651TIP3    H123444   0.906   3.195   6.497 -0.2837  1.1512  1.2155
  651TIP3    H223445   0.961   3.328   6.450  0.0764  0.3273 -0.7947
  652TIP3   OH223446   6.774   5.680   2.484 -0.1529  0.2947  0.3274
  652TIP3    H123447   6.777   5.631   2.402  0.2290  0.6562  0.1224
  652TIP3    H223448   6.706   5.636   2.535  1.0026 -1.1864  0.6272
  653TIP3   OH223449   0.208   2.914  14.270  0.0975  0.0140  0.3122
  653TIP3    H123450   0.157   2.841  14.233  0.0481 -0.1993  0.7967
  653TIP3    H223451   0.180   2.990  14.219 -2.6440  0.4093  2.1957
  654TIP3   OH223452   5.720   1.588  11.450 -0.0536  0.4112  0.1167
  654TIP3    H123453   5.642   1.608  11.501  0.3295  2.3400  0.0406
  654TIP3    H223454   5.780   1.661  11.469  1.9539 -1.2790  0.5933
  655TIP3   OH223455   2.997   0.074  16.151  0.0422 -0.1497 -0.1609
  655TIP3    H123456   2.963   0.028  16.227 -2.6416  1.4759 -0.2581
  655TIP3    H223457   3.046   0.147  16.187  0.9619 -0.8128 -0.0295
  656TIP3   OH223458   1.979   5.476  14.657  0.1765  0.4335 -0.7052
  656TIP3    H123459   2.057   5.475  14.601  0.1936 -1.4963 -0.7184
  656TIP3    H223460   1.921   5.410  14.618 -0.2700 -0.1688  0.9187
  657TIP3   OH223461   6.315   3.499  14.181 -0.1546  0.4521 -0.4441
  657TIP3    H123462   6.331   3.407  14.161 -0.3494 -0.1229  1.8046
  657TIP3    H223463   6.221   3.511  14.168 -0.2296  0.1691 -0.1768
  658TIP3   OH223464   6.565   0.624   3.224 -0.0919  0.2996  0.0388
  658TIP3    H123465   6.582   0.718   3.227  0.9364  0.1650 -0.8706
  658TIP3    H223466   6.559   0.604   3.131 -0.3825 -0.5286  0.2254
  659TIP3   OH223467   4.412   1.580   1.440  0.1801 -0.1838 -0.4438
  659TIP3    H123468   4.498   1.564   1.401  0.4779 -0.5279  0.3268
  659TIP3    H223469   4.420   1.547   1.530 -0.1882  1.4594  0.2240
  660TIP3   OH223470   6.628   0.306   3.461 -0.0313  0.4366  0.2147
  660TIP3    H123471   6.596   0.395   3.450  0.8357  0.5600 -1.7095
  660TIP3    H223472   6.583   0.255   3.393  0.4818 -0.3153  0.4172
  661TIP3   OH223473   1.841   5.694  12.819 -0.7489  0.4920 -0.3125
  661TIP3    H123474   1.817   5.719  12.908  0.1921  1.6527 -0.3536
  661TIP3    H223475   1.933   5.720  12.811 -0.1546 -1.5924 -0.9228
  662TIP3   OH223476   6.403   5.112  15.991  0.5178  0.5760  0.2571
  662TIP3    H123477   6.357   5.140  16.070  1.7435  0.7138  0.9496
  662TIP3    H223478   6.353   5.037  15.959  0.3009  0.1878  1.4725
  663TIP3   OH223479   5.454   1.935   6.610  0.8224 -0.7814 -0.2229
  663TIP3    H123480   5.448   1.996   6.684  0.6254 -1.8330  0.6609
  663TIP3    H223481   5.365   1.932   6.575  1.1052  0.4080 -1.1008
  664TIP3   OH223482   3.367   4.743  14.969  0.3878  0.1767  0.1033
  664TIP3    H123483   3.369   4.838  14.957 -0.7149  0.9407  4.3348
  664TIP3    H223484   3.456   4.721  14.998  0.5022 -0.0199 -0.3861
  665TIP3   OH223485   3.195   5.142  16.536 -0.7836  0.3525  0.1399
  665TIP3    H123486   3.246   5.085  16.594 -1.0805  0.3970  0.4441
  665TIP3    H223487   3.108   5.102  16.534 -0.3662 -0.5915 -1.5641
  666TIP3   OH223488   5.234   4.054  12.319  0.1340 -0.0696  0.0240
  666TIP3    H123489   5.148   4.094  12.310  0.3349 -0.0353 -2.2785
  666TIP3    H223490   5.257   4.067  12.411 -1.6695  1.2135  0.3472
  667TIP3   OH223491   1.812   6.760  10.965  0.3635  0.2806 -0.3610
  667TIP3    H123492   1.854   6.674  10.968  0.1645  0.2053  0.7179
  667TIP3    H223493   1.880   6.820  10.935  0.9465 -0.0104  0.3609
  668TIP3   OH223494   5.608   1.205   1.941  0.0919 -0.2097 -0.1105
  668TIP3    H123495   5.613   1.150   1.863 -1.9502 -0.7926  0.1211
  668TIP3    H223496   5.529   1.258   1.929  0.6117  0.8353  0.8492
  669TIP3   OH223497   6.558   0.568  15.359 -0.0010  0.0104 -0.0622
  669TIP3    H123498   6.468   0.542  15.377  0.2385 -2.4909 -1.8778
  669TIP3    H223499   6.587   0.612  15.438 -2.1918 -0.9022  1.3353
  670TIP3   OH223500   4.030   3.615  14.853  0.0961  0.5490 -0.2370
  670TIP3    H123501   4.009   3.527  14.884  1.6148  0.5505  0.9130
  670TIP3    H223502   3.975   3.673  14.906  0.7375  0.3949  0.6235
  671TIP3   OH223503   4.404   1.865   4.745 -0.4462 -0.0257  0.2273
  671TIP3    H123504   4.497   1.871   4.766 -0.3424  0.0294 -0.2499
  671TIP3    H223505   4.395   1.907   4.660 -0.8912 -0.1222  0.2225
  672TIP3   OH223506   3.157   5.164   5.629 -0.0073 -0.0445  0.2624
  672TIP3    H123507   3.176   5.114   5.550  0.0622  0.0692  0.2066
  672TIP3    H223508   3.129   5.250   5.597  0.7382  0.2461  0.3793
  673TIP3   OH223509   3.960   0.480  10.770  0.1264 -0.0661  0.0860
  673TIP3    H123510   4.021   0.485  10.697  1.5063 -0.8596  1.1354
  673TIP3    H223511   3.936   0.387  10.775 -1.4050  0.2680 -0.4660
  674TIP3   OH223512   5.399   3.188   2.228  0.2217  0.2659 -0.0113
  674TIP3    H123513   5.467   3.136   2.271  2.0155  1.5405 -1.1731
  674TIP3    H223514   5.435   3.277   2.226  0.2142  0.3231 -3.9291
  675TIP3   OH223515   1.474   4.314  16.099 -0.4430 -0.3180 -0.0724
  675TIP3    H123516   1.482   4.291  16.191  2.0165 -0.8351 -0.3585
  675TIP3    H223517   1.430   4.239  16.059 -2.2226  0.2321  0.7359
  676TIP3   OH223518   2.772   4.680   0.525  0.3175  0.4619 -0.8110
  676TIP3    H123519   2.792   4.747   0.460 -0.2652  0.2888 -1.1835
  676TIP3    H223520   2.823   4.705   0.602  0.2131  1.2547 -0.9858
  677TIP3   OH223521   5.662   0.352   6.052 -0.5382 -0.0949 -0.2857
  677TIP3    H123522   5.600   0.363   5.979 -0.0398 -2.1432 -1.1043
  677TIP3    H223523   5.675   0.257   6.057  1.8720  0.2256  0.4249
  678TIP3   OH223524   0.181   0.921  15.863 -0.0782 -0.0104  0.9605
  678TIP3    H123525   0.233   0.858  15.912  0.0352 -0.7938 -0.1248
  678TIP3    H223526   0.175   0.884  15.775  1.6903  2.4263 -0.3174
  679TIP3   OH223527   5.192   5.043   1.381  0.3019 -0.2822 -0.0581
  679TIP3    H123528   5.097   5.032   1.373  0.4410 -1.3869 -0.3831
  679TIP3    H223529   5.222   5.065   1.293  0.4310 -0.7021 -0.1224
  680TIP3   OH223530   3.348   1.316  11.302  0.2616  0.9524 -0.8481
  680TIP3    H123531   3.294   1.338  11.227 -0.0049 -0.3131 -1.0472
  680TIP3    H223532   3.434   1.353  11.282 -0.4393  2.8253 -0.6084
  681TIP3   OH223533   2.271   0.966   1.916  0.1600  0.0023  0.6813
  681TIP3    H123534   2.326   1.019   1.974 -1.3607  1.1830  1.0897
  681TIP3    H223535   2.332   0.903   1.877  1.8450  1.4346  0.8913
  682TIP3   OH223536   1.064   5.694   4.063  0.0767 -0.4041 -0.3147
  682TIP3    H123537   1.119   5.645   4.124  1.0731  0.3123 -0.6057
  682TIP3    H223538   1.125   5.749   4.014 -1.0420  1.6633  0.4963
  683TIP3   OH223539   4.062   4.181  12.063 -0.0579 -0.2335 -0.0823
  683TIP3    H123540   3.981   4.163  12.111 -0.4917 -1.2869 -1.1638
  683TIP3    H223541   4.117   4.105  12.078  0.2013 -0.1217 -0.4282
  684TIP3   OH223542   6.608   0.066  12.531  0.4036  0.2251  0.3263
  684TIP3    H123543   6.687   0.096  12.485  0.0540  0.7852  0.0742
  684TIP3    H223544   6.544   0.050  12.462 -0.2394  1.4173  0.6098
  685TIP3   OH223545   2.952   3.296   3.124 -0.3109 -0.0841  0.6142
  685TIP3    H123546   3.040   3.305   3.086 -0.8479 -0.6542 -0.8652
  685TIP3    H223547   2.965   3.245   3.204  0.8026  0.6002  0.8846
  686TIP3   OH223548   2.062   6.623   6.217  0.1228  0.1770  0.2520
  686TIP3    H123549   2.000   6.573   6.164  0.4764  0.1516 -0.1448
  686TIP3    H223550   2.012   6.649   6.295 -0.2392 -0.2636  0.1694
  687TIP3   OH223551   4.177   3.163   0.641 -0.6709  0.0916  0.3331
  687TIP3    H123552   4.101   3.124   0.598 -0.6183  0.0029  0.3187
  687TIP3    H223553   4.140   3.219   0.709 -0.7639  0.6051 -0.1395
  688TIP3   OH223554   5.324   0.244   1.243 -0.4145  0.2289  0.0958
  688TIP3    H123555   5.326   0.334   1.212 -2.0489 -0.1122 -1.1235
  688TIP3    H223556   5.414   0.213   1.233  0.1902  1.7196  0.6085
  689TIP3   OH223557   5.382   4.181   0.287 -0.0027 -0.1505 -0.1595
  689TIP3    H123558   5.293   4.183   0.322  0.5151  1.3454  1.1995
  689TIP3    H223559   5.384   4.255   0.226 -0.0157 -0.9282 -1.1338
  690TIP3   OH223560   5.245   6.312   5.330  0.3524 -0.3104 -0.7180
  690TIP3    H123561   5.241   6.390   5.274  1.9963  0.7164  0.4932
  690TIP3    H223562   5.336   6.284   5.325  0.0463 -1.4471 -0.1819
  691TIP3   OH223563   4.702   3.026   2.102  0.4844 -0.0968  0.2622
  691TIP3    H123564   4.637   2.979   2.154  0.6323 -1.5323 -0.7961
  691TIP3    H223565   4.729   2.964   2.035  1.4973  1.1513 -0.5394
  692TIP3   OH223566   4.513   0.239  15.143 -0.1061 -0.2162  0.3218
  692TIP3    H123567   4.518   0.271  15.233  0.9002  0.9984 -0.1370
  692TIP3    H223568   4.592   0.186  15.132  0.7183  1.0661 -0.3292
  693TIP3   OH223569   0.780   5.147  13.921  0.1682 -0.4511  0.1550
  693TIP3    H123570   0.867   5.181  13.901 -0.0005 -0.8176 -1.3332
  693TIP3    H223571   0.775   5.148  14.017  2.0887 -1.1051  0.3071
  694TIP3   OH223572   5.980   0.644   2.078  0.8183  0.1858 -0.6988
  694TIP3    H123573   5.910   0.698   2.114  1.1961 -0.4478  1.1052
  694TIP3    H223574   6.012   0.693   2.003  1.7201  2.9613  1.3040
  695TIP3   OH223575   1.000   6.126  15.920  0.1010 -0.4481 -0.5591
  695TIP3    H123576   1.066   6.057  15.920  0.3429 -0.2614  1.0027
  695TIP3    H223577   0.919   6.083  15.947  0.2753 -0.1480  0.5275
  696TIP3   OH223578   2.761   4.072   1.994  0.0928  0.6681 -0.5680
  696TIP3    H123579   2.721   3.989   2.016  0.2975  0.3185 -1.4566
  696TIP3    H223580   2.691   4.122   1.951 -0.3022  1.3384  0.8157
  697TIP3   OH223581   3.460   0.726   5.323  0.0224  0.8771  0.5190
  697TIP3    H123582   3.392   0.745   5.258  2.7370  1.4064 -2.4301
  697TIP3    H223583   3.457   0.631   5.334 -1.3897  0.9310  0.7354
  698TIP3   OH223584   5.529   2.734   0.549 -0.1253  0.2455 -0.0268
  698TIP3    H123585   5.566   2.811   0.506 -1.0075  1.3246  1.0730
  698TIP3    H223586   5.601   2.697   0.600  0.7887 -0.7417 -1.9155
  699TIP3   OH223587   3.806   3.793   5.765  0.4798  0.0777  0.0171
  699TIP3    H123588   3.714   3.780   5.788  0.9340 -0.8430  1.4822
  699TIP3    H223589   3.851   3.721   5.809  1.8876  0.4672 -0.7550
  700TIP3   OH223590   0.272   5.666   0.337  0.0076 -0.0178  0.5445
  700TIP3    H123591   0.227   5.587   0.368 -2.1727  0.8185 -0.3166
  700TIP3    H223592   0.236   5.736   0.391  1.2527  0.5190  0.6881
  701TIP3   OH223593   6.058   0.055   1.481 -0.3469  0.0623 -0.4593
  701TIP3    H123594   6.042  -0.014   1.417  0.4780 -0.2543 -0.3381
  701TIP3    H223595   6.049   0.012   1.566  0.8192 -0.0669 -0.3847
  702TIP3   OH223596   4.314   2.502  14.659 -0.0187 -0.0654 -0.5565
  702TIP3    H123597   4.281   2.548  14.736 -0.1508 -0.2200 -0.5204
  702TIP3    H223598   4.382   2.444  14.692  0.0448 -0.0035 -0.5805
  703TIP3   OH223599   0.746   6.331  12.544 -0.0377  0.2457 -0.9083
  703TIP3    H123600   0.752   6.290  12.631  0.0666 -3.4241 -2.4590
  703TIP3    H223601   0.680   6.400  12.555  1.5653  1.4923  2.5342
  704TIP3   OH223602   4.384   1.699   0.659 -0.4985 -0.0707  0.5341
  704TIP3    H123603   4.360   1.763   0.726 -0.8724 -0.8911  1.2043
  704TIP3    H223604   4.383   1.748   0.577 -0.6977  0.7947  1.0426
  705TIP3   OH223605   6.305   3.261   0.508  0.1827 -0.7671  0.4029
  705TIP3    H123606   6.370   3.255   0.438  1.8745 -0.9647  1.9055
  705TIP3    H223607   6.276   3.171   0.522 -1.0453 -0.5818 -0.7935
  706TIP3   OH223608   4.545   3.417  15.578  0.1502  0.3362 -0.0691
  706TIP3    H123609   4.571   3.360  15.506  0.1298  1.0363 -0.6385
  706TIP3    H223610   4.454   3.393  15.596  1.4028 -3.1305  2.8733
  707TIP3   OH223611   3.766   4.370   5.059 -0.1873  0.3282  0.2878
  707TIP3    H123612   3.770   4.465   5.052 -0.6133  0.4586  1.6576
  707TIP3    H223613   3.851   4.344   5.094  1.1804 -0.1442 -3.0193
  708TIP3   OH223614   0.883   1.488  17.077  0.3983 -0.0238 -0.3223
  708TIP3    H123615   0.955   1.491  17.013  2.0895 -1.5043  1.3934
  708TIP3    H223616   0.848   1.399  17.070  0.1059  0.0376  0.2759
  709TIP3   OH223617   6.020   3.145   1.144  0.1665 -0.0281  0.0336
  709TIP3    H123618   6.040   3.120   1.053 -0.8439 -0.8970  0.0321
  709TIP3    H223619   6.092   3.109   1.195 -0.6079 -1.9607 -0.1233
  710TIP3   OH223620   3.084   0.933  14.236 -0.1128  0.0517 -0.2459
  710TIP3    H123621   3.103   0.839  14.226  0.5841 -0.0047  1.2337
  710TIP3    H223622   3.154   0.976  14.187 -0.5659 -0.1925 -1.1241
  711TIP3   OH223623   2.707   0.888   4.065  0.2398 -0.3387  0.1077
  711TIP3    H123624   2.714   0.943   4.143  2.8263 -0.0577 -0.2517
  711TIP3    H223625   2.644   0.934   4.009  0.5723  1.0172  0.8099
  712TIP3   OH223626   4.319   2.342   0.014 -0.7258  0.1831 -0.4210
  712TIP3    H123627   4.239   2.395   0.013 -0.9496 -0.0815  1.0105
  712TIP3    H223628   4.296   2.265   0.066  0.7078  0.5306  0.7797
  713TIP3   OH223629   3.869   5.125   0.371  0.0074  0.2448  0.1990
  713TIP3    H123630   3.873   5.180   0.449 -0.8153 -0.2604  0.6102
  713TIP3    H223631   3.870   5.187   0.298  0.2905  0.7432  0.6204
  714TIP3   OH223632   4.430   2.002   2.533  0.1113 -0.2160  0.4603
  714TIP3    H123633   4.409   2.079   2.480 -1.0126  0.3001  1.6075
  714TIP3    H223634   4.487   2.036   2.602  0.8160 -0.7085  0.1318
  715TIP3   OH223635   2.527   1.830   2.979  0.3115 -0.6413  0.0447
  715TIP3    H123636   2.493   1.763   2.920 -0.7045 -0.9312  0.9297
  715TIP3    H223637   2.567   1.895   2.921 -2.1849 -0.0281 -1.1429
  716TIP3   OH223638   2.426   2.014  15.176  0.3752  0.0124  0.2704
  716TIP3    H123639   2.361   1.955  15.137  0.1682  1.4629 -1.7116
  716TIP3    H223640   2.375   2.086  15.212  0.5836 -1.1533  3.2048
  717TIP3   OH223641   1.803   1.927  14.673  0.0703  0.5468 -0.3742
  717TIP3    H123642   1.768   2.016  14.676  0.4660  0.7380 -1.2174
  717TIP3    H223643   1.893   1.937  14.641 -0.0261 -0.1868 -0.9090
  718TIP3   OH223644   4.672   3.089  12.581 -0.4534  0.0119  0.1841
  718TIP3    H123645   4.758   3.078  12.540 -1.1033 -1.4151 -0.8983
  718TIP3    H223646   4.650   3.002  12.614 -1.7444  0.2089 -0.0884
  719TIP3   OH223647   2.559   0.241   3.266 -0.1553 -0.2200 -0.0274
  719TIP3    H123648   2.636   0.186   3.252 -0.1335  0.3389 -2.4828
  719TIP3    H223649   2.587   0.304   3.333  1.2092 -0.5823 -0.2300
  720TIP3   OH223650   2.367   1.414   3.102 -0.3952  0.1149  0.5738
  720TIP3    H123651   2.346   1.350   3.034 -0.9946  0.6743  0.2257
  720TIP3    H223652   2.319   1.493   3.077  2.0104  1.4371 -0.1897
  721TIP3   OH223653   2.452   3.938  13.064  0.4097  0.2630 -0.7225
  721TIP3    H123654   2.400   3.982  13.131  1.2315  3.3679 -1.9435
  721TIP3    H223655   2.542   3.965  13.081  0.8709 -0.4023 -1.9564
  722TIP3   OH223656   0.741   1.077   0.117  0.1973 -0.1028  0.0847
  722TIP3    H123657   0.687   1.009   0.077 -0.1483  0.0447  0.2882
  722TIP3    H223658   0.790   1.033   0.187 -0.6324  0.0018  0.7557
  723TIP3   OH223659   4.233   6.363  12.117  0.4447 -0.6807  0.4782
  723TIP3    H123660   4.194   6.446  12.145 -0.6346 -0.8556 -0.4116
  723TIP3    H223661   4.161   6.300  12.122  0.7527 -1.1507 -0.6005
  724TIP3   OH223662   0.987   5.981   2.891 -0.0956 -0.3530 -0.2522
  724TIP3    H123663   0.991   6.071   2.923 -0.6208  0.1622 -1.6070
  724TIP3    H223664   1.079   5.956   2.878  0.0769 -0.2233  0.6538
  725TIP3   OH223665   2.483   0.994  10.255 -0.1643 -0.4264  0.5183
  725TIP3    H123666   2.563   1.018  10.209  0.5262 -0.2204  1.7941
  725TIP3    H223667   2.496   0.903  10.280  0.1742 -0.0554  1.7315
  726TIP3   OH223668   5.351   4.677  14.222 -0.2982 -0.1443 -0.0611
  726TIP3    H123669   5.368   4.594  14.268 -0.5173 -0.1653 -0.0165
  726TIP3    H223670   5.261   4.699  14.245 -0.4995 -0.2912 -0.6927
  727TIP3   OH223671   6.802   0.281   3.682  0.1386 -0.4875  0.2750
  727TIP3    H123672   6.751   0.235   3.749  0.2411  0.5070  1.0580
  727TIP3    H223673   6.738   0.306   3.616 -0.3362  0.4009  1.0561
  728TIP3   OH223674   1.060   3.269   3.441 -0.0851  0.3607  0.2904
  728TIP3    H123675   1.103   3.196   3.396  1.4638 -0.1856  2.4829
  728TIP3    H223676   1.048   3.335   3.373 -0.3518 -1.4106 -1.4810
  729TIP3   OH223677   0.606   2.188  17.062  0.1788 -0.1446 -0.0454
  729TIP3    H123678   0.535   2.222  17.116  1.4210  1.1197  0.8345
  729TIP3    H223679   0.626   2.259  17.001  1.0226 -0.3071  0.0375
  730TIP3   OH223680   0.343   0.545  15.198 -0.4362  0.3413 -0.6665
  730TIP3    H123681   0.323   0.459  15.160 -1.0239  1.0281 -1.9668
  730TIP3    H223682   0.307   0.608  15.136 -1.7285  1.5413  1.2075
  731TIP3   OH223683   0.846   3.180  14.936 -0.2525  0.0360  0.3784
  731TIP3    H123684   0.845   3.248  15.004 -0.5110 -0.1320  0.5440
  731TIP3    H223685   0.828   3.099  14.984  1.4377 -0.3666  0.4166
  732TIP3   OH223686   4.352   4.433  17.150 -0.0845 -0.2989  0.3545
  732TIP3    H123687   4.372   4.486  17.227  3.0409 -1.7075  0.6443
  732TIP3    H223688   4.436   4.417  17.108 -1.3845 -1.7084 -1.9779
  733TIP3   OH223689   3.312   3.752  10.775  0.0203 -0.3200  0.0915
  733TIP3    H123690   3.295   3.692  10.702 -0.2059 -1.1757  0.8219
  733TIP3    H223691   3.227   3.792  10.793  0.4060  1.1325 -1.1491
  734TIP3   OH223692   5.058   5.483   1.252 -0.2590  0.2344 -0.5031
  734TIP3    H123693   5.096   5.418   1.311  0.3458  0.0241 -1.1083
  734TIP3    H223694   5.004   5.539   1.309  0.8059  0.4212  0.3528
  735TIP3   OH223695   6.393   5.241   0.097 -0.0937 -0.2338 -0.2280
  735TIP3    H123696   6.473   5.292   0.107 -0.7478  0.9428 -0.7336
  735TIP3    H223697   6.420   5.150   0.107  1.0297  0.2233  1.2081
  736TIP3   OH223698   1.816   0.104   4.182  0.1394 -0.0692 -0.6027
  736TIP3    H123699   1.828   0.071   4.271 -0.1912  2.2091  0.3471
  736TIP3    H223700   1.722   0.122   4.176  0.2110  0.0782 -1.3156
  737TIP3   OH223701   5.476   1.263   0.496 -0.0172 -0.0055 -0.3689
  737TIP3    H123702   5.400   1.274   0.439 -1.1432  1.5101  1.3248
  737TIP3    H223703   5.460   1.181   0.543 -1.8516  1.4003  1.6419
  738TIP3   OH223704   2.247   6.070   6.137  0.0020 -0.5732 -0.0958
  738TIP3    H123705   2.236   6.147   6.193  2.7728 -0.8590  0.9846
  738TIP3    H223706   2.158   6.039   6.121 -1.0561  1.5424  1.2886
  739TIP3   OH223707   1.092   2.478  12.152  0.0147 -0.0536  0.6768
  739TIP3    H123708   1.158   2.546  12.137 -0.1708 -0.2957 -1.5595
  739TIP3    H223709   1.018   2.525  12.191 -0.8376  1.5003 -2.4921
  740TIP3   OH223710   5.588   4.766  11.425  0.1687  0.4093 -0.3478
  740TIP3    H123711   5.635   4.807  11.352  0.6726  1.3594  0.4742
  740TIP3    H223712   5.649   4.702  11.461 -0.0106  0.0717 -0.6397
  741TIP3   OH223713   0.087   1.119   4.874  0.4009 -0.6967  0.2081
  741TIP3    H123714   0.118   1.053   4.813  0.1869  1.6337 -2.6987
  741TIP3    H223715   0.155   1.187   4.873 -0.0008 -0.2112  1.9849
  742TIP3   OH223716   1.344   2.864  13.299 -0.4474 -0.0685  0.3081
  742TIP3    H123717   1.335   2.769  13.288  0.3293 -0.0886 -0.2389
  742TIP3    H223718   1.373   2.895  13.213 -1.5119  0.7813  0.2415
  743TIP3   OH223719   3.579   3.795   4.654 -0.5587 -0.8227  0.4134
  743TIP3    H123720   3.657   3.752   4.687 -0.3092 -0.2222  0.6323
  743TIP3    H223721   3.603   3.888   4.650 -1.1474 -0.6753  0.1613
  744TIP3   OH223722   5.545   2.540   5.306 -0.2143  0.2445  0.0981
  744TIP3    H123723   5.545   2.465   5.365 -0.0418 -0.0667 -0.2882
  744TIP3    H223724   5.454   2.548   5.277 -0.3738  0.6288  0.6840
  745TIP3   OH223725   4.517   3.521   5.884  0.1180 -0.1280 -0.5174
  745TIP3    H123726   4.449   3.454   5.889 -0.9713  0.9980  0.7798
  745TIP3    H223727   4.542   3.537   5.975  2.0499 -0.3992 -0.9603
  746TIP3   OH223728   1.959   4.014   5.307 -0.0434  0.2588 -0.1126
  746TIP3    H123729   1.896   4.009   5.235 -0.4321 -1.5105  0.3108
  746TIP3    H223730   1.909   4.047   5.381 -0.0707  0.4458 -0.2152
  747TIP3   OH223731   4.504   3.359   5.578 -0.1845  0.2926 -0.3150
  747TIP3    H123732   4.530   3.424   5.643 -0.0941 -0.7427  0.6951
  747TIP3    H223733   4.516   3.275   5.621  1.5560 -0.5147 -2.2588
  748TIP3   OH223734   6.130   3.549   4.942  0.3613  0.1677  0.1888
  748TIP3    H123735   6.048   3.571   4.987  0.1633  0.3645 -0.2606
  748TIP3    H223736   6.163   3.633   4.909  1.0194  0.1657  0.8193
  749TIP3   OH223737   2.567   6.191  13.922  0.1673  0.5199 -0.2709
  749TIP3    H123738   2.611   6.270  13.953  1.8777 -0.4953 -0.0394
  749TIP3    H223739   2.632   6.122  13.929 -0.4931 -0.4686 -2.7588
  750TIP3   OH223740   1.372   2.404   1.818  1.1313 -0.1266 -0.3795
  750TIP3    H123741   1.442   2.344   1.793  0.1360 -0.5240 -2.4654
  750TIP3    H223742   1.342   2.373   1.903  2.8688 -0.4760  0.1495
  751TIP3   OH223743   0.973   2.464   4.373 -0.1294  0.1213 -0.2349
  751TIP3    H123744   0.907   2.511   4.323  0.8224  0.6116 -1.0760
  751TIP3    H223745   0.960   2.372   4.352  0.4394  0.3424 -1.6554
  752TIP3   OH223746   2.221   5.911   2.163 -0.4656 -0.3075  0.1666
  752TIP3    H123747   2.207   5.970   2.089  1.5845  1.1522  0.8577
  752TIP3    H223748   2.143   5.923   2.218 -1.7942 -1.0719 -1.4539
  753TIP3   OH223749   5.758   5.886   5.559  0.2958  0.3318  0.1591
  753TIP3    H123750   5.837   5.834   5.553  0.7293  0.5909  2.5698
  753TIP3    H223751   5.785   5.966   5.604 -1.2366  0.6172  0.6490
  754TIP3   OH223752   3.525   5.021  12.351 -0.7416  0.1997 -0.0972
  754TIP3    H123753   3.535   4.942  12.299 -1.7257  0.4487 -0.6921
  754TIP3    H223754   3.510   4.990  12.440 -0.1282 -0.2520 -0.1454
  755TIP3   OH223755   1.020   6.347  13.368 -0.0206  0.3823  0.3854
  755TIP3    H123756   1.000   6.256  13.344 -0.5818  0.4006  0.7717
  755TIP3    H223757   1.075   6.340  13.446  0.9392  0.3522 -0.2699
  756TIP3   OH223758   3.161   5.165   3.173  0.3249  0.1360 -0.4054
  756TIP3    H123759   3.103   5.119   3.112  0.7629 -0.9761 -0.0089
  756TIP3    H223760   3.102   5.221   3.224 -0.4158 -0.9570 -0.0177
  757TIP3   OH223761   1.421   0.667  13.003  0.0446 -0.0746  0.1372
  757TIP3    H123762   1.341   0.719  13.012 -0.4108 -1.0093  2.1102
  757TIP3    H223763   1.391   0.576  13.004  1.1556 -0.4915  2.1262
  758TIP3   OH223764   2.755   2.929   4.776  0.1851 -0.7364 -0.1747
  758TIP3    H123765   2.840   2.973   4.780 -0.4403  0.5690 -0.4290
  758TIP3    H223766   2.770   2.852   4.722  1.3346 -0.8500  0.2728
  759TIP3   OH223767   6.652   3.354  13.682 -0.0824 -0.3704  0.0607
  759TIP3    H123768   6.653   3.261  13.662 -1.1995 -0.4261  0.2007
  759TIP3    H223769   6.713   3.364  13.755 -1.2593 -1.2924  1.2275
  760TIP3   OH223770   0.457   4.608  13.570  0.4406  0.2227  0.5876
  760TIP3    H123771   0.437   4.668  13.499 -0.2174  0.0587  0.6262
  760TIP3    H223772   0.534   4.646  13.613 -0.8369  1.8542  1.5281
  761TIP3   OH223773   1.458   3.266  16.866 -0.2723  0.0278 -0.1100
  761TIP3    H123774   1.465   3.171  16.859  0.0622  0.0812 -0.5771
  761TIP3    H223775   1.432   3.282  16.957 -0.0456 -0.4992  0.0519
  762TIP3   OH223776   3.287   4.644  17.082 -0.2328  0.3292  0.0103
  762TIP3    H123777   3.380   4.669  17.089  0.0981 -1.2010  1.9345
  762TIP3    H223778   3.290   4.551  17.059 -1.3214  0.4725 -0.7385
  763TIP3   OH223779   5.215   2.209  11.100  0.7860 -0.0364  0.0292
  763TIP3    H123780   5.255   2.155  11.168 -0.4685 -1.0585 -0.0276
  763TIP3    H223781   5.267   2.191  11.021  1.4578  0.2001  0.4060
  764TIP3   OH223782   0.581   1.677  14.181  0.1011  0.2049 -0.0589
  764TIP3    H123783   0.588   1.626  14.100 -0.8757  1.1081 -0.7330
  764TIP3    H223784   0.487   1.687  14.195  0.2375 -0.4098  1.5155
  765TIP3   OH223785   2.336   3.701   5.013  0.0266 -0.7200 -0.5074
  765TIP3    H123786   2.279   3.776   5.030  1.3309  0.1246  0.3494
  765TIP3    H223787   2.404   3.735   4.954  0.2083 -1.4392 -0.7245
  766TIP3   OH223788   5.132   3.500  11.656  0.4110  0.4747  0.3304
  766TIP3    H123789   5.063   3.435  11.670 -0.3251  1.1087 -0.2595
  766TIP3    H223790   5.200   3.478  11.720 -0.0035 -0.6235  0.4086
  767TIP3   OH223791   2.048   1.264   0.017  0.0980  0.4837  0.6864
  767TIP3    H123792   2.086   1.329   0.075 -0.1020  2.2454 -1.0701
  767TIP3    H223793   1.954   1.268   0.034  0.2488 -1.2541  2.3826
  768TIP3   OH223794   3.920   6.349   0.159 -0.2209 -0.0428 -0.1520
  768TIP3    H123795   3.938   6.439   0.186  1.3800 -0.1465 -0.7591
  768TIP3    H223796   3.832   6.352   0.122  0.7805  1.8833 -2.6470
  769TIP3   OH223797   5.173   5.314  15.943 -0.1137  0.4012  0.4102
  769TIP3    H123798   5.194   5.400  15.905 -2.6957  1.4228  1.1209
  769TIP3    H223799   5.154   5.258  15.868  0.0599  0.8757  0.0072
  770TIP3   OH223800   1.891   6.645  13.917 -0.0488 -0.6124 -0.7502
  770TIP3    H123801   1.842   6.582  13.863 -0.3464 -0.8406 -0.2206
  770TIP3    H223802   1.852   6.637  14.004  0.1777  0.0281 -0.5886
  771TIP3   OH223803   6.017   1.332  15.945 -0.0050 -0.1426 -0.2793
  771TIP3    H123804   5.975   1.247  15.929  2.3155 -1.2013 -1.1498
  771TIP3    H223805   5.973   1.367  16.022 -1.4840 -1.8093 -0.3158
  772TIP3   OH223806   5.503   6.352  10.973 -0.4351 -0.0278  0.0387
  772TIP3    H123807   5.471   6.370  10.884 -0.9855 -0.7867  0.0710
  772TIP3    H223808   5.447   6.281  11.005  0.2327 -0.2691  0.7188
  773TIP3   OH223809   2.892   0.033  14.741  0.1359 -0.4955  0.2428
  773TIP3    H123810   2.833   0.105  14.763 -0.1517 -0.2391 -1.2365
  773TIP3    H223811   2.950   0.069  14.674 -0.8914 -1.9801 -1.5478
  774TIP3   OH223812   3.229   0.206  16.758 -0.0753 -0.0704 -0.4476
  774TIP3    H123813   3.321   0.189  16.741  0.0515  0.8578 -0.7736
  774TIP3    H223814   3.224   0.220  16.853  0.2715  0.6484 -0.5238
  775TIP3   OH223815   4.208   4.189   0.312  0.9886  0.1655 -0.1077
  775TIP3    H123816   4.154   4.110   0.323  1.2448  0.2616  2.3652
  775TIP3    H223817   4.284   4.159   0.263  1.0874 -1.1537  0.8095
  776TIP3   OH223818   5.627   6.384  13.390 -0.2850 -0.4689 -0.2112
  776TIP3    H123819   5.564   6.381  13.461 -0.7861 -0.9789 -0.6707
  776TIP3    H223820   5.611   6.304  13.340 -0.9322  0.5869 -1.7513
  777TIP3   OH223821   1.838   5.296   1.482 -0.3664  0.2383 -0.0155
  777TIP3    H123822   1.763   5.353   1.498 -0.1643  0.7680 -0.9065
  777TIP3    H223823   1.904   5.354   1.442  0.7940 -0.0379  1.3861
  778TIP3   OH223824   6.647   4.075  14.893 -0.2356  0.4774  0.0325
  778TIP3    H123825   6.586   4.142  14.863 -0.9950  0.0550  0.5936
  778TIP3    H223826   6.651   4.086  14.987 -2.0259 -1.5645  0.4333
  779TIP3   OH223827   6.197   5.447  14.456 -0.7079 -0.0160 -0.1662
  779TIP3    H123828   6.241   5.524  14.494  1.7451  0.5838 -3.6907
  779TIP3    H223829   6.122   5.483  14.409  0.0159  0.2131 -1.1938
  780TIP3   OH223830   0.460   2.611  17.124  0.1597  0.2597 -0.3510
  780TIP3    H123831   0.556   2.620  17.127  0.1360  0.6373 -0.7113
  780TIP3    H223832   0.433   2.623  17.215  0.4568  0.1187 -0.2421
  781TIP3   OH223833   6.191   3.008   3.083  0.2575  0.3533  0.1125
  781TIP3    H123834   6.162   3.086   3.037 -1.9102  0.5364  1.6460
  781TIP3    H223835   6.272   3.034   3.126 -1.4675  2.5394  2.3227
  782TIP3   OH223836   3.112   2.827   4.366 -0.1531 -0.3220  0.2794
  782TIP3    H123837   3.118   2.791   4.455 -0.4786 -2.6649 -0.5976
  782TIP3    H223838   3.180   2.894   4.363  0.7523 -1.1056  1.8971
  783TIP3   OH223839   2.699   0.145   1.354 -0.0246 -0.2180  0.3293
  783TIP3    H123840   2.618   0.094   1.354  1.0294 -1.9737  1.1113
  783TIP3    H223841   2.676   0.226   1.400 -1.5018 -0.3594 -0.1131
  784TIP3   OH223842   6.526   5.354   2.562 -0.0093 -0.1774 -0.0210
  784TIP3    H123843   6.597   5.355   2.498  0.4496  1.7755  0.4728
  784TIP3    H223844   6.446   5.360   2.510  0.1438 -2.1222 -0.5648
  785TIP3   OH223845   2.873   2.204   0.966  0.0632 -0.1664 -0.5009
  785TIP3    H123846   2.963   2.187   0.937  1.2142  0.6444  2.1998
  785TIP3    H223847   2.840   2.119   0.993  0.7263 -0.2329  0.1561
  786TIP3   OH223848   0.193   1.088   1.307 -0.3632 -0.3502 -0.3088
  786TIP3    H123849   0.241   1.100   1.388  2.0905  0.9170 -1.8154
  786TIP3    H223850   0.166   1.177   1.282 -0.6047 -0.6403 -1.1316
  787TIP3   OH223851   2.324   2.130  16.647  0.0718  0.0565  0.8073
  787TIP3    H123852   2.281   2.203  16.691  1.8993  1.4355  0.4327
  787TIP3    H223853   2.280   2.052  16.680 -1.8091  1.3097  1.3698
  788TIP3   OH223854   2.210   2.162  14.956  0.1885  0.7395  0.1685
  788TIP3    H123855   2.244   2.138  14.870  1.6915 -0.1649  0.9773
  788TIP3    H223856   2.269   2.231  14.987 -0.9956  1.8470  0.0556
  789TIP3   OH223857   4.112   1.997  16.051 -0.3717 -0.0920 -0.3191
  789TIP3    H123858   4.045   2.056  16.086  1.2636  1.2001  0.7878
  789TIP3    H223859   4.158   2.050  15.985  1.0485 -0.1004  0.6155
  790TIP3   OH223860   4.714   6.608   1.722 -0.0636 -0.1443 -0.3396
  790TIP3    H123861   4.624   6.580   1.739 -0.4223  0.3200 -1.4229
  790TIP3    H223862   4.713   6.641   1.632  0.7139  1.7682  0.2937
  791TIP3   OH223863   5.183   6.400   1.574  0.1715 -0.2844 -0.6703
  791TIP3    H123864   5.220   6.325   1.622  0.0900 -0.7149 -1.2652
  791TIP3    H223865   5.105   6.423   1.624  1.1115  0.5255  0.5009
  792TIP3   OH223866   1.227   5.746  16.805 -0.5021  0.0897  0.1082
  792TIP3    H123867   1.285   5.713  16.736  0.9606 -1.3949  1.9614
  792TIP3    H223868   1.188   5.668  16.843 -0.2398  0.7571  1.8170
  793TIP3   OH223869   6.508   4.342  13.700  0.5770 -0.2299  0.0678
  793TIP3    H123870   6.502   4.324  13.794  0.4650  2.1388  0.5930
  793TIP3    H223871   6.418   4.357  13.672  0.5832 -1.1851 -0.5066
  794TIP3   OH223872   1.409   4.117  11.100  0.2201  0.0426 -0.1354
  794TIP3    H123873   1.365   4.156  11.024 -0.4603  0.4412  0.4631
  794TIP3    H223874   1.489   4.170  11.109  1.2731 -1.1728 -1.6972
  795TIP3   OH223875   5.585   2.766   2.838 -0.3068 -0.0596 -0.2891
  795TIP3    H123876   5.590   2.822   2.915  1.9558  0.0760 -0.4902
  795TIP3    H223877   5.541   2.686   2.868 -3.0548  1.4814  0.1435
  796TIP3   OH223878   0.483   6.625  10.273  0.1291  0.2871  0.3357
  796TIP3    H123879   0.465   6.653  10.362 -0.7095  2.6161 -0.4714
  796TIP3    H223880   0.545   6.690  10.239  0.6340 -0.6939 -0.7136
  797TIP3   OH223881   1.999   3.672  15.181  0.2556 -0.7906  0.1885
  797TIP3    H123882   1.946   3.636  15.252 -1.2275 -0.6248 -0.7727
  797TIP3    H223883   2.002   3.766  15.199 -0.5063 -0.6821 -0.1627
  798TIP3   OH223884   3.083   3.587  12.297 -0.8794 -0.1651  0.0006
  798TIP3    H123885   3.124   3.653  12.241 -1.4407  0.8294  0.7127
  798TIP3    H223886   2.990   3.611  12.297 -0.8200  0.2195  1.7705
  799TIP3   OH223887   0.701   3.390  11.908 -0.7435  0.0511 -0.2805
  799TIP3    H123888   0.619   3.391  11.859 -1.2793 -1.1349  0.5473
  799TIP3    H223889   0.755   3.456  11.865 -1.9906  0.6004 -1.0709
  800TIP3   OH223890   5.288   1.105  16.085 -0.2936  0.1374  0.0389
  800TIP3    H123891   5.218   1.096  16.150  0.7048 -0.3504  1.0917
  800TIP3    H223892   5.283   1.025  16.033  1.4235 -1.4486  2.1426
  801TIP3   OH223893   6.738   3.305   4.456  0.1616  0.5266  0.6690
  801TIP3    H123894   6.822   3.269   4.486 -0.2966 -0.7629  0.4463
  801TIP3    H223895   6.689   3.229   4.425 -0.9057  1.3347  0.3307
  802TIP3   OH223896   1.133   3.291   3.070  0.0468  0.2764 -0.1311
  802TIP3    H123897   1.105   3.367   3.122 -0.8641  0.0444 -0.2693
  802TIP3    H223898   1.112   3.315   2.980 -0.4460 -0.2291 -0.1528
  803TIP3   OH223899   1.128   4.790  12.292 -0.2517  0.5713 -0.4172
  803TIP3    H123900   1.092   4.849  12.226 -0.5477  0.4432 -0.3694
  803TIP3    H223901   1.135   4.842  12.371 -2.5350 -0.0176  0.2284
  804TIP3   OH223902   4.930   0.497   0.398  0.0590  0.2813  0.6536
  804TIP3    H123903   4.866   0.428   0.416 -0.6879  0.9765  0.7764
  804TIP3    H223904   4.876   0.575   0.380  0.7935  0.3697 -1.5469
  805TIP3   OH223905   3.176   6.393   3.858 -0.4259  0.3681 -0.1456
  805TIP3    H123906   3.082   6.397   3.874 -0.3972  0.5301 -0.0178
  805TIP3    H223907   3.184   6.356   3.770 -0.6296  1.0307 -0.4465
  806TIP3   OH223908   4.935   3.552   0.213  0.3337 -0.0290 -0.0758
  806TIP3    H123909   4.884   3.486   0.167 -1.6943  0.5253  1.2211
  806TIP3    H223910   4.946   3.622   0.149  0.1042 -0.4802 -0.6195
  807TIP3   OH223911   6.113   1.858   2.143 -0.2745 -0.1980 -0.1353
  807TIP3    H123912   6.057   1.798   2.094 -1.0437  1.1930 -1.0343
  807TIP3    H223913   6.201   1.839   2.111 -0.5926 -0.3668 -0.9457
  808TIP3   OH223914   5.948   2.485  16.875 -0.7535  0.5245 -0.3813
  808TIP3    H123915   5.943   2.566  16.925  0.1249  0.1561  0.3326
  808TIP3    H223916   6.040   2.478  16.849 -0.6494 -0.6230  0.2372
  809TIP3   OH223917   5.248   1.511   0.004  0.3464 -0.2188 -0.4805
  809TIP3    H123918   5.261   1.531   0.097  2.1988 -1.2602 -0.4710
  809TIP3    H223919   5.166   1.555  -0.018 -0.6489 -0.7148  1.8678
  810TIP3   OH223920   2.536   5.804  10.977  1.0559  0.1521 -0.5999
  810TIP3    H123921   2.610   5.754  11.013  0.4503 -0.0815  0.3480
  810TIP3    H223922   2.482   5.826  11.053 -1.2379 -1.9279 -1.4957
  811TIP3   OH223923   0.096   0.163  12.761  0.4619  0.0564  0.5574
  811TIP3    H123924   0.022   0.223  12.756 -0.4847 -0.5360  4.4592
  811TIP3    H223925   0.173   0.220  12.772  0.1703  0.5881 -0.0863
  812TIP3   OH223926   4.520   1.980  15.601  0.0105 -0.3281 -0.5212
  812TIP3    H123927   4.460   2.040  15.558  0.7725 -0.3664 -1.7010
  812TIP3    H223928   4.593   2.036  15.629 -0.1760 -0.4092  0.1312
  813TIP3   OH223929   4.146   3.279   3.546 -0.4478 -0.3090  0.1244
  813TIP3    H123930   4.232   3.313   3.571 -0.1288  0.3599 -1.7647
  813TIP3    H223931   4.164   3.197   3.501 -0.6745  0.4481 -1.3942
  814TIP3   OH223932   5.225   6.325  12.642 -0.7468  0.0618  0.2195
  814TIP3    H123933   5.270   6.393  12.693 -1.3785  1.1771 -0.6760
  814TIP3    H223934   5.227   6.248  12.699 -1.3262  1.2368  1.9045
  815TIP3   OH223935   2.232   3.093   6.105  0.4036 -0.2906 -0.2987
  815TIP3    H123936   2.168   3.034   6.146  1.0363 -0.2974  0.7262
  815TIP3    H223937   2.291   3.117   6.177  2.4843 -1.5325 -1.5001
  816TIP3   OH223938   5.399   1.392   1.898 -0.4511 -0.0856 -0.8545
  816TIP3    H123939   5.394   1.474   1.947  0.2675 -0.3397 -0.3276
  816TIP3    H223940   5.323   1.342   1.929 -0.7616  0.2861 -1.0057
  817TIP3   OH223941   0.958   3.403   3.893 -0.1299  0.3485  0.1789
  817TIP3    H123942   1.031   3.383   3.835 -0.0557  1.1965 -0.0399
  817TIP3    H223943   0.950   3.326   3.950 -1.5819 -1.4629 -2.2833
  818TIP3   OH223944   3.700   1.931   1.473  0.4024 -0.1467 -0.2449
  818TIP3    H123945   3.658   1.895   1.551 -1.6290 -1.2787 -1.7787
  818TIP3    H223946   3.679   1.869   1.403  1.0472  1.4867 -1.9768
  819TIP3   OH223947   6.790   6.177   6.288 -0.3077  0.0362 -0.0226
  819TIP3    H123948   6.837   6.216   6.362  0.2232 -0.0916 -0.2872
  819TIP3    H223949   6.821   6.087   6.284  0.6519  0.3933 -1.1924
  820TIP3   OH223950   3.808   4.791  15.297 -0.1411  0.5210  0.0579
  820TIP3    H123951   3.883   4.850  15.294  0.2267  0.2942  2.3961
  820TIP3    H223952   3.782   4.791  15.389 -1.1048 -1.7390 -0.1458
  821TIP3   OH223953   2.248   2.371  14.369  0.0564  0.0752  0.0994
  821TIP3    H123954   2.272   2.336  14.283  0.0541 -1.6885  0.7787
  821TIP3    H223955   2.168   2.422  14.353 -0.4189 -0.9213 -0.8275
  822TIP3   OH223956   3.877   3.189   4.317  0.2256  0.2624  0.5666
  822TIP3    H123957   3.885   3.282   4.297  1.2479  0.4762  1.7545
  822TIP3    H223958   3.856   3.148   4.234  2.1202  1.2929 -0.4942
  823TIP3   OH223959   5.270   6.015  13.139 -0.0747 -0.1104 -0.4650
  823TIP3    H123960   5.285   5.938  13.084  0.6012  1.3290 -2.3987
  823TIP3    H223961   5.181   6.003  13.172 -0.9688 -0.5144 -2.8150
  824TIP3   OH223962   5.400   0.522  14.276  0.5524 -0.0646 -0.1548
  824TIP3    H123963   5.343   0.508  14.351  0.9892 -0.7680  0.0529
  824TIP3    H223964   5.485   0.546  14.314  0.2514  1.6710 -0.4686
  825TIP3   OH223965   4.873   5.811   0.348 -0.3781  0.3869 -0.0202
  825TIP3    H123966   4.925   5.745   0.394 -1.4124 -0.3405  0.1420
  825TIP3    H223967   4.855   5.878   0.415 -0.3279  0.2454  0.1339
  826TIP3   OH223968   4.017   0.428   2.243 -0.4773  0.1683  0.5421
  826TIP3    H123969   4.087   0.455   2.302  0.9878 -2.2623  0.0648
  826TIP3    H223970   3.946   0.402   2.301 -0.1912  0.6054  1.1102
  827TIP3   OH223971   5.670   0.677   3.506 -0.1114 -0.4575  0.3632
  827TIP3    H123972   5.712   0.623   3.439 -0.5187  0.7507 -0.9168
  827TIP3    H223973   5.583   0.637   3.517 -0.0873 -0.5937  0.0746
  828TIP3   OH223974   3.280   2.426  16.790 -0.2391  0.1176  0.4779
  828TIP3    H123975   3.229   2.373  16.728  1.4629 -0.6977 -0.3044
  828TIP3    H223976   3.270   2.516  16.758 -1.0958 -0.0310  0.2949
  829TIP3   OH223977   1.239   2.790   4.417 -0.8058 -0.4089 -0.7714
  829TIP3    H123978   1.187   2.747   4.484 -2.0978  0.6621 -1.0401
  829TIP3    H223979   1.329   2.768   4.439 -1.0863  0.7377  1.9261
  830TIP3   OH223980   1.036   0.231  17.043 -0.1715 -0.2643  0.3256
  830TIP3    H123981   1.007   0.169  16.976 -0.4255 -2.6207  2.4704
  830TIP3    H223982   0.956   0.270  17.077 -0.0394  0.9738 -0.7032
  831TIP3   OH223983   0.130   2.425  12.365 -0.2150  0.5936  0.3522
  831TIP3    H123984   0.144   2.510  12.407 -0.6699  1.3462 -0.9896
  831TIP3    H223985   0.137   2.442  12.272 -3.2144 -0.2684 -0.1377
  832TIP3   OH223986   3.330   5.280   2.158 -0.1783 -0.5939  0.1448
  832TIP3    H123987   3.250   5.281   2.105  0.1900  0.9768 -0.4272
  832TIP3    H223988   3.383   5.352   2.124  0.7816 -0.5662  1.5996
  833TIP3   OH223989   0.891   5.341   0.032 -0.1639 -0.3410 -0.3336
  833TIP3    H123990   0.835   5.380  -0.034 -0.0725 -0.0100 -0.2161
  833TIP3    H223991   0.942   5.414   0.068  0.7368 -0.7174 -0.8164
  834TIP3   OH223992   6.295   0.547  12.059  0.3945  0.3305 -0.5854
  834TIP3    H123993   6.330   0.603  11.990 -0.2287  0.6620 -0.6403
  834TIP3    H223994   6.278   0.463  12.016  2.7282 -0.4221 -0.1746
  835TIP3   OH223995   1.588   4.051  13.332 -0.6004  0.4963  0.6245
  835TIP3    H123996   1.569   4.112  13.261 -0.4612 -0.2188 -0.0475
  835TIP3    H223997   1.505   4.005  13.346 -0.1212 -0.7680 -0.4806
  836TIP3   OH223998   4.619   2.117   0.236 -0.3530  0.3994  1.0032
  836TIP3    H123999   4.679   2.137   0.164 -0.1944  0.5536  1.1769
  836TIP3    H224000   4.673   2.126   0.314 -0.2447 -0.7720  1.0904
  837TIP3   OH224001   5.890   1.490   3.730 -0.1244  0.6095  0.5941
  837TIP3    H124002   5.912   1.579   3.755  1.2814  0.5220 -0.2549
  837TIP3    H224003   5.876   1.494   3.635  1.2274 -0.3003  0.3430
  838TIP3   OH224004   6.728   6.245   0.722  0.0745  0.1213 -0.2133
  838TIP3    H124005   6.648   6.211   0.682 -0.1997 -0.4889  0.8073
  838TIP3    H224006   6.707   6.335   0.746  0.7626  1.0739 -2.8282
  839TIP3   OH224007   3.900   1.503  13.758  0.3031  0.0916 -0.1163
  839TIP3    H124008   3.822   1.556  13.742 -1.1504 -1.6978  0.6730
  839TIP3    H224009   3.938   1.488  13.672 -1.1002 -0.2341 -0.7047
  840TIP3   OH224010   6.372   4.004   1.432  0.1849 -0.6854  0.2062
  840TIP3    H124011   6.378   4.100   1.425 -0.7355 -0.5905  0.4781
  840TIP3    H224012   6.436   3.981   1.499  0.3958 -0.2518  0.1577
  841TIP3   OH224013   5.113   1.644   4.132  0.3833 -0.2866 -0.6839
  841TIP3    H124014   5.031   1.675   4.094  0.3486 -0.7625 -1.0130
  841TIP3    H224015   5.151   1.588   4.064  0.0152 -1.6851  0.2284
  842TIP3   OH224016   0.919   0.838   4.964  0.3099  0.2924 -0.8211
  842TIP3    H124017   0.995   0.880   5.003  0.2319 -1.0173  0.8462
  842TIP3    H224018   0.888   0.900   4.898  0.6916  2.4711  0.9286
  843TIP3   OH224019   3.815   0.881   0.062 -0.4328  0.0741  0.3367
  843TIP3    H124020   3.875   0.811   0.038  1.1580  2.0738 -1.9973
  843TIP3    H224021   3.729   0.838   0.064  0.6337 -2.2174  0.5722
  844TIP3   OH224022   3.997   1.875  11.275 -0.4545  0.1564 -0.5789
  844TIP3    H124023   3.943   1.837  11.344  1.7397  1.6596  2.1391
  844TIP3    H224024   3.936   1.929  11.224 -2.0993 -0.8043  0.2798
  845TIP3   OH224025   5.280   6.388  12.350 -0.3647 -0.4404 -0.5830
  845TIP3    H124026   5.310   6.299  12.332 -0.1315 -0.3749 -0.5244
  845TIP3    H224027   5.243   6.384  12.438 -2.7024 -1.0579 -1.5219
  846TIP3   OH224028   0.247   6.148  11.113  0.4782  0.5554  0.0748
  846TIP3    H124029   0.312   6.093  11.070 -0.0703  0.3021 -0.4394
  846TIP3    H224030   0.273   6.237  11.091 -0.3707  0.4193 -1.6971
  847TIP3   OH224031   4.982   4.144  12.252  0.3574  0.4729 -0.1422
  847TIP3    H124032   4.950   4.181  12.334  0.8187 -2.0173  1.2911
  847TIP3    H224033   4.904   4.134  12.198 -0.4016 -0.2111  1.0412
  848TIP3   OH224034   1.385   2.579  11.523 -0.2235  0.3817  0.5211
  848TIP3    H124035   1.397   2.636  11.447 -0.0018 -0.9685 -0.4866
  848TIP3    H224036   1.369   2.492  11.486  0.5362 -0.4390  2.0282
  849TIP3   OH224037   2.122   0.116  14.453 -1.1765 -0.3408  0.4374
  849TIP3    H124038   2.139   0.092  14.544 -2.3446  0.7737  0.9886
  849TIP3    H224039   2.173   0.197  14.440 -2.7606  0.7709  0.8495
  850TIP3   OH224040   4.618   3.446   4.614 -0.2442 -0.0624 -0.1122
  850TIP3    H124041   4.589   3.534   4.640 -0.3255 -0.1350  0.0463
  850TIP3    H224042   4.538   3.400   4.593 -0.1598  0.0699 -0.7390
  851TIP3   OH224043   1.878   6.448   1.080 -0.3260 -0.4323  0.4420
  851TIP3    H124044   1.802   6.489   1.122 -0.5785 -0.8073  0.3581
  851TIP3    H224045   1.950   6.463   1.141 -0.2528  0.7437  0.0964
  852TIP3   OH224046   3.828   4.746  11.596 -0.8068  0.6730  0.0190
  852TIP3    H124047   3.778   4.667  11.578  0.3777  0.2622 -1.7066
  852TIP3    H224048   3.908   4.715  11.639 -0.3110  0.9087 -0.7130
  853TIP3   OH224049   3.351   0.479   4.116 -0.2535  0.3015  0.0429
  853TIP3    H124050   3.260   0.462   4.094 -0.5150 -0.6126  1.6830
  853TIP3    H224051   3.371   0.418   4.187  1.6344  0.4913 -0.2509
  854TIP3   OH224052   4.419   3.535  15.114  0.3687 -0.5521 -0.1679
  854TIP3    H124053   4.463   3.619  15.128 -0.9676  0.1556 -0.0611
  854TIP3    H224054   4.485   3.470  15.138  1.3935  0.4608 -0.1265
  855TIP3   OH224055   1.177   2.423   0.766 -0.1159  0.0579  0.3588
  855TIP3    H124056   1.144   2.352   0.821 -2.1980  0.3465 -0.4552
  855TIP3    H224057   1.250   2.459   0.816  1.3472 -2.8960  0.5990
  856TIP3   OH224058   2.592   2.640  12.249  0.4297  0.1218  0.2198
  856TIP3    H124059   2.507   2.614  12.283  0.9372 -2.5384 -0.2655
  856TIP3    H224060   2.650   2.641  12.325  0.2500  0.5454  0.3507
  857TIP3   OH224061   2.058   4.306  14.330  0.0828 -0.0981  0.9079
  857TIP3    H124062   2.049   4.236  14.394  1.5214 -0.9579  0.2137
  857TIP3    H224063   2.012   4.380  14.370 -1.3307 -1.3622  1.7288
  858TIP3   OH224064   6.285   1.811   1.368 -0.0311  0.1405 -0.5035
  858TIP3    H124065   6.329   1.885   1.326 -0.6878  0.7852 -0.0933
  858TIP3    H224066   6.274   1.839   1.459 -2.0525  0.3885 -0.7831
  859TIP3   OH224067   3.924   5.212   1.844 -0.0130  0.2940  0.2521
  859TIP3    H124068   3.842   5.242   1.881  0.4868  2.2085 -0.1045
  859TIP3    H224069   3.962   5.156   1.912 -0.9344  0.5314  0.9795
  860TIP3   OH224070   4.446   5.982   1.232 -0.3418  0.3700 -0.5165
  860TIP3    H124071   4.430   6.052   1.169  0.1456 -0.5571 -1.6950
  860TIP3    H224072   4.359   5.944   1.248 -0.2039 -0.8014 -2.3362
  861TIP3   OH224073   2.247   1.141  15.443  0.3074 -0.4733 -0.3005
  861TIP3    H124074   2.219   1.232  15.432  0.2359 -0.5165 -0.4803
  861TIP3    H224075   2.171   1.089  15.417  1.1112 -0.6262 -2.5549
  862TIP3   OH224076   6.709   3.855   2.293  0.1854 -0.0208  0.0601
  862TIP3    H124077   6.725   3.797   2.368  0.8359 -0.5225 -0.4547
  862TIP3    H224078   6.673   3.797   2.226  1.2263  0.0761 -0.6048
  863TIP3   OH224079   2.706   4.620  14.776 -0.3724  0.3108 -0.2390
  863TIP3    H124080   2.672   4.600  14.689  0.4856  0.5155 -0.6241
  863TIP3    H224081   2.652   4.568  14.835 -1.0188  0.2362 -0.8800
  864TIP3   OH224082   4.988   1.941  10.994 -0.9448 -0.6001  0.6361
  864TIP3    H124083   4.918   1.909  10.936 -1.7125  0.4910  0.9325
  864TIP3    H224084   4.947   1.943  11.081  0.2054 -2.2563  1.2522
  865TIP3   OH224085   2.286   0.528  12.194 -0.5274  0.3161 -1.2416
  865TIP3    H124086   2.212   0.468  12.201 -0.8605  0.7090 -1.3503
  865TIP3    H224087   2.348   0.498  12.260 -0.5597 -0.3298 -1.5028
  866TIP3   OH224088   3.600   6.761  14.454  0.3894  0.3029 -0.5474
  866TIP3    H124089   3.568   6.675  14.425  1.5483 -0.6827  0.9748
  866TIP3    H224090   3.520   6.810  14.474 -0.3245 -0.0953 -2.2272
  867TIP3   OH224091   0.716   3.445  13.287  0.7154  0.2848  0.1167
  867TIP3    H124092   0.754   3.388  13.354  2.1299  1.0885  0.0345
  867TIP3    H224093   0.671   3.514  13.336 -0.7038 -0.6704  0.2142
  868TIP3   OH224094   3.928   0.981   0.865  0.6716  0.4616  0.6212
  868TIP3    H124095   3.935   1.076   0.869 -0.3209  0.5991 -0.2644
  868TIP3    H224096   3.849   0.960   0.914  0.2096  0.2288 -0.1929
  869TIP3   OH224097   0.008   1.779  14.302  0.0738 -0.1003 -0.2892
  869TIP3    H124098   0.041   1.863  14.270  1.4355 -0.9861 -1.3568
  869TIP3    H224099  -0.050   1.748  14.231 -0.8090  0.1408  0.3128
  870TIP3   OH224100   4.545   6.091   3.416 -0.3157  0.5730 -0.0812
  870TIP3    H124101   4.498   6.096   3.499 -0.3906  0.0657 -0.0905
  870TIP3    H224102   4.612   6.159   3.423  2.7391 -2.3295  2.3467
  871TIP3   OH224103   4.565   0.997  15.399 -0.2177 -0.4934  0.4509
  871TIP3    H124104   4.479   0.957  15.412 -0.3944 -0.4744 -0.5990
  871TIP3    H224105   4.554   1.087  15.428 -1.2480  0.2014 -1.8791
  872TIP3   OH224106   0.301   3.800   2.226 -0.3081  0.0266  0.2938
  872TIP3    H124107   0.221   3.747   2.220  0.8868 -1.7621 -0.7033
  872TIP3    H224108   0.341   3.793   2.139 -0.3469  3.1027 -0.0925
  873TIP3   OH224109   0.838   0.550  16.432 -0.2256  0.3969  0.0999
  873TIP3    H124110   0.907   0.609  16.459 -0.7499  1.3800 -0.6440
  873TIP3    H224111   0.869   0.513  16.349 -0.1933  0.1363  0.2278
  874TIP3   OH224112   4.782   5.347  12.474  0.1932  0.1728  0.7707
  874TIP3    H124113   4.736   5.404  12.535  0.4499  0.2602  0.8877
  874TIP3    H224114   4.717   5.284  12.445 -0.7078  1.8045 -1.0344
  875TIP3   OH224115   5.384   6.216  11.851  0.3082  0.1517 -0.3631
  875TIP3    H124116   5.470   6.223  11.892  0.5951  2.6944 -1.2566
  875TIP3    H224117   5.399   6.231  11.758 -1.0145 -0.2527 -0.6744
  876TIP3   OH224118   6.729   4.802  12.348 -0.4120  0.4848 -0.0926
  876TIP3    H124119   6.690   4.846  12.424 -3.0525  0.0260 -1.0873
  876TIP3    H224120   6.812   4.767  12.381  0.2165  3.2472  1.6192
  877TIP3   OH224121   6.815   3.875   0.459  0.1807 -0.0982 -0.1720
  877TIP3    H124122   6.850   3.951   0.505  0.4380  0.5173 -1.3304
  877TIP3    H224123   6.725   3.865   0.492 -0.6784  2.1401 -1.6055
  878TIP3   OH224124   6.794   1.816   0.633 -0.1935  0.2556  0.1537
  878TIP3    H124125   6.776   1.823   0.726  0.8804  0.1541  0.3696
  878TIP3    H224126   6.853   1.889   0.614  0.2903 -0.2405 -0.2735
  879TIP3   OH224127   2.769   6.577  15.764  0.2883  0.4534  0.5574
  879TIP3    H124128   2.826   6.654  15.757 -0.0048  0.7486  1.3093
  879TIP3    H224129   2.728   6.586  15.850  1.7255 -1.5598  1.5383
  880TIP3   OH224130   0.990   6.368  11.832 -0.6088  0.0790  0.3143
  880TIP3    H124131   0.988   6.460  11.805 -1.3531 -0.0154  0.0165
  880TIP3    H224132   1.058   6.329  11.777  0.0543  0.5466  0.7858
  881TIP3   OH224133   3.130   1.946  16.635  0.1219  0.0742 -0.0877
  881TIP3    H124134   3.176   1.866  16.660  0.9433  0.6699  0.3749
  881TIP3    H224135   3.077   1.968  16.711 -1.2287 -0.8006 -0.7503
  882TIP3   OH224136   6.502   4.528   2.378  0.1633  0.1483 -0.1443
  882TIP3    H124137   6.428   4.467   2.382  0.8373 -0.6746  0.2952
  882TIP3    H224138   6.510   4.562   2.468 -2.3394  3.6074 -1.0262
  883TIP3   OH224139   4.857   5.882   5.543  0.3009  0.1323  0.6711
  883TIP3    H124140   4.899   5.954   5.496  0.2012  0.4337  1.0312
  883TIP3    H224141   4.913   5.807   5.529 -1.1870 -0.5545 -2.3789
  884TIP3   OH224142   4.491   4.084  11.163 -0.2595 -0.3517  0.1578
  884TIP3    H124143   4.581   4.064  11.139 -0.4086 -1.9130  0.7514
  884TIP3    H224144   4.438   4.023  11.111 -0.9730  0.5259 -0.1584
  885TIP3   OH224145   4.540   6.231   1.320  0.4188 -0.0318 -0.5909
  885TIP3    H124146   4.522   6.138   1.314  4.4469 -0.9380 -1.5724
  885TIP3    H224147   4.519   6.265   1.232 -1.5570  0.1913 -0.0793
  886TIP3   OH224148   2.922   0.202  15.509 -0.0235  0.0920  0.5330
  886TIP3    H124149   2.956   0.227  15.423  3.2915 -0.0718  1.6788
  886TIP3    H224150   2.919   0.107  15.507 -0.1561  0.0964  0.5240
  887TIP3   OH224151   0.441   5.907   0.197 -0.1743 -0.1763 -0.1865
  887TIP3    H124152   0.394   5.845   0.252 -0.9055  0.1939 -0.3859
  887TIP3    H224153   0.519   5.931   0.247 -0.1316 -0.8908  0.0903
  888TIP3   OH224154   6.330   4.555   1.019 -0.2088 -0.7049  0.1294
  888TIP3    H124155   6.247   4.572   1.064 -0.8346 -2.9894 -0.0764
  888TIP3    H224156   6.390   4.619   1.056 -1.6909  0.0453  1.3483
  889TIP3   OH224157   5.752   5.171   1.413  0.2464  0.0133  0.1425
  889TIP3    H124158   5.787   5.091   1.374  0.0291 -1.6048  2.9536
  889TIP3    H224159   5.824   5.234   1.407  1.3242 -1.1815  0.0089
  890TIP3   OH224160   3.895   4.561   3.301  0.4473 -0.5638 -0.4479
  890TIP3    H124161   3.878   4.521   3.216 -0.5990  2.0420 -1.5489
  890TIP3    H224162   3.812   4.554   3.348  0.1926  0.4599 -0.7313
  891TIP3   OH224163   4.389   1.625   6.239 -0.0303 -0.0249 -0.0124
  891TIP3    H124164   4.358   1.584   6.320  3.0071 -0.1499  1.2236
  891TIP3    H224165   4.457   1.566   6.206  0.3081  1.1077 -1.4733
  892TIP3   OH224166   3.328   5.930   2.477  0.5570 -0.1226 -0.1559
  892TIP3    H124167   3.417   5.961   2.460  0.5049  1.1308  1.6131
  892TIP3    H224168   3.338   5.860   2.541  0.2614 -0.0053  0.0197
  893TIP3   OH224169   0.158   1.973  15.443 -0.1309 -0.4521 -0.1852
  893TIP3    H124170   0.089   2.029  15.478 -0.0636 -1.2367  1.2960
  893TIP3    H224171   0.128   1.884  15.460  0.5533 -0.8440 -0.9336
  894TIP3   OH224172   2.051   1.706   5.064 -0.5576  0.4199 -0.1741
  894TIP3    H124173   2.073   1.626   5.111  0.1415  0.1265 -0.9733
  894TIP3    H224174   1.979   1.744   5.114 -1.5545 -1.2073 -0.3039
  895TIP3   OH224175   4.633   4.657  16.930 -0.5342  0.0366 -0.6392
  895TIP3    H124176   4.662   4.728  16.988 -0.6212 -0.5582  0.1543
  895TIP3    H224177   4.595   4.701  16.855 -0.8249  0.8381 -0.0333
  896TIP3   OH224178   4.365   6.268   5.080  0.2742  0.1555  0.0101
  896TIP3    H124179   4.451   6.227   5.078 -0.3493 -1.2687  0.8316
  896TIP3    H224180   4.303   6.195   5.079 -0.9455  1.1483 -0.6916
  897TIP3   OH224181   0.049   1.450   2.835  0.5718 -0.6998 -0.3160
  897TIP3    H124182   0.057   1.411   2.922 -1.0434  1.0117  0.6608
  897TIP3    H224183   0.049   1.544   2.850 -2.9507 -0.3228 -1.7778
  898TIP3   OH224184   2.848   1.829   2.680  0.1411  0.1429 -0.1087
  898TIP3    H124185   2.809   1.767   2.619 -1.2108  0.3572  0.5042
  898TIP3    H224186   2.776   1.887   2.705  1.2648  1.6725 -0.2987
  899TIP3   OH224187   4.136   0.993  10.619  0.2799  0.5811 -0.2258
  899TIP3    H124188   4.109   1.076  10.658 -0.6739 -0.8144  2.3071
  899TIP3    H224189   4.054   0.950  10.595  0.7550  0.1840 -1.2104
  900TIP3   OH224190   6.699   4.563  15.984  0.4361  0.6573  0.1727
  900TIP3    H124191   6.610   4.597  15.987 -0.2250 -0.7879 -1.4718
  900TIP3    H224192   6.732   4.591  15.899  0.9113 -0.3155  0.0272
  901TIP3   OH224193   6.620   0.045   3.558  0.1442 -0.3064 -0.0066
  901TIP3    H124194   6.611   0.140   3.560  0.8854 -0.2395  1.8297
  901TIP3    H224195   6.711   0.029   3.533 -0.4436 -0.6233 -2.1752
  902TIP3   OH224196   0.963   2.474   1.338  0.6352 -0.4397 -0.1351
  902TIP3    H124197   0.894   2.534   1.311  3.2293  3.8189  1.7180
  902TIP3    H224198   0.927   2.429   1.414 -1.1005 -0.7024 -1.0478
  903TIP3   OH224199   3.583   6.774   2.928  0.1184 -0.1248 -0.2101
  903TIP3    H124200   3.529   6.842   2.970 -0.6602  1.5803 -3.5870
  903TIP3    H224201   3.673   6.800   2.947 -0.1982  1.2061 -0.3848
  904TIP3   OH224202   1.368   6.023  17.091 -0.0325 -0.3051 -0.3545
  904TIP3    H124203   1.438   6.076  17.130 -0.2353 -1.0597  1.0946
  904TIP3    H224204   1.415   5.953  17.045  0.1896 -0.9457  0.8112
  905TIP3   OH224205   1.904   0.745   5.472 -0.2700  0.5976 -0.8554
  905TIP3    H124206   1.969   0.733   5.541 -1.7449  0.4825  0.5581
  905TIP3    H224207   1.872   0.835   5.484 -0.8508  0.4298 -1.1055
  906TIP3   OH224208   0.763   5.793  16.550  0.0466 -0.5434  0.6509
  906TIP3    H124209   0.771   5.888  16.557 -0.3792 -0.4144 -0.4749
  906TIP3    H224210   0.853   5.762  16.541  0.0756 -0.0513 -1.0740
  907TIP3   OH224211   1.102   6.063   2.183  0.1202  0.2607  0.1855
  907TIP3    H124212   1.178   6.037   2.235  2.2511  1.3488 -2.1754
  907TIP3    H224213   1.125   6.039   2.093 -4.0842 -3.1047 -0.3258
  908TIP3   OH224214   1.088   4.013   2.634 -0.3046 -0.3079 -0.4756
  908TIP3    H124215   1.171   3.975   2.664 -0.1735  0.6480  0.4383
  908TIP3    H224216   1.027   3.939   2.630  0.4858 -0.9588 -0.7986
  909TIP3   OH224217   1.603   5.737  11.808  0.2802  0.4557  0.5950
  909TIP3    H124218   1.609   5.796  11.883  2.8489 -0.8043  1.4725
  909TIP3    H224219   1.631   5.790  11.733  2.0038  0.5603  1.2798
  910TIP3   OH224220   5.379   1.609   2.045  0.0183 -0.8465 -0.6116
  910TIP3    H124221   5.402   1.595   2.137 -1.7287 -2.0076 -0.3215
  910TIP3    H224222   5.372   1.704   2.037 -1.0298 -0.7835  0.7850
  911TIP3   OH224223   1.835   5.240  12.009  0.3670  0.0921  0.0220
  911TIP3    H124224   1.885   5.321  12.023  0.5615  0.0634 -0.4674
  911TIP3    H224225   1.900   5.170  12.015  0.1044 -0.0883  1.0289
  912TIP3   OH224226   4.510   4.218  16.906  0.8247 -0.2269  0.3622
  912TIP3    H124227   4.553   4.170  16.977 -2.6764 -0.2221  2.7630
  912TIP3    H224228   4.441   4.159  16.876  0.6087  0.8126 -1.2953
  913TIP3   OH224229   3.075   0.320   3.723 -0.2340  0.9324  0.2118
  913TIP3    H124230   3.025   0.386   3.771  0.1344  0.9778  0.5445
  913TIP3    H224231   3.046   0.328   3.632 -0.2373  1.5114  0.2600
  914TIP3   OH224232   5.833   3.454   3.249  0.1721 -0.3276  0.4535
  914TIP3    H124233   5.815   3.530   3.304  0.6228 -0.1572  0.3659
  914TIP3    H224234   5.813   3.379   3.305 -2.8596 -0.1805 -0.2777
  915TIP3   OH224235   0.185   2.057   5.260  0.4626  0.0594  0.4265
  915TIP3    H124236   0.271   2.097   5.260 -0.8865  3.2570 -0.9247
  915TIP3    H224237   0.130   2.117   5.311 -1.0526 -1.8277  1.1540
  916TIP3   OH224238   2.745   6.080  11.676  0.2199  0.1575  0.6408
  916TIP3    H124239   2.659   6.065  11.716 -0.6642  3.2737  0.1896
  916TIP3    H224240   2.729   6.071  11.582  0.4653  0.3185  0.5829
  917TIP3   OH224241   0.784   4.157   3.657 -0.1360 -0.0291  0.0081
  917TIP3    H124242   0.829   4.239   3.634 -0.7174  0.0912 -0.7663
  917TIP3    H224243   0.843   4.088   3.628  0.9812  0.0711  1.8953
  918TIP3   OH224244   1.396   6.349  12.763 -0.2896  0.0237 -0.3397
  918TIP3    H124245   1.329   6.320  12.824  0.0549  1.2294  0.6689
  918TIP3    H224246   1.466   6.284  12.772 -0.7379 -0.4668 -0.3473
  919TIP3   OH224247   1.524   4.202  13.126 -0.1689 -0.1608  0.1997
  919TIP3    H124248   1.472   4.145  13.069 -1.8978 -0.3252  1.8674
  919TIP3    H224249   1.567   4.262  13.066  0.0225 -1.8544 -1.4546
  920TIP3   OH224250   4.606   4.195  12.858  0.2715 -0.3894  0.2255
  920TIP3    H124251   4.534   4.175  12.799 -0.6990 -0.2888  1.3497
  920TIP3    H224252   4.578   4.271  12.908 -0.2684 -2.1776  2.9003
  921TIP3   OH224253   1.005   5.042  16.494 -0.2363  0.4154 -0.1684
  921TIP3    H124254   0.969   4.962  16.458  0.9939 -0.3007  0.1233
  921TIP3    H224255   0.989   5.109  16.427 -0.7320 -0.2082 -0.6782
  922TIP3   OH224256   1.464   5.910  16.438 -0.1133 -0.0293 -0.2437
  922TIP3    H124257   1.543   5.937  16.485  1.3186 -0.7577 -2.1041
  922TIP3    H224258   1.455   5.975  16.367 -1.3169  0.1555  0.0533
  923TIP3   OH224259   1.698   5.418   2.669  0.3061  0.2137  0.8526
  923TIP3    H124260   1.759   5.429   2.597  1.5706 -1.1326  1.6638
  923TIP3    H224261   1.626   5.367   2.632 -0.1333  1.4166  0.0075
  924TIP3   OH224262   2.689   4.925  10.860  0.3351  0.1999 -0.4536
  924TIP3    H124263   2.635   4.867  10.806  0.1054 -1.0806  1.0736
  924TIP3    H224264   2.670   5.013  10.827  1.0762 -0.5824 -3.1665
  925TIP3   OH224265   2.477   4.490  14.635 -0.1508 -0.1255  0.1743
  925TIP3    H124266   2.497   4.523  14.548 -0.7418 -0.8243 -0.2348
  925TIP3    H224267   2.382   4.492  14.641 -0.1350 -0.4479  0.6577
  926TIP3   OH224268   2.917   5.186   3.004  0.1216 -0.0947 -0.5179
  926TIP3    H124269   2.931   5.225   2.918  0.1654 -1.2584 -1.0621
  926TIP3    H224270   2.841   5.233   3.039  2.0725  2.7191  0.2844
  927TIP3   OH224271   1.081   3.618  11.557 -0.0346 -0.3928  0.4817
  927TIP3    H124272   0.991   3.600  11.531  0.2841  1.3215 -2.2129
  927TIP3    H224273   1.111   3.537  11.599 -2.7189 -1.0694  1.2484
  928TIP3   OH224274   3.133   5.277  13.656 -0.3343 -0.0881 -0.4734
  928TIP3    H124275   3.120   5.278  13.751 -1.3171  0.4822 -0.5998
  928TIP3    H224276   3.175   5.192  13.638 -1.0781 -0.6413  0.3490
  929TIP3   OH224277   6.834   1.342   2.272 -0.2532  0.0840 -0.2270
  929TIP3    H124278   6.854   1.257   2.232 -2.0047  0.2737 -1.6491
  929TIP3    H224279   6.892   1.404   2.227 -0.2704 -0.0990 -0.5003
  930TIP3   OH224280   0.449   4.273  14.452 -0.8967  0.1501  0.2610
  930TIP3    H124281   0.432   4.179  14.465 -0.2022 -0.1420 -0.8240
  930TIP3    H224282   0.537   4.286  14.489  0.0472 -0.1722 -1.7428
  931TIP3   OH224283   5.270   1.336  15.185  0.3340  0.7260  0.2687
  931TIP3    H124284   5.335   1.381  15.131  0.5560 -1.0318 -1.0142
  931TIP3    H224285   5.233   1.405  15.240  1.3805  2.2609 -0.8602
  932TIP3   OH224286   5.487   5.874  16.034 -0.1704 -0.1977  0.5239
  932TIP3    H124287   5.432   5.917  15.968 -0.2038  2.6445  2.2405
  932TIP3    H224288   5.576   5.900  16.012  0.2834 -2.3929 -0.5291
  933TIP3   OH224289   1.747   5.469   2.246 -0.0128 -0.6013 -0.1959
  933TIP3    H124290   1.697   5.455   2.167  1.8750  1.2458 -1.8421
  933TIP3    H224291   1.708   5.548   2.286 -0.4219 -1.0380  0.2862
  934TIP3   OH224292   2.508   1.507  13.126  0.6879 -0.1802  0.5150
  934TIP3    H124293   2.446   1.531  13.195 -0.2387 -1.5575  0.2030
  934TIP3    H224294   2.496   1.573  13.058 -1.1953 -0.9650  0.0267
  935TIP3   OH224295   4.220   0.253  12.900 -0.0825 -0.2292 -0.2664
  935TIP3    H124296   4.128   0.252  12.926 -0.3029  1.7224 -0.8087
  935TIP3    H224297   4.254   0.335  12.934  1.3334 -0.6650 -0.5434
  936TIP3   OH224298   4.621   1.771   4.900 -0.4730  0.0731  0.0550
  936TIP3    H124299   4.657   1.775   4.811 -1.6719 -0.3358 -0.4632
  936TIP3    H224300   4.682   1.823   4.953  0.3593  0.1661 -0.9652
  937TIP3   OH224301   5.554   5.405  13.582  1.0479 -0.1600  0.5642
  937TIP3    H124302   5.620   5.351  13.624  0.3636 -1.3431  0.1610
  937TIP3    H224303   5.518   5.459  13.653  0.3127 -1.7103  1.4132
  938TIP3   OH224304   3.719   1.646   1.822  0.2771  0.1408 -0.6724
  938TIP3    H124305   3.768   1.621   1.744  0.9902  0.3195 -0.2950
  938TIP3    H224306   3.748   1.583   1.889  0.4793  0.6451 -0.2815
  939TIP3   OH224307   0.101   6.756   0.021 -0.2047  0.4331  0.7121
  939TIP3    H124308   0.056   6.675  -0.003  0.2746 -0.2189  1.9011
  939TIP3    H224309   0.187   6.728   0.051  1.1381  1.6939 -1.7495
  940TIP3   OH224310   3.668   3.603  11.713  0.1179  0.0672 -0.1184
  940TIP3    H124311   3.604   3.601  11.642  1.0688 -0.8731 -0.9772
  940TIP3    H224312   3.706   3.515  11.714 -0.2026 -0.0966  1.8733
  941TIP3   OH224313   6.419   3.387  12.498  0.2915  0.5002  0.0685
  941TIP3    H124314   6.513   3.396  12.484  0.1404 -0.1855 -1.6091
  941TIP3    H224315   6.402   3.293  12.492 -0.4487  0.5735  0.7683
  942TIP3   OH224316   1.853   2.528  16.552  0.2102 -0.0758 -0.3492
  942TIP3    H124317   1.901   2.461  16.600 -0.9352 -0.8032 -0.1710
  942TIP3    H224318   1.917   2.597  16.536  1.7034 -1.6434 -1.4525
  943TIP3   OH224319   5.928   1.554  10.613  0.2813 -0.5789  0.0820
  943TIP3    H124320   6.022   1.543  10.597  0.1174 -1.9901 -0.0212
  943TIP3    H224321   5.916   1.649  10.619  2.0268 -0.4111  2.0985
  944TIP3   OH224322   4.193   0.582  15.383  0.3050  0.3782 -0.0287
  944TIP3    H124323   4.148   0.606  15.301  2.0462  1.3002 -0.7772
  944TIP3    H224324   4.151   0.500  15.410 -0.3064  0.0195 -1.8749
  945TIP3   OH224325   5.839   5.623  15.980 -0.6046 -0.1321 -0.2347
  945TIP3    H124326   5.904   5.562  15.946  1.8048  1.0159  1.9653
  945TIP3    H224327   5.822   5.683  15.908  1.3003 -0.1081 -0.7183
  946TIP3   OH224328   2.426   0.946   3.417 -0.4591  0.5257  0.1991
  946TIP3    H124329   2.428   0.876   3.482  1.3525 -1.0605 -1.4262
  946TIP3    H224330   2.338   0.983   3.424 -1.4770 -1.8733  1.1859
  947TIP3   OH224331   0.711   6.343  15.971 -0.3040 -0.0382 -0.7100
  947TIP3    H124332   0.698   6.273  16.034 -1.2022  1.6893  1.1227
  947TIP3    H224333   0.801   6.372  15.985 -0.0174 -0.6104 -1.2899
  948TIP3   OH224334   4.639   1.498  12.051  0.5945  0.0705  1.0235
  948TIP3    H124335   4.657   1.464  11.963  1.6651 -0.4774  1.4318
  948TIP3    H224336   4.549   1.469  12.070  0.2697  0.3939  0.0332
  949TIP3   OH224337   6.457   0.889  14.869  0.2744  0.4011 -0.0408
  949TIP3    H124338   6.454   0.983  14.885  0.3232  0.2138  1.1625
  949TIP3    H224339   6.534   0.859  14.917 -0.4776 -0.4430  0.6599
  950TIP3   OH224340   0.765   2.240   2.816  0.3944  0.1019 -0.4580
  950TIP3    H124341   0.709   2.243   2.738  0.3212  0.1697 -0.4028
  950TIP3    H224342   0.720   2.181   2.876 -0.1429  0.9399 -0.0120
  951TIP3   OH224343   4.972   4.799  17.162  0.0748  0.1718 -0.0600
  951TIP3    H124344   4.911   4.871  17.175 -0.4519 -0.2261 -0.3182
  951TIP3    H224345   5.038   4.811  17.231  0.8720  1.8000 -1.0493
  952TIP3   OH224346   1.530   1.563   5.052 -0.4225  0.7169 -0.2734
  952TIP3    H124347   1.476   1.610   4.988 -1.5839  0.8907  0.7974
  952TIP3    H224348   1.602   1.527   5.000 -2.5174 -1.1396 -2.1389
  953TIP3   OH224349   2.705   1.317   2.121  0.6440 -0.6158 -0.1257
  953TIP3    H124350   2.793   1.352   2.112  0.5051  0.1866  1.3094
  953TIP3    H224351   2.679   1.292   2.032  1.1913  1.8575 -1.0570
  954TIP3   OH224352   0.295   5.325  14.719  0.1209 -0.0655  0.4141
  954TIP3    H124353   0.340   5.241  14.716  0.6057  0.2191 -0.7396
  954TIP3    H224354   0.256   5.328  14.806 -0.3883 -1.7313  0.2684
  955TIP3   OH224355   2.317   0.487   0.418 -0.2711 -0.9410  0.5040
  955TIP3    H124356   2.345   0.399   0.442  0.5779 -0.8249 -0.0205
  955TIP3    H224357   2.366   0.507   0.338 -1.4123 -0.4873 -0.1079
  956TIP3   OH224358   6.698   1.378  12.031 -0.0982 -0.2259  0.5256
  956TIP3    H124359   6.692   1.336  12.117 -0.0019 -0.7510  0.2812
  956TIP3    H224360   6.665   1.312  11.970 -0.7980  0.3847  0.2249
  957TIP3   OH224361   1.881   4.258  16.357 -0.2322 -0.4480 -0.1229
  957TIP3    H124362   1.813   4.201  16.322 -2.1826  1.9260 -0.4465
  957TIP3    H224363   1.872   4.340  16.308  2.0263  0.4114  0.7431
  958TIP3   OH224364   5.107   2.076  16.281  0.0760  0.1090  0.2571
  958TIP3    H124365   5.202   2.072  16.269  0.1318 -0.5182  0.8617
  958TIP3    H224366   5.081   1.986  16.302 -0.3507  0.6366  2.1796
  959TIP3   OH224367   5.211   6.830   1.052  0.0938 -0.4439 -0.3631
  959TIP3    H124368   5.208   6.736   1.067 -1.3873 -0.4586 -0.6868
  959TIP3    H224369   5.167   6.843   0.969 -0.6472  0.6258  0.1708
  960TIP3   OH224370   0.544   6.759   3.465  0.4762  0.6615 -0.3307
  960TIP3    H124371   0.618   6.716   3.422 -0.6250 -0.1555 -1.5095
  960TIP3    H224372   0.582   6.806   3.539  2.2971  1.1253 -1.5017
  961TIP3   OH224373   4.246   2.057   0.023  0.7507  0.0073 -0.4538
  961TIP3    H124374   4.166   2.029  -0.023  0.1868 -2.5058  1.8119
  961TIP3    H224375   4.214   2.093   0.106  1.9111  1.1109 -0.4625
  962TIP3   OH224376   2.864   2.903   2.703  0.1843 -0.2944 -0.5270
  962TIP3    H124377   2.793   2.841   2.723  0.5215  0.0479  1.9800
  962TIP3    H224378   2.885   2.885   2.611 -3.1569 -0.3752 -1.4231
  963TIP3   OH224379   3.561   4.551   1.631 -0.1014 -0.7237 -0.0039
  963TIP3    H124380   3.465   4.554   1.632 -0.2295 -2.2907 -1.9246
  963TIP3    H224381   3.586   4.628   1.580 -0.4986 -1.5403 -1.4942
  964TIP3   OH224382   3.603   5.926   2.424  0.4516 -0.2926  0.1756
  964TIP3    H124383   3.603   5.870   2.346  0.4195  1.6700 -1.2971
  964TIP3    H224384   3.686   5.905   2.468  0.3985 -1.5432 -0.2828
  965TIP3   OH224385   4.286   5.779   1.950  0.2743 -0.1517 -0.4665
  965TIP3    H124386   4.223   5.709   1.963 -1.3695  1.1376 -1.0773
  965TIP3    H224387   4.285   5.828   2.032  0.0960  0.1530 -0.6481
  966TIP3   OH224388   6.105   1.797  16.233  0.2845  0.1810  0.5671
  966TIP3    H124389   6.141   1.775  16.147 -1.4050  1.5890 -0.5652
  966TIP3    H224390   6.181   1.821  16.286  1.3609 -0.7455 -0.4972
  967TIP3   OH224391   1.735   5.798  14.495  0.1520  0.1572  0.3277
  967TIP3    H124392   1.760   5.842  14.413  1.0348  0.2736  0.6470
  967TIP3    H224393   1.819   5.775  14.536 -0.2728 -1.9675  0.1213
  968TIP3   OH224394   4.182   6.833  15.830 -0.0987 -0.3058 -0.0946
  968TIP3    H124395   4.168   6.753  15.881 -0.4797 -0.0236  0.2476
  968TIP3    H224396   4.130   6.818  15.750  1.5154 -1.2903 -1.0116
  969TIP3   OH224397   2.668   4.434  16.938  0.3332 -0.0171  0.1838
  969TIP3    H124398   2.749   4.463  16.980  0.9960 -0.7908 -0.5323
  969TIP3    H224399   2.614   4.514  16.932  1.2240  0.5983  0.2364
  970TIP3   OH224400   0.014   4.283  16.361 -0.4156 -0.2893  0.5303
  970TIP3    H124401   0.092   4.275  16.307 -0.7763  0.7196 -0.1658
  970TIP3    H224402   0.009   4.199  16.408 -0.5837 -1.6037 -1.6679
  971TIP3   OH224403   1.885   3.687   1.790  0.3146  0.3408 -0.2269
  971TIP3    H124404   1.921   3.680   1.878  2.6429  0.4775 -1.0839
  971TIP3    H224405   1.857   3.598   1.767 -0.4127  0.3283  0.6500
  972TIP3   OH224406   4.432   6.345  10.837  0.2212  0.5522 -0.0515
  972TIP3    H124407   4.503   6.283  10.852  0.9266  1.0681 -1.0902
  972TIP3    H224408   4.471   6.431  10.858 -0.8712  0.6524  1.8144
  973TIP3   OH224409   1.508   1.767  11.056  0.0542  0.0510  0.1416
  973TIP3    H124410   1.438   1.746  11.118  0.2647  0.3143  0.4724
  973TIP3    H224411   1.588   1.766  11.109  0.0200  2.3306  0.3365
  974TIP3   OH224412   6.726   1.226   4.439 -0.0521  0.4042 -0.7988
  974TIP3    H124413   6.666   1.197   4.508  0.2792 -1.7331 -1.3230
  974TIP3    H224414   6.670   1.267   4.373 -0.6645  0.3418 -0.3248
  975TIP3   OH224415   6.596   4.254  12.417  0.5906 -0.2701  0.6189
  975TIP3    H124416   6.628   4.343  12.428  0.2306 -0.1304  0.5407
  975TIP3    H224417   6.668   4.207  12.375  0.1980  0.3851 -0.8483
  976TIP3   OH224418   4.171   0.886   2.621 -0.4774  0.4996 -0.1060
  976TIP3    H124419   4.128   0.801   2.616  0.9823 -0.3353  0.6672
  976TIP3    H224420   4.220   0.883   2.703  0.7986  1.5036 -0.7884
  977TIP3   OH224421   5.875   2.676  14.081  0.0575 -0.1156 -0.0100
  977TIP3    H124422   5.826   2.613  14.134 -0.6506 -0.2048 -0.7353
  977TIP3    H224423   5.827   2.758  14.093  0.1871 -0.0260 -0.1144
  978TIP3   OH224424   1.629   6.802  13.870  0.1941  0.1482 -0.0465
  978TIP3    H124425   1.663   6.849  13.945 -0.0634 -0.2234  0.3090
  978TIP3    H224426   1.620   6.868  13.801  1.2064  0.3307 -0.0123
  979TIP3   OH224427   2.985   0.644  13.264  0.3539 -0.0686 -0.2476
  979TIP3    H124428   2.969   0.600  13.347 -1.0093 -0.1577 -0.5369
  979TIP3    H224429   2.980   0.738  13.285  2.2805 -0.0182  0.1771
  980TIP3   OH224430   4.748   3.314   3.165 -0.8443 -0.3615 -0.5500
  980TIP3    H124431   4.734   3.228   3.204 -1.3901 -1.3926 -2.8415
  980TIP3    H224432   4.819   3.301   3.102  0.5974  1.4213  0.5818
  981TIP3   OH224433   4.615   5.282  15.404 -0.1782 -0.2667 -0.0347
  981TIP3    H124434   4.687   5.225  15.374  0.4384 -0.0240  0.9625
  981TIP3    H224435   4.633   5.367  15.364  0.6159  0.0431  0.9537
  982TIP3   OH224436   4.631   1.688   1.070 -0.1277 -0.7465  0.1629
  982TIP3    H124437   4.583   1.658   1.147  0.9720  1.8441  2.0368
  982TIP3    H224438   4.723   1.667   1.089  0.1723  0.0350 -0.3437
  983TIP3   OH224439   0.354   4.634  12.536  0.4315 -0.8524  0.5558
  983TIP3    H124440   0.370   4.540  12.534 -0.7804 -1.0702 -1.4557
  983TIP3    H224441   0.428   4.673  12.489  1.7199 -0.5931  2.6599
  984TIP3   OH224442   2.062   3.904   1.508  0.2858 -0.8650 -0.1087
  984TIP3    H124443   2.120   3.843   1.552 -0.2662 -1.7398 -0.5695
  984TIP3    H224444   2.066   3.880   1.416 -0.6451 -0.8110 -0.1747
  985TIP3   OH224445   0.604   2.077  10.096  0.1580 -0.2924 -0.1465
  985TIP3    H124446   0.658   1.999  10.101  0.5744 -0.0867 -1.1499
  985TIP3    H224447   0.663   2.146  10.067  0.0779  0.7101  1.9569
  986TIP3   OH224448   6.038   3.533  16.377 -0.2511 -0.4953  0.6259
  986TIP3    H124449   5.989   3.462  16.419 -0.7880  0.2506  1.2691
  986TIP3    H224450   6.097   3.565  16.445  0.8762 -1.1179 -0.0248
  987TIP3   OH224451   5.524   0.287  12.548 -0.0145  0.0347 -0.5440
  987TIP3    H124452   5.559   0.374  12.530 -0.0625 -0.1858 -1.8435
  987TIP3    H224453   5.578   0.254  12.619 -1.2339  1.8491  1.3271
  988TIP3   OH224454   1.136   6.018   1.157 -0.1106  0.8119  0.1717
  988TIP3    H124455   1.107   6.089   1.214  0.6431 -0.5785  2.4372
  988TIP3    H224456   1.071   5.949   1.169  0.1260  0.4541 -0.5595
  989TIP3   OH224457   1.695   5.209   4.879 -0.1846 -0.0501  0.2002
  989TIP3    H124458   1.663   5.284   4.928  0.2877 -0.4172  1.0919
  989TIP3    H224459   1.790   5.211   4.890 -0.0816 -0.2280 -0.5767
  990TIP3   OH224460   5.077   6.801   0.826  0.5457 -0.3152 -0.0137
  990TIP3    H124461   4.984   6.813   0.805  0.4865 -1.1780 -0.2847
  990TIP3    H224462   5.103   6.723   0.776  1.0643 -0.9062  1.1352
  991TIP3   OH224463   3.145   0.577   1.954  0.4477 -0.8838 -0.3541
  991TIP3    H124464   3.178   0.492   1.924  1.8345 -0.0703 -1.2734
  991TIP3    H224465   3.052   0.575   1.934  0.3853 -2.3203 -0.0196
  992TIP3   OH224466   5.024   3.713   2.194  0.1758 -0.1144  0.0095
  992TIP3    H124467   5.112   3.736   2.224 -0.5561  1.0258  1.3901
  992TIP3    H224468   5.025   3.617   2.186  0.8940 -0.3419  2.2202
  993TIP3   OH224469   1.342   0.660  16.598 -0.8797 -0.3903  0.3692
  993TIP3    H124470   1.258   0.631  16.563 -1.4616 -0.1924  1.5585
  993TIP3    H224471   1.327   0.671  16.692  0.1660  0.7552  0.4348
  994TIP3   OH224472   1.964   5.183  15.524  0.6583 -0.5666 -0.0400
  994TIP3    H124473   2.024   5.257  15.513 -0.6012  0.5658  0.3987
  994TIP3    H224474   2.005   5.129  15.592  1.2779  0.0719  0.1023
  995TIP3   OH224475   5.515   5.438  14.106 -0.0133  0.3286  0.1188
  995TIP3    H124476   5.440   5.394  14.145 -0.2088  1.2595  0.8346
  995TIP3    H224477   5.553   5.374  14.046 -1.2105 -0.2371 -0.0429
  996TIP3   OH224478   4.591   4.766   1.619 -0.7878  0.3680  0.0476
  996TIP3    H124479   4.646   4.705   1.669 -1.8928  0.3687  1.3238
  996TIP3    H224480   4.623   4.853   1.644 -0.7294  0.3534  0.0248
  997TIP3   OH224481   4.198   0.310  13.945 -0.1688  0.2057 -0.2788
  997TIP3    H124482   4.260   0.261  13.999 -2.0516  0.1672  1.9902
  997TIP3    H224483   4.171   0.247  13.877 -0.5951 -1.0922  1.0325
  998TIP3   OH224484   6.298   0.780  16.790 -0.5231 -0.0744  0.2507
  998TIP3    H124485   6.323   0.854  16.736  0.0173 -0.2434  0.2647
  998TIP3    H224486   6.203   0.788  16.800 -0.3345  1.2705  1.2358
  999TIP3   OH224487   2.835   6.241  14.624 -0.1721 -0.5886 -0.0614
  999TIP3    H124488   2.837   6.334  14.601 -0.2552 -0.6080 -0.1500
  999TIP3    H224489   2.915   6.205  14.585  0.9757 -0.1491  1.7784
 1000TIP3   OH224490   5.391   1.869  12.253  0.3457  0.0140  0.0316
 1000TIP3    H124491   5.341   1.942  12.290  0.9494 -0.8275  2.7791
 1000TIP3    H224492   5.477   1.906  12.235 -0.4689  0.8939 -2.5209
 1001TIP3   OH224493   0.644   6.729  13.405  0.2329 -0.1305 -0.5530
 1001TIP3    H124494   0.729   6.768  13.423 -0.4267  1.3829 -0.5988
 1001TIP3    H224495   0.663   6.636  13.387  1.7914  0.0794 -0.0686
 1002TIP3   OH224496   0.064   2.811   1.589  0.3705  0.6933 -0.1116
 1002TIP3    H124497   0.103   2.787   1.672 -0.6895 -3.3479 -0.5886
 1002TIP3    H224498  -0.030   2.812   1.605  0.2238  2.3935 -0.7780
 1003TIP3   OH224499   5.766   5.322  13.723 -0.1633 -0.4498  0.1035
 1003TIP3    H124500   5.801   5.401  13.764  0.8601 -2.0141  2.5565
 1003TIP3    H224501   5.841   5.284  13.677 -0.4551 -0.3373 -0.4599
 1004TIP3   OH224502   5.334   6.484   4.107 -0.4230 -0.0517  0.4944
 1004TIP3    H124503   5.310   6.427   4.033  1.6124  0.5880 -0.7251
 1004TIP3    H224504   5.251   6.498   4.153 -1.5991 -1.2419 -1.1131
 1005TIP3   OH224505   4.734   3.235   1.500  0.3140  0.3271 -0.0232
 1005TIP3    H124506   4.664   3.287   1.540 -0.6583 -1.3333  0.5094
 1005TIP3    H224507   4.745   3.275   1.413 -1.2446  0.6825 -0.0936
 1006TIP3   OH224508   6.339   5.106  12.195  0.3434  0.7596  0.0570
 1006TIP3    H124509   6.410   5.164  12.169  0.3351  1.0275  0.6029
 1006TIP3    H224510   6.296   5.152  12.268 -0.8360  0.9354 -0.7178
 1007TIP3   OH224511   3.280   5.065   0.684 -0.8184 -0.0682 -0.2946
 1007TIP3    H124512   3.305   5.070   0.592  0.3284 -0.9223 -0.0581
 1007TIP3    H224513   3.202   5.009   0.685  0.5725 -2.1398 -0.5658
 1008TIP3   OH224514   6.612   2.674  13.454 -0.6966 -0.7204  0.2059
 1008TIP3    H124515   6.611   2.689  13.548 -0.6220 -0.8621  0.2290
 1008TIP3    H224516   6.645   2.584  13.444  0.5702 -0.2567 -0.0186
 1009TIP3   OH224517   4.110   1.593   3.390 -0.1697  0.9301  0.4396
 1009TIP3    H124518   4.049   1.641   3.335  0.1718 -0.9806 -1.7693
 1009TIP3    H224519   4.196   1.607   3.349  0.2719  0.3500  1.1281
 1010TIP3   OH224520   0.552   2.950  11.124 -0.4001  0.2620 -0.3242
 1010TIP3    H124521   0.647   2.938  11.132  0.0419  2.0175 -2.1552
 1010TIP3    H224522   0.533   3.024  11.181 -0.9972 -1.0559  1.2724
 1011TIP3   OH224523   4.513   5.453   5.311 -0.3277  0.1961 -0.1704
 1011TIP3    H124524   4.590   5.402   5.287 -1.3015 -1.3096 -0.2530
 1011TIP3    H224525   4.502   5.516   5.239  1.2497  0.9650  0.2360
 1012TIP3   OH224526   2.671   2.852  13.020 -0.5048  0.5842 -0.6854
 1012TIP3    H124527   2.761   2.877  13.040 -0.5782  1.5207 -1.4926
 1012TIP3    H224528   2.621   2.875  13.098  0.1366 -1.1382  0.2932
 1013TIP3   OH224529   2.080   4.272  13.609  0.0988  0.0572 -0.9740
 1013TIP3    H124530   2.099   4.189  13.653  1.0105  1.2247  0.9316
 1013TIP3    H224531   1.986   4.284  13.621 -0.1215 -0.8544 -1.6219
 1014TIP3   OH224532   4.267   2.543  16.051 -0.2492 -0.3679  0.2889
 1014TIP3    H124533   4.321   2.465  16.041 -0.4401 -0.3912 -0.7010
 1014TIP3    H224534   4.326   2.608  16.089 -0.0007 -0.8832  0.8198
 1015TIP3   OH224535   0.905   4.209   1.600 -0.2786  0.7808 -0.1396
 1015TIP3    H124536   0.812   4.230   1.609 -0.4798 -0.3395  0.5932
 1015TIP3    H224537   0.942   4.229   1.687 -0.2258 -0.5762  0.1717
 1016TIP3   OH224538   0.900   1.173   3.661  0.7102  0.1967 -0.0082
 1016TIP3    H124539   0.825   1.168   3.602 -0.1348 -0.2747  1.0663
 1016TIP3    H224540   0.898   1.263   3.694 -0.6164 -0.3510  1.5290
 1017TIP3   OH224541   6.392   6.636  13.912 -0.4162  0.0557 -0.4193
 1017TIP3    H124542   6.303   6.663  13.935 -0.5111  0.9634 -1.7324
 1017TIP3    H224543   6.392   6.633  13.817  0.9085 -0.1187 -0.4300
 1018TIP3   OH224544   4.306   6.684  15.611  0.5480 -0.5471 -0.2279
 1018TIP3    H124545   4.271   6.744  15.545  0.9499  0.5396  0.5276
 1018TIP3    H224546   4.284   6.725  15.694  0.1801 -1.8297  0.3299
 1019TIP3   OH224547   4.377   2.829   1.864 -0.1544  0.4949 -0.4108
 1019TIP3    H124548   4.349   2.862   1.779 -1.1425  1.5701  0.3032
 1019TIP3    H224549   4.386   2.907   1.918 -1.4319 -0.3002  1.0164
 1020TIP3   OH224550   5.185   0.387  12.650 -0.2231  0.0777  0.0933
 1020TIP3    H124551   5.277   0.375  12.629 -0.7518 -0.3663 -2.2729
 1020TIP3    H224552   5.144   0.304  12.629 -1.4185  0.8210 -0.6734
 1021TIP3   OH224553   2.390   3.573   2.541  0.1240 -0.8127 -0.0615
 1021TIP3    H124554   2.457   3.521   2.496  0.4386 -0.1059 -0.4343
 1021TIP3    H224555   2.356   3.631   2.473  0.4474  0.1165  0.5593
 1022TIP3   OH224556   5.190   0.843  12.021  0.4988  0.5778 -0.7376
 1022TIP3    H124557   5.210   0.882  12.106 -0.1233 -0.3970 -0.1252
 1022TIP3    H224558   5.147   0.913  11.972  0.6980  1.0944 -0.1880
 1023TIP3   OH224559   5.913   5.500   0.837  0.3835 -0.5905 -0.5450
 1023TIP3    H124560   5.953   5.503   0.750 -0.3906  0.5339 -0.8911
 1023TIP3    H224561   5.859   5.421   0.836 -0.2289 -0.1799 -1.3793
 1024TIP3   OH224562   2.619   5.659  10.318  0.0510 -0.1705  0.2575
 1024TIP3    H124563   2.645   5.569  10.340 -0.1607 -0.4896 -0.7278
 1024TIP3    H224564   2.675   5.683  10.244 -0.2133  0.3378  0.2161
 1025TIP3   OH224565   1.117   6.419   3.172 -0.3727 -0.5573 -0.4538
 1025TIP3    H124566   1.168   6.430   3.253 -0.4685  0.1849 -0.4859
 1025TIP3    H224567   1.075   6.333   3.182 -4.2985  1.3885  2.5786
 1026TIP3   OH224568   1.975   5.729  15.724  0.2509  0.1330  0.0093
 1026TIP3    H124569   2.048   5.683  15.683 -1.6950 -4.7844  1.2453
 1026TIP3    H224570   1.934   5.778  15.653  2.3981 -0.2017 -1.5635
 1027TIP3   OH224571   0.900   3.569   4.333  0.1522 -0.1028  0.3963
 1027TIP3    H124572   0.990   3.578   4.300  0.6844 -0.1139  1.7416
 1027TIP3    H224573   0.848   3.545   4.257  1.3302 -0.2648 -0.3853
 1028TIP3   OH224574   3.103   0.030   5.100  0.5575 -0.3552  0.5335
 1028TIP3    H124575   3.021  -0.001   5.137 -0.4930 -0.5828 -1.7952
 1028TIP3    H224576   3.156  -0.049   5.088  0.1537 -0.5274 -0.1497
 1029TIP3   OH224577   6.474   2.265   1.619 -0.0929 -0.4699 -0.4485
 1029TIP3    H124578   6.546   2.265   1.682 -0.1698 -1.1993 -0.3481
 1029TIP3    H224579   6.492   2.340   1.562 -0.6362  0.8866  1.1016
 1030TIP3   OH224580   3.843   3.182   5.108  0.3014 -0.0620  0.3138
 1030TIP3    H124581   3.840   3.119   5.036  0.5621 -0.0719  0.3120
 1030TIP3    H224582   3.875   3.131   5.183 -0.0442 -0.0711  0.4583
 1031TIP3   OH224583   6.723   2.912  15.632  0.2974 -0.3307  0.6220
 1031TIP3    H124584   6.673   2.955  15.563  1.5559 -1.0699 -0.7970
 1031TIP3    H224585   6.659   2.853  15.674 -0.8872  1.2803  1.2009
 1032TIP3   OH224586   0.192   6.554  10.154 -0.4866 -0.3761 -0.2872
 1032TIP3    H124587   0.166   6.643  10.178 -1.4044 -1.1254  1.6648
 1032TIP3    H224588   0.286   6.551  10.171 -0.2757  0.4294 -1.1729
 1033TIP3   OH224589   0.978   0.968   2.994  0.3523  0.5544  0.0239
 1033TIP3    H124590   1.065   1.000   2.971  1.8567 -0.7232  3.2232
 1033TIP3    H224591   0.981   0.874   2.978 -1.9961  0.9074 -3.6944
 1034TIP3   OH224592   1.135   3.911  14.928  0.5641 -0.7778 -0.7969
 1034TIP3    H124593   1.217   3.905  14.976  0.1886  0.0838 -0.0239
 1034TIP3    H224594   1.117   4.005  14.922 -0.2904 -0.9522 -1.0815
 1035TIP3   OH224595   2.033   0.885  16.819 -0.3742 -0.1018 -0.4131
 1035TIP3    H124596   2.046   0.966  16.869 -0.2225  0.1606 -0.8671
 1035TIP3    H224597   2.115   0.874  16.770 -0.5636 -0.2891 -0.6915
 1036TIP3   OH224598   6.016   3.955   2.573  0.0064  0.0666  0.3832
 1036TIP3    H124599   5.952   3.887   2.594  0.4790 -0.4924  0.0119
 1036TIP3    H224600   6.087   3.942   2.635 -1.3663  2.3623  2.6414
 1037TIP3   OH224601   0.256   1.709   3.522 -0.4419 -0.5929  0.0548
 1037TIP3    H124602   0.257   1.683   3.614 -1.1430  0.7098  0.4524
 1037TIP3    H224603   0.328   1.772   3.515 -1.9933  1.3115  0.3685
 1038TIP3   OH224604   2.842   4.321  12.093  0.0025 -1.0030  0.2434
 1038TIP3    H124605   2.866   4.399  12.143  0.4254  0.2906 -1.8268
 1038TIP3    H224606   2.821   4.255  12.159  0.6464  0.5378  2.0811
 1039TIP3   OH224607   5.651   6.677  13.776  0.6980 -0.1822 -0.1801
 1039TIP3    H124608   5.581   6.726  13.735  0.7761 -1.1233 -1.5058
 1039TIP3    H224609   5.619   6.657  13.864 -0.5448 -0.2873 -0.6432
 1040TIP3   OH224610   3.600   0.084   4.232 -0.3556  0.9036  0.0564
 1040TIP3    H124611   3.533   0.033   4.186  1.0980 -1.3787  0.3062
 1040TIP3    H224612   3.627   0.151   4.168  0.4912 -1.1875 -1.9576
 1041TIP3   OH224613   2.071   1.931   2.315  0.3218  0.8933 -0.6665
 1041TIP3    H124614   2.127   1.876   2.370 -2.5116  0.3933  1.9995
 1041TIP3    H224615   2.058   1.880   2.236  0.4470 -0.7760  0.3407
 1042TIP3   OH224616   3.683   1.404   4.275 -0.0951  0.1467 -0.0187
 1042TIP3    H124617   3.721   1.487   4.303 -0.8760  0.7870 -0.7820
 1042TIP3    H224618   3.750   1.363   4.220 -0.3555  1.1166 -1.1047
 1043TIP3   OH224619   5.695   0.050  11.549 -0.2139  0.0926  0.0229
 1043TIP3    H124620   5.634  -0.006  11.501  0.1745  0.6279 -1.1109
 1043TIP3    H224621   5.745  -0.011  11.603 -1.7203 -0.3637  0.9934
 1044TIP3   OH224622   0.997   0.630  15.782  0.1233  1.3178  0.8680
 1044TIP3    H124623   1.006   0.692  15.710  0.8031 -1.1871 -1.3435
 1044TIP3    H224624   1.080   0.635  15.829  1.4853 -0.0946 -1.2370
 1045TIP3   OH224625   1.222   1.126   0.424  0.2521 -0.0147  0.0000
 1045TIP3    H124626   1.261   1.156   0.342  1.4356  1.0356  0.8976
 1045TIP3    H224627   1.247   1.193   0.488 -1.0437 -0.5607  1.1235
 1046TIP3   OH224628   6.161   5.629  15.061  0.4227  0.2378  0.0861
 1046TIP3    H124629   6.210   5.635  14.978  1.9193 -0.5384  0.8679
 1046TIP3    H224630   6.195   5.700  15.115 -0.1409  0.3920  0.2476
 1047TIP3   OH224631   1.138   1.209  13.492  0.2735  0.5654  0.2249
 1047TIP3    H124632   1.219   1.165  13.517  1.1257  1.2154 -1.2373
 1047TIP3    H224633   1.123   1.183  13.401  0.8118  3.2121 -0.7134
 1048TIP3   OH224634   3.626   1.479   0.567 -0.1039  0.0160  0.5681
 1048TIP3    H124635   3.570   1.474   0.489  2.0191  1.4261 -1.1574
 1048TIP3    H224636   3.626   1.389   0.601  0.5857 -1.2244 -2.3569
 1049TIP3   OH224637   6.646   6.549  13.112 -0.2105  0.7504  0.0760
 1049TIP3    H124638   6.608   6.548  13.024  0.9634 -0.9684 -0.4709
 1049TIP3    H224639   6.684   6.636  13.120 -0.8316  1.1309 -0.9036
 1050TIP3   OH224640   2.437   5.807   3.039 -0.2759 -0.0368 -0.1807
 1050TIP3    H124641   2.393   5.892   3.041 -2.5746 -1.1340  0.0645
 1050TIP3    H224642   2.445   5.782   3.131  0.1962 -0.1766 -0.2587
 1051TIP3   OH224643   5.623   5.388  15.752  1.1074  0.6073  0.5065
 1051TIP3    H124644   5.573   5.467  15.772  3.1662  2.5769 -1.4718
 1051TIP3    H224645   5.667   5.407  15.669  3.8089 -1.5622  1.2472
 1052TIP3   OH224646   0.940   1.060  15.971 -0.0790  0.3311  0.6162
 1052TIP3    H124647   1.014   1.119  15.954  0.3193 -0.0621  0.9755
 1052TIP3    H224648   0.957   1.024  16.058 -1.7389  1.7809  1.6135
 1053TIP3   OH224649   3.233   3.538  14.736  0.5650 -0.3167 -0.3717
 1053TIP3    H124650   3.316   3.533  14.784  0.1012 -3.6431  0.3091
 1053TIP3    H224651   3.177   3.474  14.778 -1.5247  0.0281 -2.4230
 1054TIP3   OH224652   2.283   4.936   6.503  0.8813 -0.2812  0.0998
 1054TIP3    H124653   2.199   4.978   6.485  1.3338  0.1649 -1.0818
 1054TIP3    H224654   2.293   4.872   6.432  2.5127  1.1938 -1.0696
 1055TIP3   OH224655   1.103   3.722   2.136 -0.7676 -0.4389  0.0324
 1055TIP3    H124656   1.041   3.770   2.081  1.6080  2.3551 -0.4037
 1055TIP3    H224657   1.049   3.688   2.208 -3.2557 -0.7470 -1.8161
 1056TIP3   OH224658   4.971   1.290   0.303 -0.1368  0.1468  0.1186
 1056TIP3    H124659   4.908   1.354   0.334  0.0387  0.0736  0.6529
 1056TIP3    H224660   5.007   1.251   0.383  3.7381  3.1835  0.1445
 1057TIP3   OH224661   1.699   2.000  15.654  0.0499 -0.5578 -0.5388
 1057TIP3    H124662   1.781   2.041  15.682 -1.0945  1.0725  0.5787
 1057TIP3    H224663   1.696   1.918  15.703  0.8164 -0.4365 -0.2670
 1058TIP3   OH224664   2.707   1.155  13.750  0.5497 -0.0129 -0.4433
 1058TIP3    H124665   2.661   1.086  13.702 -1.1053  0.8881 -0.2515
 1058TIP3    H224666   2.666   1.236  13.719  2.1939  0.8747 -0.4017
 1059TIP3   OH224667   4.725   5.449  13.695 -0.1720 -0.1312 -0.7049
 1059TIP3    H124668   4.806   5.490  13.663  0.1992 -0.4284 -0.1661
 1059TIP3    H224669   4.677   5.427  13.615 -0.1300  0.8493 -1.0119
 1060TIP3   OH224670   4.258   3.439  10.944  0.1375 -0.0590  0.3373
 1060TIP3    H124671   4.330   3.501  10.931 -1.2919  1.6612  0.1215
 1060TIP3    H224672   4.290   3.357  10.908  1.6371  0.9027 -0.6465
 1061TIP3   OH224673   2.123   3.316   5.264 -0.0032  0.1496  0.3372
 1061TIP3    H124674   2.184   3.376   5.221 -1.5137  0.2749 -1.7913
 1061TIP3    H224675   2.043   3.321   5.211 -0.2002 -3.7634  0.0198
 1062TIP3   OH224676   4.482   3.952   1.593 -0.1365 -0.4701 -0.5049
 1062TIP3    H124677   4.430   3.983   1.518 -1.0563  0.3077  0.4216
 1062TIP3    H224678   4.432   3.878   1.627 -0.1453 -0.3192 -0.1877
 1063TIP3   OH224679   5.003   3.463   4.382 -0.2263  0.1241  0.3925
 1063TIP3    H124680   4.941   3.393   4.404  0.4555 -0.5592  0.1878
 1063TIP3    H224681   5.087   3.418   4.370  0.0294  0.8524 -0.6940
 1064TIP3   OH224682   6.110   2.111   2.647 -0.0500 -0.3087 -0.0567
 1064TIP3    H124683   6.115   2.201   2.681  2.2358  0.0340 -1.1182
 1064TIP3    H224684   6.172   2.062   2.700  1.1914 -0.4683 -1.5698
 1065TIP3   OH224685   2.999   1.688   5.992 -0.3194 -0.4165  0.2417
 1065TIP3    H124686   3.032   1.702   6.081  1.6255  1.5361 -0.6857
 1065TIP3    H224687   3.059   1.623   5.955 -0.7693 -0.7936  0.1737
 1066TIP3   OH224688   2.045   1.714   1.097 -1.1465 -0.0767  0.4151
 1066TIP3    H124689   2.129   1.669   1.105  1.2546  3.8915 -0.1141
 1066TIP3    H224690   2.004   1.702   1.183  0.1923 -1.6117  0.8916
 1067TIP3   OH224691   5.983   6.539   6.271  0.4449  0.4919 -0.3761
 1067TIP3    H124692   5.940   6.618   6.238 -0.7012 -0.1422 -0.4678
 1067TIP3    H224693   5.925   6.508   6.341 -0.1575 -1.3037 -1.5990
 1068TIP3   OH224694   6.257   3.521  12.143  0.2908 -0.2037  0.6763
 1068TIP3    H124695   6.313   3.448  12.115 -0.1388  0.1412 -1.2193
 1068TIP3    H224696   6.258   3.516  12.239  0.5616 -2.4760  0.6274
 1069TIP3   OH224697   6.374   0.467   0.171  0.1324 -0.3392 -0.2691
 1069TIP3    H124698   6.394   0.375   0.152 -2.9697 -0.7737 -2.3210
 1069TIP3    H224699   6.287   0.464   0.211  0.8625  1.6386  1.6181
 1070TIP3   OH224700   1.471   4.005  12.001 -0.2432  0.5386 -0.8725
 1070TIP3    H124701   1.398   4.012  11.941  0.1148 -1.2008 -1.5772
 1070TIP3    H224702   1.450   3.929  12.056 -0.6219  2.1355  1.3446
 1071TIP3   OH224703   3.888   6.817  16.183 -0.7495  0.3303 -0.9170
 1071TIP3    H124704   3.818   6.860  16.232 -0.4340  0.9342 -0.9896
 1071TIP3    H224705   3.919   6.883  16.122  1.8785  1.0965  1.0855
 1072TIP3   OH224706   2.454   4.642  15.587 -0.2292 -0.7526  0.3933
 1072TIP3    H124707   2.393   4.676  15.522 -0.9163 -0.8235  0.9905
 1072TIP3    H224708   2.538   4.683  15.564 -0.7482  0.2790  0.2639
 1073TIP3   OH224709   4.433   1.382   4.700  0.6369  0.1116 -0.0181
 1073TIP3    H124710   4.412   1.414   4.788  1.0857 -0.6363  0.3742
 1073TIP3    H224711   4.414   1.455   4.642 -4.1741 -0.7399  0.0995
 1074TIP3   OH224712   2.100   4.049  13.784 -0.1358  0.5625 -0.3456
 1074TIP3    H124713   2.061   3.971  13.823 -0.3075  0.2656 -1.0940
 1074TIP3    H224714   2.193   4.043  13.807 -0.2687  0.5105  0.1941
 1075TIP3   OH224715   4.992   6.420  13.860 -0.3040  0.2148  0.4802
 1075TIP3    H124716   4.897   6.428  13.848 -0.3877  0.2934  1.1965
 1075TIP3    H224717   5.007   6.326  13.868 -0.3251  0.2055  0.4160
 1076TIP3   OH224718   1.316   3.786   2.625  0.4056  0.7275 -0.1278
 1076TIP3    H124719   1.367   3.706   2.626 -0.1275  0.2883 -2.3910
 1076TIP3    H224720   1.378   3.855   2.600  0.4496  0.6702 -0.1745
 1077TIP3   OH224721   2.938   0.621   4.253 -0.0994 -0.5331  0.1118
 1077TIP3    H124722   3.018   0.666   4.226  0.0656 -0.3598  0.8657
 1077TIP3    H224723   2.956   0.593   4.343 -1.0068 -0.2059  0.4006
 1078TIP3   OH224724   2.314   2.753  14.175 -0.0844  0.0704  0.1467
 1078TIP3    H124725   2.362   2.770  14.256  2.1104  2.8172 -1.5369
 1078TIP3    H224726   2.379   2.719  14.115 -1.5888 -1.5408 -0.6588
 1079TIP3   OH224727   1.972   4.537   3.336 -0.0977  0.4618 -0.5449
 1079TIP3    H124728   1.895   4.481   3.330 -0.5797  0.6735  2.3556
 1079TIP3    H224729   2.037   4.484   3.383  0.8630  0.9734 -1.2419
 1080TIP3   OH224730   6.812   2.896  13.405 -0.2197 -0.4778  0.1390
 1080TIP3    H124731   6.872   2.887  13.479 -1.3443  0.4318  1.2337
 1080TIP3    H224732   6.735   2.844  13.431 -0.2022 -1.0398 -0.8986
 1081TIP3   OH224733   5.440   3.307  15.344  0.0756 -0.3779 -0.0921
 1081TIP3    H124734   5.530   3.275  15.348  0.0202 -0.5355 -0.0884
 1081TIP3    H224735   5.439   3.368  15.270  0.1516 -0.4845 -0.1814
 1082TIP3   OH224736   5.296   0.363  15.260  0.2400 -0.0164 -0.3585
 1082TIP3    H124737   5.332   0.428  15.199 -1.6598  1.2979 -0.1629
 1082TIP3    H224738   5.313   0.400  15.346 -1.5257  0.6542 -0.2659
 1083TIP3   OH224739   4.959   6.463  12.555 -0.0473 -0.0379 -0.9045
 1083TIP3    H124740   5.019   6.413  12.610  1.3910  2.3006 -0.2150
 1083TIP3    H224741   4.875   6.458  12.599  0.0107 -1.9296 -0.9549
 1084TIP3   OH224742   6.499   3.451  14.782 -0.4109  0.2551  0.2800
 1084TIP3    H124743   6.489   3.364  14.822 -0.2969 -0.3293 -0.9104
 1084TIP3    H224744   6.432   3.505  14.825  1.0874  0.2806  2.8125
 1085TIP3   OH224745   1.417   2.511  16.009  0.5078 -0.4931 -0.5651
 1085TIP3    H124746   1.432   2.426  16.051 -0.0927 -0.5113 -0.3774
 1085TIP3    H224747   1.322   2.516  15.998  0.4204  0.6148  0.4339
 1086TIP3   OH224748   3.763   5.980   0.310 -0.1151  0.2866  0.5140
 1086TIP3    H124749   3.726   5.972   0.222  0.4793  0.7792  0.2147
 1086TIP3    H224750   3.732   5.901   0.356 -1.6815  0.7638  0.3418
 1087TIP3   OH224751   1.795   1.698   3.316  0.1920  0.1682  0.0229
 1087TIP3    H124752   1.862   1.666   3.255  1.4920 -1.3090  2.0540
 1087TIP3    H224753   1.837   1.771   3.361 -0.3471  0.5740 -0.1354
 1088TIP3   OH224754   5.625   4.473   1.618 -0.1156  0.3561 -0.2005
 1088TIP3    H124755   5.646   4.537   1.550 -0.0193  0.1208 -0.3934
 1088TIP3    H224756   5.699   4.411   1.617 -1.1084 -0.8753 -1.3543
 1089TIP3   OH224757   4.652   1.763  12.157  0.5814 -0.0777  0.0837
 1089TIP3    H124758   4.642   1.676  12.117  0.0254 -0.3251  0.7409
 1089TIP3    H224759   4.662   1.823  12.083  0.3657 -0.6288 -0.3959
 1090TIP3   OH224760   6.578   6.344   1.264  0.2807 -0.7233 -0.4707
 1090TIP3    H124761   6.668   6.313   1.269 -0.0724 -1.7174 -0.0546
 1090TIP3    H224762   6.525   6.265   1.267 -0.6588 -0.0710  0.7623
 1091TIP3   OH224763   3.957   6.719  14.274 -0.2407 -0.1450  0.2588
 1091TIP3    H124764   3.932   6.787  14.212  0.3522 -1.3012 -1.3032
 1091TIP3    H224765   3.878   6.667  14.286 -0.6467  0.6672  1.3249
 1092TIP3   OH224766   4.193   3.526   1.041 -0.0980  0.5567  0.3552
 1092TIP3    H124767   4.137   3.587   0.992 -0.2309 -0.3382 -0.6263
 1092TIP3    H224768   4.162   3.534   1.132 -0.3534  1.6718  0.1894
 1093TIP3   OH224769   4.712   4.770  14.726 -0.0189  0.2237 -0.3175
 1093TIP3    H124770   4.627   4.740  14.757  0.0401  0.8728  0.4773
 1093TIP3    H224771   4.756   4.804  14.803  0.6267  0.6898 -0.8737
 1094TIP3   OH224772   0.706   0.225   1.983  0.5466 -0.0621 -0.2667
 1094TIP3    H124773   0.622   0.269   1.973  0.4040 -0.4198 -0.6899
 1094TIP3    H224774   0.747   0.231   1.897  1.3455  0.8824  0.1623
 1095TIP3   OH224775   5.526   0.915  12.586 -0.1106 -0.5328  0.4513
 1095TIP3    H124776   5.445   0.907  12.636 -0.6994  1.9613  0.0227
 1095TIP3    H224777   5.592   0.942  12.650 -0.0711 -0.6573  0.4637
 1096TIP3   OH224778   1.938   1.164  13.829 -0.6788  0.0098 -0.2770
 1096TIP3    H124779   1.991   1.242  13.844 -1.4475  0.1938  1.7556
 1096TIP3    H224780   1.851   1.198  13.809 -1.0490 -0.2911  0.7500
 1097TIP3   OH224781   2.874   5.749  12.091 -0.2309  0.4501  0.1064
 1097TIP3    H124782   2.887   5.680  12.156  0.2224 -0.6081 -1.0696
 1097TIP3    H224783   2.798   5.798  12.123 -1.8413 -1.8110 -0.0068
 1098TIP3   OH224784   3.052   1.628   2.723  0.1549  0.1924  0.4210
 1098TIP3    H124785   2.989   1.700   2.717  0.2343  0.2205 -0.1549
 1098TIP3    H224786   3.088   1.621   2.634  0.1956 -0.5125  0.4923
 1099TIP3   OH224787   0.890   0.375  13.285 -0.0634  0.1978  0.1638
 1099TIP3    H124788   0.944   0.365  13.207 -1.6277 -0.2010 -0.8994
 1099TIP3    H224789   0.835   0.451  13.267 -1.1789 -0.5276  0.4190
 1100TIP3   OH224790   3.629   1.616   4.821 -0.1129  0.3195  0.1797
 1100TIP3    H124791   3.575   1.540   4.843 -0.0534  0.2628  0.1316
 1100TIP3    H224792   3.675   1.637   4.902 -0.0084  0.2048  0.1511
 1101TIP3   OH224793   4.954   2.496  15.041 -0.3227  0.5696 -0.3483
 1101TIP3    H124794   4.976   2.480  14.949 -1.1771 -2.3710 -0.1441
 1101TIP3    H224795   4.972   2.412  15.085 -1.3565  1.4368  1.8770
 1102TIP3   OH224796   3.807   1.614  17.051 -0.3461 -0.2662 -0.2237
 1102TIP3    H124797   3.786   1.703  17.081 -1.1306 -0.5028 -0.0505
 1102TIP3    H224798   3.820   1.624  16.957  1.1191  0.3006  0.0139
 1103TIP3   OH224799   1.233   2.705   2.291  0.1160 -0.0412 -0.4225
 1103TIP3    H124800   1.293   2.741   2.226 -1.2170  2.4593 -0.3952
 1103TIP3    H224801   1.160   2.670   2.239 -0.0060  0.1060 -0.3515
 1104TIP3   OH224802   0.270   1.738  11.460  0.2236 -0.0193  0.1012
 1104TIP3    H124803   0.281   1.800  11.388 -1.3564 -0.2719 -0.4098
 1104TIP3    H224804   0.213   1.670  11.424  0.3822 -0.7768  1.2328
 1105TIP3   OH224805   4.440   2.897   3.487 -0.2684 -0.6037  0.1081
 1105TIP3    H124806   4.487   2.835   3.431  0.8046 -0.6309  1.0037
 1105TIP3    H224807   4.508   2.954   3.523 -0.8011 -1.0590  1.9608
 1106TIP3   OH224808   5.627   3.680  13.415 -0.5782 -0.1839 -0.0209
 1106TIP3    H124809   5.676   3.741  13.360 -1.2580  0.6398  0.2562
 1106TIP3    H224810   5.595   3.734  13.488 -0.5632 -1.0367  0.6340
 1107TIP3   OH224811   6.414   5.414  14.794 -0.4306 -0.1566  0.1380
 1107TIP3    H124812   6.422   5.360  14.716 -1.3724 -1.1386  0.6920
 1107TIP3    H224813   6.324   5.449  14.790  0.7035  2.9493 -1.1686
 1108TIP3   OH224814   5.347   0.639  15.866  0.7851  0.4761 -0.1071
 1108TIP3    H124815   5.301   0.562  15.832 -0.2541  2.0246 -2.4008
 1108TIP3    H224816   5.401   0.670  15.794  0.8529  2.1537  0.6077
 1109TIP3   OH224817   2.236   4.002  14.382  0.3781 -0.2269 -0.0748
 1109TIP3    H124818   2.194   4.075  14.427  0.2710  0.2703 -0.9683
 1109TIP3    H224819   2.199   3.924  14.425 -2.9172  0.1016 -1.9179
 1110TIP3   OH224820   1.913   3.476   2.667 -0.4713  0.1760  0.1929
 1110TIP3    H124821   1.998   3.515   2.691 -1.5952  1.3249  2.7763
 1110TIP3    H224822   1.881   3.530   2.596  2.2868 -2.2976 -3.2845
 1111TIP3   OH224823   5.264   3.731  14.866  0.2119 -0.2208 -0.5181
 1111TIP3    H124824   5.227   3.814  14.897 -0.7886 -0.8468 -0.0117
 1111TIP3    H224825   5.209   3.707  14.792  0.5382 -0.4133 -0.6990
 1112TIP3   OH224826   2.295   0.112   1.016 -0.5237 -0.3947  0.3328
 1112TIP3    H124827   2.288   0.123   1.111  2.0635 -1.5510  0.7613
 1112TIP3    H224828   2.389   0.096   1.001 -0.4780  1.8841 -2.6718
 1113TIP3   OH224829   3.300   1.298  13.258  0.2716 -0.0494  0.1758
 1113TIP3    H124830   3.356   1.265  13.187 -0.1674  0.2785 -0.3346
 1113TIP3    H224831   3.304   1.393  13.249  0.4984  0.0058  0.8261
 1114TIP3   OH224832   3.758   5.870  11.353  0.0378  0.0770 -0.5868
 1114TIP3    H124833   3.750   5.928  11.429 -1.7041 -1.2767  0.3256
 1114TIP3    H224834   3.708   5.792  11.377  0.9037 -1.1131 -2.4574
 1115TIP3   OH224835   5.478   5.050  13.133  0.2442 -0.7291 -0.0573
 1115TIP3    H124836   5.543   5.017  13.194  0.2534 -1.8419 -0.6491
 1115TIP3    H224837   5.404   4.989  13.140 -1.7629  1.7097  2.2453
 1116TIP3   OH224838   1.475   5.342   4.303  0.0013  0.5344 -0.0980
 1116TIP3    H124839   1.466   5.381   4.390 -1.8833  0.1021 -0.0559
 1116TIP3    H224840   1.521   5.409   4.251 -2.9202  2.8787  0.0206
 1117TIP3   OH224841   3.202   4.094  13.931 -0.2815  0.0772  0.1119
 1117TIP3    H124842   3.169   4.110  14.020  1.3806 -0.7385  0.9068
 1117TIP3    H224843   3.171   4.006  13.910 -0.6053  0.2386 -0.0926
 1118TIP3   OH224844   4.475   5.715  13.654  0.0709  0.0086 -0.0352
 1118TIP3    H124845   4.421   5.744  13.580  1.2174 -0.1323 -0.9541
 1118TIP3    H224846   4.490   5.794  13.705 -0.3260  0.1982 -0.2026
 1119TIP3   OH224847   2.001   4.847   3.320 -0.6286 -0.0337  0.0991
 1119TIP3    H124848   2.070   4.863   3.385  0.6968 -1.2301 -0.9672
 1119TIP3    H224849   1.983   4.754   3.326 -2.1969  0.2552  0.3466
 1120TIP3   OH224850   6.536   1.148  13.298  0.1100  0.5981  0.0712
 1120TIP3    H124851   6.617   1.106  13.326  0.5842  2.6685  2.2028
 1120TIP3    H224852   6.558   1.241  13.290 -1.7155  1.0169 -0.7490
 1121TIP3   OH224853   4.202   3.676  15.733 -0.0044  0.8848  0.0351
 1121TIP3    H124854   4.255   3.738  15.684 -0.8369  1.8177  0.2814
 1121TIP3    H224855   4.138   3.644  15.669  1.6321 -1.2948 -0.6466
 1122TIP3   OH224856   4.013   5.253  15.092  0.5156  0.5630 -0.4414
 1122TIP3    H124857   3.927   5.243  15.132 -0.0856 -2.7081 -2.2569
 1122TIP3    H224858   4.027   5.348  15.089 -2.9142  1.2058  0.0891
 1123TIP3   OH224859   5.322   4.748   2.529 -0.1643 -0.1278  0.0508
 1123TIP3    H124860   5.253   4.740   2.463  0.9747 -1.9646 -1.0179
 1123TIP3    H224861   5.398   4.704   2.490  1.5332  1.4754  1.3238
 1124TIP3   OH224862   3.831   1.685   5.578  0.2002  0.2555  0.9093
 1124TIP3    H124863   3.774   1.619   5.617  0.0200  0.2543  0.6405
 1124TIP3    H224864   3.864   1.735   5.653 -4.4401  3.9158  1.0111
 1125TIP3   OH224865   3.390   5.001  15.067  0.1237  0.1466  0.0942
 1125TIP3    H124866   3.439   4.945  15.127 -2.5155 -1.4216  0.9465
 1125TIP3    H224867   3.331   5.052  15.123  1.4643  2.8488 -0.7838
 1126TIP3   OH224868   1.076   2.161   1.928  0.2302 -0.3697  0.0815
 1126TIP3    H124869   1.046   2.074   1.953 -0.6407  0.3920  1.8537
 1126TIP3    H224870   1.010   2.221   1.963  0.7735  1.0079 -1.1464
 1127TIP3   OH224871   5.588   4.696  15.445  0.4510 -0.2271  0.3993
 1127TIP3    H124872   5.667   4.644  15.431 -0.1809 -2.0192  2.6791
 1127TIP3    H224873   5.610   4.755  15.518 -0.3971 -1.1215  1.4255
 1128TIP3   OH224874   5.803   0.036  14.449  0.3712  0.0463 -0.4605
 1128TIP3    H124875   5.896   0.020  14.466  0.3845 -0.6897 -1.1433
 1128TIP3    H224876   5.781   0.111  14.503  1.1422 -0.3288  0.3985
 1129TIP3   OH224877   4.978   5.276   3.245 -0.3778 -0.6923  0.1784
 1129TIP3    H124878   4.967   5.191   3.287  0.8717 -0.0470  1.9292
 1129TIP3    H224879   4.965   5.340   3.315 -1.5505  0.6048 -1.1460
 1130TIP3   OH224880   2.667   2.334  12.866  0.2268 -0.5095  0.0856
 1130TIP3    H124881   2.685   2.405  12.927  2.9015 -0.7654 -0.2591
 1130TIP3    H224882   2.686   2.254  12.916 -0.1808 -0.8449 -0.2855
 1131TIP3   OH224883   6.622   4.553  11.859 -0.0803  0.0897  0.6156
 1131TIP3    H124884   6.616   4.593  11.946 -1.9971  1.5886 -0.1051
 1131TIP3    H224885   6.601   4.625  11.799  0.0793 -1.1709 -1.0123
 1132TIP3   OH224886   3.016   0.919   2.712 -0.1107  0.3568 -0.3429
 1132TIP3    H124887   2.949   0.894   2.649 -0.1048 -1.1340  0.1915
 1132TIP3    H224888   3.071   0.841   2.721  2.0338  1.6592 -1.1275
 1133TIP3   OH224889   5.996   0.383   4.802  0.2618 -0.2557 -0.1505
 1133TIP3    H124890   6.038   0.342   4.877  0.9812 -0.5147 -0.6788
 1133TIP3    H224891   6.021   0.475   4.807  0.4784 -0.3131 -0.1869
 1134TIP3   OH224892   1.550   3.732   2.461 -0.4658 -0.2608  0.2066
 1134TIP3    H124893   1.504   3.727   2.377 -2.7570  0.7096  1.3059
 1134TIP3    H224894   1.539   3.645   2.500 -0.3556 -0.3832 -0.0369
 1135TIP3   OH224895   2.476   4.104  14.342 -0.5671 -0.2302 -0.9403
 1135TIP3    H124896   2.390   4.065  14.355 -0.7162  0.1395 -0.8148
 1135TIP3    H224897   2.524   4.084  14.424 -0.1991 -1.2769 -1.3881
 1136TIP3   OH224898   0.450   0.787  13.191  0.1304 -0.4424  0.1459
 1136TIP3    H124899   0.434   0.804  13.098 -0.0586 -0.5005  0.1677
 1136TIP3    H224900   0.369   0.747  13.222 -0.7405  1.7724  0.9151
 1137TIP3   OH224901   4.090   2.936  12.063  0.3435  0.2091 -0.0744
 1137TIP3    H124902   4.149   2.911  12.134  1.2679 -0.3058 -0.9974
 1137TIP3    H224903   4.146   2.942  11.986 -0.7961 -0.2475 -0.9726
 1138TIP3   OH224904   0.927   3.610  10.224  0.3096 -0.5486  0.0431
 1138TIP3    H124905   0.967   3.695  10.201  1.0131 -1.0876 -0.7776
 1138TIP3    H224906   0.914   3.615  10.319  1.3172  0.0851  0.1643
 1139TIP3   OH224907   1.706   6.789  12.426  0.0912  0.4149  0.9750
 1139TIP3    H124908   1.782   6.749  12.470  1.3597  2.0543  0.3783
 1139TIP3    H224909   1.737   6.876  12.400 -2.6674  2.0487  2.6710
 1140TIP3   OH224910   3.501   1.067   1.081 -0.1905  0.3658 -0.3373
 1140TIP3    H124911   3.409   1.093   1.074 -0.3658 -0.2075 -0.1612
 1140TIP3    H224912   3.549   1.147   1.060 -0.7269  0.7651 -0.0721
 1141TIP3   OH224913   0.720   6.314  15.521  0.6480 -0.1992 -0.0706
 1141TIP3    H124914   0.675   6.254  15.462  0.2500 -0.0563  0.0781
 1141TIP3    H224915   0.698   6.281  15.609  0.8118 -0.1114  0.0028
 1142TIP3   OH224916   0.832   2.753   1.648 -0.6606  0.2805 -0.2932
 1142TIP3    H124917   0.926   2.738   1.657 -0.8619 -0.2470  1.0253
 1142TIP3    H224918   0.807   2.796   1.729 -1.4504  1.0396 -0.9242
 1143TIP3   OH224919   1.032   3.403   0.096  0.1943  0.9886 -0.6185
 1143TIP3    H124920   1.071   3.389   0.010 -2.1975 -1.2187 -1.4634
 1143TIP3    H224921   0.945   3.437   0.078 -0.9283 -0.9319  0.7790
 1144TIP3   OH224922   2.274   3.001  14.033 -1.2188 -0.2861  0.2856
 1144TIP3    H124923   2.311   2.934  14.090 -0.0328 -0.4430 -0.6199
 1144TIP3    H224924   2.315   2.985  13.948 -0.3850  1.9668  0.1935
 1145TIP3   OH224925   0.952   0.143   3.449 -0.8802 -0.0069 -0.6650
 1145TIP3    H124926   0.923   0.199   3.521 -2.0946 -0.0712 -1.0791
 1145TIP3    H224927   1.044   0.125   3.468 -0.3030  2.5461 -0.8060
 1146TIP3   OH224928   3.649   2.160  16.677 -0.5196 -0.0935  0.0284
 1146TIP3    H124929   3.742   2.184  16.678  0.4578 -2.7274 -4.1053
 1146TIP3    H224930   3.644   2.082  16.732 -0.5894  0.6966  1.1783
 1147TIP3   OH224931   6.283   4.216  13.925 -0.5417  0.1534  0.1976
 1147TIP3    H124932   6.270   4.311  13.927  0.1570  0.2750 -0.4533
 1147TIP3    H224933   6.256   4.187  14.012 -3.6240  0.5250 -0.5308
 1148TIP3   OH224934   4.354   5.628   3.873  0.0242 -0.4683  0.0205
 1148TIP3    H124935   4.346   5.611   3.967 -0.7729 -3.9118 -0.5329
 1148TIP3    H224936   4.448   5.636   3.857  0.1295  1.0485  1.1688
 1149TIP3   OH224937   4.653   6.189  13.580  0.3261  0.4059 -0.1765
 1149TIP3    H124938   4.712   6.121  13.614 -1.5141 -2.2286 -1.7931
 1149TIP3    H224939   4.581   6.191  13.642  0.6074  1.2801  0.1255
 1150TIP3   OH224940   1.225   4.533  16.178 -0.2275  0.4999  0.2397
 1150TIP3    H124941   1.181   4.466  16.230 -0.8503 -0.4103 -1.3837
 1150TIP3    H224942   1.204   4.511  16.087  1.5911  1.4632 -0.4802
 1151TIP3   OH224943   0.667   3.204  12.308 -0.1576 -0.9269  0.1863
 1151TIP3    H124944   0.639   3.161  12.228 -2.2045  1.3225 -0.4220
 1151TIP3    H224945   0.734   3.266  12.281  0.4082 -1.3973  0.5038
 1152TIP3   OH224946   0.974   3.323   2.831 -0.1748 -0.2216  0.4235
 1152TIP3    H124947   0.934   3.252   2.881 -0.5046  0.7707  1.6288
 1152TIP3    H224948   0.911   3.395   2.837  1.6062  1.3226  2.2233
 1153TIP3   OH224949   5.436   6.472  13.605 -0.0190 -0.1339 -0.4486
 1153TIP3    H124950   5.458   6.560  13.572  0.8611  0.6938  2.1113
 1153TIP3    H224951   5.343   6.477  13.626 -0.6886 -0.7833 -2.8996
 1154TIP3   OH224952   2.767   5.228  12.752  0.3894 -0.2290  0.1110
 1154TIP3    H124953   2.675   5.253  12.764  0.4385  0.0148 -0.0084
 1154TIP3    H224954   2.813   5.270  12.824  0.2208 -1.4900  0.9895
 1155TIP3   OH224955   6.825   4.067   0.194 -0.1026 -0.2355 -0.6213
 1155TIP3    H124956   6.751   4.020   0.232  0.9037 -0.7032  0.8836
 1155TIP3    H224957   6.807   4.070   0.100 -1.9551 -0.4197 -0.3082
 1156TIP3   OH224958   5.411   2.235  10.837 -0.2787 -0.2423 -0.4872
 1156TIP3    H124959   5.469   2.190  10.775  0.5922 -0.4072  0.4192
 1156TIP3    H224960   5.327   2.192  10.826  0.3956 -1.7574 -0.0359
 1157TIP3   OH224961   4.340   6.569  13.410  0.8369 -0.3902 -0.3946
 1157TIP3    H124962   4.393   6.564  13.490  0.3085 -1.4446 -0.0953
 1157TIP3    H224963   4.271   6.632  13.431  0.9144 -0.3847 -0.1485
 1158TIP3   OH224964   4.061   0.735   0.286  0.9575  0.2948 -0.1416
 1158TIP3    H124965   3.984   0.784   0.316  0.0443 -1.0314 -0.2753
 1158TIP3    H224966   4.125   0.803   0.264 -0.1139  1.4165  0.1125
 1159TIP3   OH224967   2.681   1.496  12.738 -0.0458 -0.2221  0.2244
 1159TIP3    H124968   2.730   1.490  12.820  1.4442 -1.3262 -0.6899
 1159TIP3    H224969   2.721   1.430  12.681 -0.8807  0.6572 -1.4724
 1160TIP3   OH224970   0.356   5.307  13.294  0.4400 -0.1250  0.3171
 1160TIP3    H124971   0.394   5.332  13.378  2.7020 -1.9433 -0.0495
 1160TIP3    H224972   0.345   5.390  13.247  0.9381  0.7488  1.6821
 1161TIP3   OH224973   3.238   5.754   4.741 -0.3732  0.3266  0.1887
 1161TIP3    H124974   3.240   5.669   4.698 -0.0224 -0.3083  1.4218
 1161TIP3    H224975   3.305   5.805   4.697  1.1828 -0.8716  1.0521
 1162TIP3   OH224976   2.848   5.217  11.762 -0.8631 -0.9171  0.2567
 1162TIP3    H124977   2.881   5.235  11.850 -1.2459 -0.1282  0.2435
 1162TIP3    H224978   2.791   5.291  11.742 -0.6672 -1.0181 -0.7153
 1163TIP3   OH224979   2.198   0.223  12.506  0.0262  0.3874 -0.0730
 1163TIP3    H124980   2.246   0.221  12.589  2.2500  1.6275 -1.2209
 1163TIP3    H224981   2.222   0.142  12.462 -0.1456  0.3154 -0.0360
 1164TIP3   OH224982   4.746   3.092   4.209  0.2529  0.2897 -0.0884
 1164TIP3    H124983   4.667   3.044   4.186  0.4059  0.7432 -1.6698
 1164TIP3    H224984   4.715   3.175   4.244  0.0122  0.6390 -1.1008
 1165TIP3   OH224985   3.024   5.400   4.723 -0.5808  0.2004 -0.6405
 1165TIP3    H124986   3.036   5.310   4.693  1.7918 -0.1431  1.0798
 1165TIP3    H224987   2.947   5.396   4.780  0.5541 -1.1941  0.8812
 1166TIP3   OH224988   2.667   6.764   4.492  0.4005 -0.0429 -0.3747
 1166TIP3    H124989   2.574   6.744   4.476  0.7319 -2.0777 -0.0780
 1166TIP3    H224990   2.670   6.786   4.585 -0.0596  2.1531 -0.8242
 1167TIP3   OH224991   5.756   1.074   1.223 -0.1472  0.3230 -0.0506
 1167TIP3    H124992   5.822   1.005   1.218 -0.2722  0.0585  1.4992
 1167TIP3    H224993   5.754   1.100   1.315 -0.3459  2.1863 -0.5386
 1168TIP3   OH224994   1.849   3.218   3.725 -0.2751 -0.2335 -0.1131
 1168TIP3    H124995   1.877   3.234   3.815 -1.0868 -4.1863  1.0476
 1168TIP3    H224996   1.917   3.161   3.688 -1.1337 -0.6456 -1.1356
 1169TIP3   OH224997   5.863   6.684  12.905  0.0668  0.5447  0.0589
 1169TIP3    H124998   5.770   6.683  12.930  0.1588 -0.1778  0.3949
 1169TIP3    H224999   5.865   6.734  12.824 -0.4957  1.3572  0.5245
 1170TIP3   OH225000   0.350   6.267   4.611  0.6682 -0.5586 -0.2094
 1170TIP3    H125001   0.296   6.198   4.650 -1.5833  0.7641 -0.7675
 1170TIP3    H225002   0.334   6.344   4.666  0.7145  0.2758 -1.3223
 1171TIP3   OH225003   1.275   1.604  14.780  0.2913  0.2320 -0.3501
 1171TIP3    H125004   1.316   1.546  14.716 -0.3610 -1.6138  0.8367
 1171TIP3    H225005   1.182   1.602  14.758  0.2921  1.0770 -0.4672
 1172TIP3   OH225006   5.684   4.345   2.781  0.2229  1.3567 -0.1791
 1172TIP3    H125007   5.740   4.373   2.853 -0.4232  2.6096 -0.1378
 1172TIP3    H225008   5.709   4.402   2.708  0.2711  0.6756 -0.7086
 1173TIP3   OH225009   4.458   3.534  16.706  0.4438  0.5399  0.2193
 1173TIP3    H125010   4.382   3.500  16.752 -0.7349  0.2498 -1.8076
 1173TIP3    H225011   4.532   3.485  16.742 -0.9212 -2.8674 -1.1387
 1174TIP3   OH225012   5.039   1.779  16.304  0.0660 -0.3834  0.2507
 1174TIP3    H125013   5.117   1.724  16.299 -0.7036 -1.4234 -1.5172
 1174TIP3    H225014   4.995   1.752  16.385  1.1001 -0.3909  0.8174
 1175TIP3   OH225015   0.171   3.680   0.333 -0.2384 -0.1839  0.2361
 1175TIP3    H125016   0.091   3.660   0.382 -0.4280 -0.7785 -0.3142
 1175TIP3    H225017   0.148   3.757   0.280  0.4394  1.4924  2.2166
 1176TIP3   OH225018   4.460   5.179  14.923  0.2336  0.3590  0.1158
 1176TIP3    H125019   4.368   5.167  14.946  0.3972  1.3758  1.4397
 1176TIP3    H225020   4.458   5.228  14.840 -0.3974 -0.2598 -0.2409
 1177TIP3   OH225021   1.943   0.466   4.150  0.3900  0.4168  0.1121
 1177TIP3    H125022   2.004   0.410   4.198  0.6186  0.5909  0.0250
 1177TIP3    H225023   1.856   0.432   4.173  0.5651 -1.0045 -1.2088
 1178TIP3   OH225024   0.962   1.968  13.732 -0.3651 -0.0885  0.7055
 1178TIP3    H125025   0.909   2.036  13.691  1.2196  0.2750 -0.8895
 1178TIP3    H225026   0.976   1.903  13.663  1.2162 -0.1619  1.0494
 1179TIP3   OH225027   3.618   5.262   0.987 -0.5445  0.0667 -0.6533
 1179TIP3    H125028   3.585   5.226   1.069  0.0432  2.0662  0.5346
 1179TIP3    H225029   3.543   5.262   0.928 -1.1493 -0.7732  0.1016
 1180TIP3   OH225030   1.847   0.857   4.099  0.2401 -0.5496 -0.4408
 1180TIP3    H125031   1.766   0.899   4.127  1.1335  1.7369 -1.1025
 1180TIP3    H225032   1.832   0.837   4.007  1.1713  1.9911 -1.2139
 1181TIP3   OH225033   2.029   1.082   1.653  0.3403  0.4325 -0.7516
 1181TIP3    H125034   2.119   1.107   1.632  0.4606 -1.0337 -2.1933
 1181TIP3    H225035   2.014   1.003   1.601 -1.2235 -0.3183  0.7606
 1182TIP3   OH225036   4.026   3.587  15.141  0.0529  0.1397 -0.1684
 1182TIP3    H125037   3.984   3.660  15.097 -0.7942 -0.5082 -0.4639
 1182TIP3    H225038   4.096   3.560  15.081 -1.8178 -1.4863 -1.7818
 1183TIP3   OH225039   5.842   2.805  13.720  0.2425  0.2217  0.6002
 1183TIP3    H125040   5.766   2.830  13.773  0.0875 -0.5306  0.7357
 1183TIP3    H225041   5.877   2.889  13.688 -1.9744  0.4997 -1.3850
 1184TIP3   OH225042   3.232   4.556   4.391  0.0462  0.2900 -0.0014
 1184TIP3    H125043   3.189   4.472   4.373  0.6088 -0.4114  1.6442
 1184TIP3    H225044   3.175   4.599   4.454 -1.3953  2.2382 -2.4598
 1185TIP3   OH225045   2.442   3.922   1.612  0.4648 -0.0485 -0.2336
 1185TIP3    H125046   2.411   3.874   1.689 -0.0575 -1.3758 -1.2351
 1185TIP3    H225047   2.526   3.881   1.590 -0.3898 -1.1305 -1.6091
 1186TIP3   OH225048   1.707   3.134  12.441  0.5887  0.1526  0.0399
 1186TIP3    H125049   1.748   3.092  12.517  0.4182 -1.6012 -0.7922
 1186TIP3    H225050   1.779   3.143  12.378  0.8380  2.0370  0.5273
 1187TIP3   OH225051   1.467   3.280  12.416  0.7662 -0.0731  0.5028
 1187TIP3    H125052   1.397   3.220  12.439 -0.7806  1.3312 -0.3621
 1187TIP3    H225053   1.547   3.227  12.423 -0.4937 -2.1391 -0.0042
 1188TIP3   OH225054   1.369   4.055   0.050  1.0054  0.0852  0.6038
 1188TIP3    H125055   1.463   4.072   0.036  0.3801  3.2987 -0.5047
 1188TIP3    H225056   1.340   4.126   0.106 -1.0679  0.0138 -0.2870
 1189TIP3   OH225057   3.228   6.780  16.514  0.3898 -0.2270  0.6057
 1189TIP3    H125058   3.283   6.858  16.511 -1.0530  0.8123 -0.1145
 1189TIP3    H225059   3.182   6.779  16.430  1.9505 -3.1060 -0.3482
 1190TIP3   OH225060   4.594   4.332   5.039 -0.1344 -0.0991 -0.5466
 1190TIP3    H125061   4.677   4.287   5.018  0.4595 -0.4267  2.1190
 1190TIP3    H225062   4.621   4.413   5.082 -1.2346  0.5978 -1.1209
 1191TIP3   OH225063   6.344   4.880  14.821 -0.3804 -0.0901 -0.2117
 1191TIP3    H125064   6.433   4.843  14.815 -0.5030 -0.2406 -1.2509
 1191TIP3    H225065   6.359   4.973  14.837 -0.0424 -0.1789  0.0244
 1192TIP3   OH225066   0.006   5.513  15.586  0.1221  0.3287  0.4140
 1192TIP3    H125067   0.014   5.523  15.492 -0.6088 -1.4036  0.1287
 1192TIP3    H225068  -0.076   5.558  15.608 -1.1919 -1.6330 -0.2488
 1193TIP3   OH225069   3.820   4.552   4.280 -0.3485  0.3663  0.1708
 1193TIP3    H125070   3.860   4.584   4.360 -1.7980  0.1880  0.9861
 1193TIP3    H225071   3.785   4.631   4.237 -1.7527  0.1955  0.9614
 1194TIP3   OH225072   0.994   6.826  14.078 -0.2944  0.3962 -0.1201
 1194TIP3    H125073   0.909   6.869  14.071 -1.5425 -2.1396 -1.6958
 1194TIP3    H225074   0.973   6.735  14.098  1.8427 -0.9105 -3.1365
 1195TIP3   OH225075   6.610   0.764   5.601  0.6890 -0.1282 -0.4510
 1195TIP3    H125076   6.701   0.781   5.622  1.5538 -2.4599 -1.8920
 1195TIP3    H225077   6.589   0.683   5.648 -0.3317 -0.1212 -0.8655
 1196TIP3   OH225078   4.076   6.007   0.809 -0.8949  0.1770 -0.1240
 1196TIP3    H125079   4.162   6.033   0.844 -1.3318  1.4817  0.0289
 1196TIP3    H225080   4.097   5.951   0.734  0.0686 -0.5806  0.6725
 1197TIP3   OH225081   1.701   0.678   2.577 -0.1868  0.0616  0.9520
 1197TIP3    H125082   1.666   0.601   2.533 -0.6658  1.7873 -1.8696
 1197TIP3    H225083   1.631   0.743   2.573  1.1883  1.6030  0.6039
 1198TIP3   OH225084   5.899   0.446   2.983  0.3640 -0.4228  0.1717
 1198TIP3    H125085   5.927   0.378   3.045  2.8808 -0.0578 -0.4401
 1198TIP3    H225086   5.930   0.527   3.022 -1.6708  0.2961  0.3737
 1199TIP3   OH225087   3.011   6.568   2.730 -0.2527  0.1188 -0.6748
 1199TIP3    H125088   3.078   6.515   2.687  0.1585  0.4034 -0.3879
 1199TIP3    H225089   3.030   6.560   2.823  0.5720  1.7601 -0.6718
 1200TIP3   OH225090   0.893   0.248   0.714  0.4588 -0.5257  0.0956
 1200TIP3    H125091   0.956   0.254   0.642  0.7500 -0.4590  0.3508
 1200TIP3    H225092   0.834   0.176   0.689 -0.0497  0.1431 -0.6714
 1201TIP3   OH225093   5.041   2.171   3.674  0.2948 -0.2672 -0.0303
 1201TIP3    H125094   5.119   2.121   3.700  0.3914 -0.5575 -0.8380
 1201TIP3    H225095   5.019   2.136   3.588 -0.7890 -0.2452  0.2323
 1202TIP3   OH225096   4.084   6.284   2.739 -0.1986 -1.0120 -0.2602
 1202TIP3    H125097   4.162   6.332   2.711 -0.4944 -0.4917 -0.2143
 1202TIP3    H225098   4.022   6.297   2.667  0.1060 -2.3079 -0.7843
 1203TIP3   OH225099   0.896   1.399   5.947 -0.1448 -0.0661  0.1596
 1203TIP3    H125100   0.850   1.352   6.017 -0.1509 -0.1933  0.0703
 1203TIP3    H225101   0.974   1.434   5.990 -0.7861  0.9419  0.5334
 1204TIP3   OH225102   3.900   3.362   0.254  0.2531  0.1259  0.4718
 1204TIP3    H125103   3.963   3.434   0.249 -1.1482  1.3479 -0.2056
 1204TIP3    H225104   3.919   3.319   0.337  3.0926 -0.6447 -0.4273
 1205TIP3   OH225105   4.371   6.180   0.396  0.1730  0.3866  0.3082
 1205TIP3    H125106   4.328   6.208   0.315 -0.2443 -0.5392  0.1958
 1205TIP3    H225107   4.360   6.254   0.456 -0.7885  0.5112 -0.0115
 1206TIP3   OH225108   5.551   3.292  14.874 -0.7464  0.3288 -0.1105
 1206TIP3    H125109   5.490   3.363  14.891 -0.6896  0.3527 -0.0080
 1206TIP3    H225110   5.636   3.325  14.905 -0.7064  0.2432 -0.1281
 1207TIP3   OH225111   2.319   1.575  16.704  0.3888 -0.4253  0.7091
 1207TIP3    H125112   2.307   1.481  16.686  0.3691 -0.4127  0.6555
 1207TIP3    H225113   2.305   1.583  16.799  1.0455 -0.5799  0.8228
 1208TIP3   OH225114   5.184   6.228  13.648 -0.2968 -0.5856 -0.2195
 1208TIP3    H125115   5.123   6.185  13.708 -1.4288  0.7807 -0.3470
 1208TIP3    H225116   5.269   6.191  13.671 -0.6686 -0.0818  2.3165
 1209TIP3   OH225117   4.149   0.800   6.032 -0.1683  0.0415  0.3449
 1209TIP3    H125118   4.174   0.774   6.120 -0.4197  0.5403  0.5668
 1209TIP3    H225119   4.063   0.761   6.018  1.4700 -3.4709 -1.1993
 1210TIP3   OH225120   3.423   3.531   4.824  0.4389 -0.0922  0.1243
 1210TIP3    H125121   3.498   3.525   4.883  0.2097 -2.9365  0.2843
 1210TIP3    H225122   3.458   3.504   4.738  0.5369  3.0111 -0.9468
 1211TIP3   OH225123   6.052   5.743   5.546  0.0132  0.4944  0.1328
 1211TIP3    H125124   6.063   5.836   5.563 -0.6727  0.5428  0.3596
 1211TIP3    H225125   6.139   5.705   5.558  0.3836  1.1699 -0.3849
 1212TIP3   OH225126   4.002   4.107  13.423  0.0296 -0.3872  0.7018
 1212TIP3    H125127   3.979   4.110  13.330  2.1936 -1.3198  0.0826
 1212TIP3    H225128   3.937   4.165  13.465 -1.4572 -0.5176 -1.2458
 1213TIP3   OH225129   0.308   3.981  11.014 -0.1315 -0.2933 -0.7266
 1213TIP3    H125130   0.284   3.914  10.950  0.6093 -1.7933  0.5051
 1213TIP3    H225131   0.267   3.953  11.096  0.8532  0.3145  0.0016
 1214TIP3   OH225132   4.324   1.450   3.108  0.6089  0.0015 -0.4166
 1214TIP3    H125133   4.405   1.441   3.059  0.2004 -0.2141 -1.0538
 1214TIP3    H225134   4.316   1.368   3.158  0.3047 -0.3816 -1.0826
 1215TIP3   OH225135   6.254   2.122  12.112 -0.1484 -0.0644 -0.5633
 1215TIP3    H125136   6.331   2.069  12.130 -0.0208 -0.2073 -1.4666
 1215TIP3    H225137   6.286   2.212  12.116  0.0151 -0.1151 -0.7157
 1216TIP3   OH225138   1.078   2.049  10.560  0.2928  0.2758 -0.5147
 1216TIP3    H125139   1.025   1.982  10.602  0.3766  0.7967  0.4695
 1216TIP3    H225140   1.138   2.078  10.629  1.5329  0.0398 -1.4594
 1217TIP3   OH225141   0.515   0.053   2.595  0.1536  0.4466 -0.3918
 1217TIP3    H125142   0.582   0.051   2.664  1.3065  1.2320 -1.4544
 1217TIP3    H225143   0.549  -0.006   2.527 -0.8400 -0.1072 -0.4201
 1218TIP3   OH225144   6.406   6.723  11.910 -0.4060 -0.2622  0.3232
 1218TIP3    H125145   6.314   6.698  11.919 -0.3106 -0.5664  0.4447
 1218TIP3    H225146   6.452   6.641  11.893 -0.2828  0.0071 -0.6987
 1219TIP3   OH225147   3.636   3.186  11.907 -0.6133 -0.2215  0.7393
 1219TIP3    H125148   3.607   3.226  11.989 -0.5871 -0.1007  0.6904
 1219TIP3    H225149   3.710   3.131  11.932  1.6675  2.4133  0.3356
 1220TIP3   OH225150   3.513   3.114  12.920 -0.1074 -0.3808 -0.8354
 1220TIP3    H125151   3.517   3.205  12.949  1.0344  0.0017 -2.1229
 1220TIP3    H225152   3.422   3.102  12.892 -1.7906 -1.2093  3.9507
 1221TIP3   OH225153   0.326   1.286  16.177  0.6846 -0.4979 -0.0047
 1221TIP3    H125154   0.251   1.275  16.118  1.5428 -0.8224 -1.0681
 1221TIP3    H225155   0.299   1.357  16.236 -0.1986 -0.1401 -0.8017
 1222TIP3   OH225156   0.668   3.517  12.402 -0.4044 -0.2605  0.3850
 1222TIP3    H125157   0.590   3.482  12.445 -1.5326  0.8460 -0.6751
 1222TIP3    H225158   0.682   3.459  12.327 -1.6778  0.8740 -0.7942
 1223TIP3   OH225159   0.809   0.794   3.537  0.0170 -0.8522  0.2858
 1223TIP3    H125160   0.814   0.866   3.600 -0.2560 -0.2998 -0.3164
 1223TIP3    H225161   0.889   0.744   3.551  0.1453 -0.5077  0.8016
 1224TIP3   OH225162   4.791   6.581   0.193  0.3145 -0.3304  0.0795
 1224TIP3    H125163   4.743   6.550   0.270  0.4879  1.2627  0.8711
 1224TIP3    H225164   4.871   6.529   0.191  0.1214 -0.6551  0.7428
 1225TIP3   OH225165   1.973   0.398  14.847  0.3153  0.0254 -1.1658
 1225TIP3    H125166   1.965   0.493  14.832  5.2705  1.1831  1.5447
 1225TIP3    H225167   1.951   0.387  14.940  2.4409 -0.9150 -0.7302
 1226TIP3   OH225168   0.120   4.840   0.504 -0.1942 -0.4220  0.3946
 1226TIP3    H125169   0.166   4.765   0.467 -2.1479 -1.4817 -0.0468
 1226TIP3    H225170   0.080   4.883   0.428 -0.1897  0.2900  0.7860
 1227TIP3   OH225171   2.822   6.049   0.435  0.7380 -0.0951  0.0109
 1227TIP3    H125172   2.834   6.126   0.490  1.3543  0.6338 -1.0993
 1227TIP3    H225173   2.910   6.010   0.429  0.6954 -0.1137 -0.5206
 1228TIP3   OH225174   0.126   4.482   1.345  0.1333 -0.3107 -0.3350
 1228TIP3    H125175   0.129   4.403   1.398 -2.1189 -0.4757 -0.3523
 1228TIP3    H225176   0.123   4.554   1.409 -0.5406 -0.4009 -0.2590
 1229TIP3   OH225177   4.412   0.019   5.758  0.0648 -1.0237  0.2884
 1229TIP3    H125178   4.351   0.068   5.812  0.8149  0.3541 -0.0707
 1229TIP3    H225179   4.482   0.081   5.738  0.6105 -1.9760 -0.9143
 1230TIP3   OH225180   4.272   2.417  11.675  0.4409  0.3758  0.7377
 1230TIP3    H125181   4.234   2.457  11.597  1.1064 -2.9289 -1.4978
 1230TIP3    H225182   4.197   2.380  11.722  0.2861 -1.2515 -0.6784
 1231TIP3   OH225183   4.676   6.755  16.774 -0.2088  0.3070 -0.2949
 1231TIP3    H125184   4.718   6.714  16.698 -0.9852 -1.8670  0.3789
 1231TIP3    H225185   4.586   6.724  16.771 -0.2980  0.3341  1.3827
 1232TIP3   OH225186   0.679   1.092  11.687 -0.7540 -0.0038 -0.2404
 1232TIP3    H125187   0.741   1.020  11.678 -1.3607 -0.5719  0.0239
 1232TIP3    H225188   0.593   1.051  11.678 -1.2756  0.1048  2.8994
 1233TIP3   OH225189   0.018   4.922   4.702 -0.2076 -0.7862 -0.3334
 1233TIP3    H125190   0.071   5.001   4.711 -0.7217 -0.3773 -0.8084
 1233TIP3    H225191  -0.043   4.925   4.776 -0.7464 -0.3200 -0.7844
 1234TIP3   OH225192   6.561   2.601   4.105  0.1027  0.1348  0.4225
 1234TIP3    H125193   6.513   2.655   4.043 -0.1591  1.8560  2.0277
 1234TIP3    H225194   6.570   2.656   4.183  0.2533 -1.9845  1.9997
 1235TIP3   OH225195   5.701   6.099   4.699 -0.0838  0.1576 -0.3824
 1235TIP3    H125196   5.699   6.005   4.717 -2.7652  0.0667 -0.7236
 1235TIP3    H225197   5.654   6.138   4.773  1.7466  1.3642  0.2069
 1236TIP3   OH225198   4.561   0.581   2.899 -0.3861  0.6143 -0.3346
 1236TIP3    H125199   4.550   0.496   2.942  1.7918 -1.0160 -2.7124
 1236TIP3    H225200   4.641   0.617   2.936 -0.6309  1.0672 -0.2315
 1237TIP3   OH225201   4.917   6.201  11.136 -0.5394 -0.4774  0.0608
 1237TIP3    H125202   4.877   6.133  11.082  0.8687 -1.2791 -0.0308
 1237TIP3    H225203   5.009   6.202  11.109 -0.4394  1.1736  0.3756
 1238TIP3   OH225204   3.542   1.011   4.778 -0.3009 -0.0783 -0.3698
 1238TIP3    H125205   3.620   1.050   4.816  0.7563 -1.6329 -0.8313
 1238TIP3    H225206   3.520   0.940   4.839 -1.9929  0.9677  0.3030
 1239TIP3   OH225207   4.609   4.337   1.055 -0.2623 -0.4299 -0.0998
 1239TIP3    H125208   4.600   4.257   1.004 -1.0556 -1.2120  1.2140
 1239TIP3    H225209   4.703   4.348   1.067 -0.1258 -0.8758 -0.7231
 1240TIP3   OH225210   2.486   4.657  16.920  0.2391  0.4035 -0.5647
 1240TIP3    H125211   2.462   4.713  16.994 -1.5273  0.7189 -1.3152
 1240TIP3    H225212   2.422   4.680  16.852  0.0051 -1.9098 -1.1929
 1241TIP3   OH225213   3.158   0.405  16.573  0.1460  0.1285 -0.8411
 1241TIP3    H125214   3.180   0.324  16.619 -0.4830  0.0403 -0.6820
 1241TIP3    H225215   3.112   0.458  16.638  1.0071  0.8332 -0.7942
 1242TIP3   OH225216   6.412   1.903  11.413 -0.3672 -0.3310 -0.2283
 1242TIP3    H125217   6.350   1.842  11.373  0.1182 -1.8615  1.2307
 1242TIP3    H225218   6.450   1.950  11.338 -3.3223  0.8243 -1.1656
 1243TIP3   OH225219   2.491   1.855  11.703  0.5218  0.4896 -0.0673
 1243TIP3    H125220   2.487   1.846  11.608  1.1982 -1.1175  0.0233
 1243TIP3    H225221   2.400   1.854  11.731  0.2795  1.8856 -0.7498
 1244TIP3   OH225222   5.268   6.580   2.053 -0.3668  0.1301  0.9383
 1244TIP3    H125223   5.319   6.574   1.973  0.4178 -0.2766  1.4564
 1244TIP3    H225224   5.327   6.621   2.116 -1.1415  0.9091  1.1776
 1245TIP3   OH225225   5.402   5.342  12.534 -0.2589 -0.2395  0.1281
 1245TIP3    H125226   5.363   5.430  12.530 -2.2914 -0.9685  1.9883
 1245TIP3    H225227   5.440   5.329  12.447 -2.9907  1.1564 -1.4257
 1246TIP3   OH225228   6.264   1.462   4.439  0.1562  0.2411  0.3345
 1246TIP3    H125229   6.252   1.544   4.487  0.3021 -0.2643  1.2553
 1246TIP3    H225230   6.184   1.413   4.454  0.7227 -0.4635  1.1660
 1247TIP3   OH225231   2.255   5.134  17.043  0.4697  0.4552 -0.6583
 1247TIP3    H125232   2.222   5.223  17.048  0.4789  0.4050  1.0079
 1247TIP3    H225233   2.199   5.084  17.103  1.4072 -0.3324 -0.4112
 1248TIP3   OH225234   1.148   0.190   0.974 -0.1860 -0.5608 -0.3359
 1248TIP3    H125235   1.097   0.209   0.895  1.1486  1.5451 -0.7832
 1248TIP3    H225236   1.126   0.261   1.034  2.7948  1.0285 -0.9119
 1249TIP3   OH225237   4.989   4.902  12.990 -0.3726 -0.1204  0.1282
 1249TIP3    H125238   4.951   4.851  13.061 -1.0638 -0.9301 -0.7911
 1249TIP3    H225239   5.057   4.845  12.953 -1.1767 -0.4393 -0.9274
 1250TIP3   OH225240   6.717   3.388  16.007 -0.2725  0.4942 -0.2414
 1250TIP3    H125241   6.695   3.459  15.946 -0.9358  0.1673 -0.3946
 1250TIP3    H225242   6.665   3.406  16.085 -1.8664 -0.8131 -0.9667
 1251TIP3   OH225243   0.018   1.132  10.177 -0.2411 -0.0185 -0.1548
 1251TIP3    H125244   0.025   1.056  10.235  0.8714 -0.2204 -0.5204
 1251TIP3    H225245  -0.064   1.120  10.131 -1.1580  0.1399  1.3628
 1252TIP3   OH225246   1.804   0.977  16.658  0.6038  0.0796 -0.7714
 1252TIP3    H125247   1.899   0.975  16.646  0.7491  0.0562  0.2506
 1252TIP3    H225248   1.792   0.989  16.752 -0.4034  2.0709 -1.0910
 1253TIP3   OH225249   5.197   3.271   3.851  0.0780  0.0717 -0.0125
 1253TIP3    H125250   5.194   3.366   3.838 -2.1626  0.0201 -0.2481
 1253TIP3    H225251   5.105   3.245   3.857  0.4231 -2.5774 -3.4071
 1254TIP3   OH225252   0.641   6.772  14.285  0.6869 -0.1320  0.3029
 1254TIP3    H125253   0.547   6.778  14.302  0.7058  0.9675  0.0628
 1254TIP3    H225254   0.681   6.820  14.357  0.9621  1.0593 -0.6197
 1255TIP3   OH225255   3.015   3.720  11.145  0.2632  0.0579  0.0075
 1255TIP3    H125256   3.092   3.666  11.161 -0.4241 -1.1157 -0.5469
 1255TIP3    H225257   2.947   3.681  11.200 -0.7277 -0.7978 -1.7508
 1256TIP3   OH225258   2.525   3.392   0.938 -0.0854  0.4383 -0.4590
 1256TIP3    H125259   2.575   3.467   0.970 -0.7815  0.5588  0.3950
 1256TIP3    H225260   2.575   3.361   0.862  1.6876  0.0908  0.7838
 1257TIP3   OH225261   5.312   3.152  14.014 -0.4825 -0.1841  0.2724
 1257TIP3    H125262   5.374   3.107  14.072 -1.8571 -1.9287  0.4731
 1257TIP3    H225263   5.359   3.161  13.931  0.3434 -0.6867  0.6740
 1258TIP3   OH225264   5.646   4.897  15.057  0.0463 -0.2757  0.3141
 1258TIP3    H125265   5.717   4.934  15.109  0.1948  0.6391 -0.5028
 1258TIP3    H225266   5.689   4.869  14.976 -0.7107  1.6622 -0.8225
 1259TIP3   OH225267   6.096   6.833   2.881 -0.1914  0.1691 -0.3476
 1259TIP3    H125268   6.113   6.869   2.969 -1.5377 -0.9510  0.4151
 1259TIP3    H225269   6.063   6.908   2.831  0.7433  0.8586  0.0306
 1260TIP3   OH225270   2.210   3.672   5.774  0.5261  0.1209  0.3600
 1260TIP3    H125271   2.287   3.649   5.825  0.9714 -3.3618 -1.5745
 1260TIP3    H225272   2.246   3.715   5.696  0.3396  0.1981  0.3162
 1261TIP3   OH225273   2.075   1.483  12.130 -0.2720 -0.0004 -0.0928
 1261TIP3    H125274   2.151   1.467  12.186 -0.3933 -0.6169 -0.0943
 1261TIP3    H225275   2.087   1.424  12.056 -2.2035 -2.3532  1.3119
 1262TIP3   OH225276   2.210   5.977  16.745 -0.0893  0.3649  0.1526
 1262TIP3    H125277   2.235   5.898  16.698  0.9357  1.3071 -0.9401
 1262TIP3    H225278   2.280   5.991  16.809  1.0453  1.6855 -1.2996
 1263TIP3   OH225279   1.095   1.543  16.496 -0.0333  0.0354 -0.2918
 1263TIP3    H125280   1.097   1.589  16.580  0.2921  0.5510 -0.5719
 1263TIP3    H225281   1.132   1.606  16.434 -1.9013  0.3252 -1.1632
 1264TIP3   OH225282   2.693   3.348  11.481 -0.1561 -0.0609 -0.0807
 1264TIP3    H125283   2.620   3.406  11.497 -0.6145 -0.5997 -0.1843
 1264TIP3    H225284   2.750   3.397  11.421 -0.5977  0.2317 -0.2657
 1265TIP3   OH225285   2.274   3.623   2.984 -0.3857  0.0205  0.3931
 1265TIP3    H125286   2.241   3.629   3.074 -1.8354 -0.4981 -0.0852
 1265TIP3    H225287   2.358   3.668   2.987 -0.8881  0.9294  1.7735
 1266TIP3   OH225288   1.302   3.488   2.315  0.2186 -0.2851 -0.1361
 1266TIP3    H125289   1.358   3.438   2.375  0.5833  0.4394  0.1396
 1266TIP3    H225290   1.328   3.458   2.228  0.0307 -0.9867  0.0374
 1267TIP3   OH225291   0.724   5.943   5.753  0.0376  0.2047  0.2227
 1267TIP3    H125292   0.791   5.955   5.686  0.4376 -0.0878  0.5603
 1267TIP3    H225293   0.644   5.925   5.705 -0.3291  2.8507 -0.2754
 1268TIP3   OH225294   4.048   0.496   0.618  0.0238 -0.1471 -0.6535
 1268TIP3    H125295   4.070   0.585   0.645 -0.5620  0.1007 -0.9710
 1268TIP3    H225296   4.060   0.496   0.523 -0.0192 -0.3970 -0.6613
 1269TIP3   OH225297   1.715   6.172  14.526 -0.0639 -0.2086  0.0907
 1269TIP3    H125298   1.714   6.259  14.487  0.8382  0.1293  0.7798
 1269TIP3    H225299   1.681   6.114  14.458 -2.6290  0.9256  0.2884
 1270TIP3   OH225300   6.166   2.815  16.713 -0.0608  0.5334 -0.1999
 1270TIP3    H125301   6.095   2.859  16.665  0.8299  0.4330 -1.6752
 1270TIP3    H225302   6.246   2.846  16.670  0.7860  0.3734  1.2032
 1271TIP3   OH225303   1.354   1.252  15.357 -0.0647 -0.3781  0.7642
 1271TIP3    H125304   1.384   1.173  15.402  1.2717  0.6699  1.7848
 1271TIP3    H225305   1.341   1.316  15.427  0.2732  0.7453 -0.1712
 1272TIP3   OH225306   5.857   5.529  16.252 -0.0439 -0.1378 -0.2102
 1272TIP3    H125307   5.833   5.556  16.163 -4.9403  0.6419  1.0532
 1272TIP3    H225308   5.832   5.603  16.307  0.1860 -1.6340  2.0291
 1273TIP3   OH225309   5.903   4.772  17.062  0.4006  1.1795 -0.5330
 1273TIP3    H125310   5.994   4.745  17.057  0.6279  1.4193  1.5579
 1273TIP3    H225311   5.906   4.862  17.095 -0.5383  1.9558 -2.4135
 1274TIP3   OH225312   0.069   2.623  10.424  0.6961 -0.4693 -0.2475
 1274TIP3    H125313   0.067   2.709  10.381 -0.3512 -0.5189 -0.3201
 1274TIP3    H225314   0.143   2.628  10.484  2.1712 -0.3652 -1.9756
 1275TIP3   OH225315   2.309   1.862  11.997  1.0260  0.8944 -0.4949
 1275TIP3    H125316   2.286   1.831  12.085  1.1500 -0.2280 -0.8437
 1275TIP3    H225317   2.228   1.850  11.946  1.3159  0.3771 -0.8342
 1276TIP3   OH225318   1.451   2.157   5.796  0.1956  0.3507  0.0043
 1276TIP3    H125319   1.420   2.247   5.803  1.0342  0.5684  1.0791
 1276TIP3    H225320   1.486   2.137   5.883 -0.0468 -1.0404 -0.1983
 1277TIP3   OH225321   4.934   5.632  12.450  0.5139  0.0663  0.0600
 1277TIP3    H125322   5.002   5.611  12.515  1.7363 -1.0091 -1.4671
 1277TIP3    H225323   4.855   5.592  12.485  1.0779 -0.2393  1.0427
 1278TIP3   OH225324   6.005   5.641   5.847  0.1399  0.5164 -0.4489
 1278TIP3    H125325   5.912   5.636   5.869  0.3326  1.2235  0.6125
 1278TIP3    H225326   6.040   5.706   5.907  1.4091 -0.0556 -0.5406
 1279TIP3   OH225327   4.497   0.834   2.242  0.1102  0.2287  0.0375
 1279TIP3    H125328   4.449   0.753   2.225  0.0583  0.2250  0.1961
 1279TIP3    H225329   4.442   0.882   2.304  0.6841 -0.1426  0.8573
 1280TIP3   OH225330   1.678   0.617  14.743 -0.2204  0.0408  0.2806
 1280TIP3    H125331   1.695   0.618  14.649 -0.4415 -1.5156  0.1951
 1280TIP3    H225332   1.674   0.524  14.766  1.4652  0.3613  2.1397
 1281TIP3   OH225333   6.680   5.766  12.923 -0.3254 -1.0736  0.4071
 1281TIP3    H125334   6.671   5.846  12.974  1.4610 -1.1521  0.8966
 1281TIP3    H225335   6.695   5.796  12.833  1.1267 -0.8228  0.7207
 1282TIP3   OH225336   6.158   4.297  14.401 -0.1000 -0.5786  0.0378
 1282TIP3    H125337   6.132   4.375  14.450  0.0737 -0.8846  0.6247
 1282TIP3    H225338   6.174   4.231  14.468 -1.3578 -1.4701 -0.5102
 1283TIP3   OH225339   3.884   2.253   1.679 -0.4086 -0.0010 -0.2046
 1283TIP3    H125340   3.838   2.171   1.694  0.2465 -0.1105  1.4785
 1283TIP3    H225341   3.974   2.227   1.659  0.3284  0.2742  2.4034
 1284TIP3   OH225342   1.442   6.115   0.835  0.0276  0.0278  0.5744
 1284TIP3    H125343   1.382   6.041   0.832  0.5196 -0.3403 -1.1383
 1284TIP3    H225344   1.460   6.128   0.928 -0.6794 -1.4829  0.9438
 1285TIP3   OH225345   2.661   1.485   0.891 -0.1691 -0.2555  0.1543
 1285TIP3    H125346   2.711   1.457   0.814  1.4019  1.7449  0.3561
 1285TIP3    H225347   2.673   1.580   0.893 -1.9375 -0.0131  1.6962
 1286TIP3   OH225348   5.595   1.814   5.763 -0.4690 -0.1223 -0.2638
 1286TIP3    H125349   5.619   1.737   5.813  0.2026  0.2694  0.0287
 1286TIP3    H225350   5.499   1.817   5.768 -0.4940 -0.8932 -0.2302
 1287TIP3   OH225351   0.638   0.923  17.093  1.0012 -0.3385  0.2950
 1287TIP3    H125352   0.698   0.975  17.039  0.2447  0.5396  0.2942
 1287TIP3    H225353   0.552   0.939  17.056  0.4238  0.4942  1.9277
 1288TIP3   OH225354   5.979   2.574  13.092  0.6719 -0.2653  0.4757
 1288TIP3    H125355   6.013   2.486  13.082  1.0967 -0.1734  1.0394
 1288TIP3    H225356   5.951   2.600  13.004 -0.5728 -1.4063  0.5122
 1289TIP3   OH225357   2.710   2.191   1.357 -0.4524 -0.5407 -0.2835
 1289TIP3    H125358   2.761   2.271   1.344  1.2679 -1.0564  2.3305
 1289TIP3    H225359   2.620   2.216   1.340 -0.0238  2.1166  0.8468
 1290TIP3   OH225360   4.474   2.414   2.499 -0.1164  0.0477  0.1346
 1290TIP3    H125361   4.567   2.391   2.504 -0.2105 -0.3955 -0.1468
 1290TIP3    H225362   4.447   2.421   2.591  0.3862  0.9844  0.2214
 1291TIP3   OH225363   5.271   0.657   0.744 -0.0203 -0.4166  0.3523
 1291TIP3    H125364   5.212   0.610   0.684  2.0906  1.0317 -3.2261
 1291TIP3    H225365   5.330   0.589   0.777 -2.5018 -1.6046  2.6952
 1292TIP3   OH225366   6.026   3.372  14.206  0.0148 -0.3372  0.9086
 1292TIP3    H125367   6.087   3.314  14.162 -0.1966  0.4102 -0.4477
 1292TIP3    H225368   5.952   3.316  14.230 -0.0086 -0.7107 -0.0025
 1293TIP3   OH225369   0.443   2.739  16.388 -0.3738 -0.0849 -0.3131
 1293TIP3    H125370   0.520   2.779  16.349 -0.9897  0.4058 -1.0650
 1293TIP3    H225371   0.420   2.797  16.461 -0.8220  0.5296 -0.9342
 1294TIP3   OH225372   5.474   2.873  13.624  0.1799  0.1918  0.1182
 1294TIP3    H125373   5.404   2.934  13.648  1.5204  2.4060 -1.2234
 1294TIP3    H225374   5.547   2.899  13.680  0.8449  0.0006 -0.6464
 1295TIP3   OH225375   3.501   3.458  14.108 -0.3259  0.0244  0.0777
 1295TIP3    H125376   3.553   3.537  14.091 -3.3951  2.2108 -0.1139
 1295TIP3    H225377   3.498   3.452  14.203  0.8781 -0.6198  0.0946
 1296TIP3   OH225378   2.395   2.104  12.127  0.0292 -0.2861  0.0080
 1296TIP3    H125379   2.415   2.197  12.115 -0.3092 -0.0048  1.5079
 1296TIP3    H225380   2.405   2.066  12.039 -0.8454  1.3510 -0.8387
 1297TIP3   OH225381   6.412   0.240   5.262  0.2816  0.2491 -0.4200
 1297TIP3    H125382   6.363   0.320   5.282  1.6865  0.8232  0.9016
 1297TIP3    H225383   6.434   0.202   5.347  0.5649 -0.9775 -1.0080
 1298TIP3   OH225384   2.362   2.081  11.554 -0.3784 -0.1612 -0.7090
 1298TIP3    H125385   2.415   2.111  11.628  1.0198 -2.4429 -0.6774
 1298TIP3    H225386   2.392   2.132  11.480  0.9441 -0.4727 -0.4151
 1299TIP3   OH225387   1.766   5.850   1.762 -0.4162  0.1135  1.0243
 1299TIP3    H125388   1.707   5.828   1.690 -0.4440 -2.2310  1.7072
 1299TIP3    H225389   1.725   5.925   1.805 -2.0634 -0.4715  0.5185
 1300TIP3   OH225390   5.479   3.887  12.653 -0.2855 -0.9320 -0.4952
 1300TIP3    H125391   5.455   3.976  12.627 -1.9622 -1.0000  0.6822
 1300TIP3    H225392   5.404   3.833  12.626 -0.1429 -1.6736  0.5311
 1301TIP3   OH225393   0.156   3.744   3.025  0.8590 -0.0023 -0.0521
 1301TIP3    H125394   0.144   3.708   3.113  1.4302 -1.1493 -0.4181
 1301TIP3    H225395   0.193   3.671   2.974  1.3158  0.8813 -1.0321
 1302TIP3   OH225396   4.347   5.066  12.155 -0.8625  0.1119  0.2313
 1302TIP3    H125397   4.400   5.000  12.199 -1.1057 -0.5336 -0.4250
 1302TIP3    H225398   4.407   5.138  12.139  0.3701 -1.3067 -2.1354
 1303TIP3   OH225399   3.528   0.111   2.364 -0.1884  0.4781  0.2137
 1303TIP3    H125400   3.459   0.139   2.423 -1.8596 -0.0341 -1.3992
 1303TIP3    H225401   3.488   0.042   2.311  1.5593  0.1750 -0.7955
 1304TIP3   OH225402   5.961   0.742   1.297 -0.4079  0.2195 -0.2250
 1304TIP3    H125403   5.915   0.695   1.367  2.7724 -1.3326  1.0493
 1304TIP3    H225404   5.999   0.673   1.243  1.4932  1.2898 -0.3640
 1305TIP3   OH225405   2.837   6.746  11.769 -0.1981 -0.4903  0.1767
 1305TIP3    H125406   2.745   6.726  11.757 -0.1587  0.1071 -1.3665
 1305TIP3    H225407   2.839   6.810  11.840 -1.1979  0.9678 -1.0440
 1306TIP3   OH225408   3.534   5.131  16.966 -0.0397  0.0528 -0.2292
 1306TIP3    H125409   3.582   5.089  17.038 -0.1518 -1.1883 -0.8419
 1306TIP3    H225410   3.560   5.223  16.970  2.0045 -0.4836 -0.2472
 1307TIP3   OH225411   4.531   4.249   1.316 -0.4030 -0.1271  0.1165
 1307TIP3    H125412   4.445   4.206   1.312 -0.2123 -0.4967 -0.0051
 1307TIP3    H225413   4.545   4.281   1.227  0.0186 -0.9159 -0.1080
 1308TIP3   OH225414   1.585   5.554   0.596 -0.0534 -0.0146  0.5756
 1308TIP3    H125415   1.555   5.615   0.663 -3.2805  1.0284 -1.5686
 1308TIP3    H225416   1.534   5.576   0.519  1.7670 -2.6773 -1.5992
 1309TIP3   OH225417   0.124   4.900  14.604 -0.1250 -0.2943  0.1466
 1309TIP3    H125418   0.134   4.832  14.536 -1.7043 -0.4981  0.0816
 1309TIP3    H225419   0.116   4.982  14.554 -2.8150 -0.5995 -0.0898
 1310TIP3   OH225420   0.695   1.301   0.266  0.1408  0.4830  0.2038
 1310TIP3    H125421   0.702   1.222   0.211  0.9598  0.7802 -0.1341
 1310TIP3    H225422   0.617   1.286   0.320  0.8588 -1.0096  0.8767
 1311TIP3   OH225423   4.494   5.983  15.014  0.0379  0.3185  0.2501
 1311TIP3    H125424   4.529   6.042  14.947  1.4506 -0.6117  0.1180
 1311TIP3    H225425   4.538   6.010  15.095 -0.2453  0.2263  0.4363
 1312TIP3   OH225426   3.095   3.550  15.934  0.2687 -0.2675 -0.4311
 1312TIP3    H125427   3.149   3.488  15.983  0.1263  0.4736  0.7095
 1312TIP3    H225428   3.130   3.636  15.959 -0.4203  0.1551 -0.9102
 1313TIP3   OH225429   3.398   1.568  15.462 -0.1650  0.3043  0.3656
 1313TIP3    H125430   3.355   1.483  15.468 -0.3389  0.0330 -2.7462
 1313TIP3    H225431   3.330   1.632  15.483  0.1040 -0.2399  3.2522
 1314TIP3   OH225432   4.756   4.582  13.681  0.4057  0.0760 -0.0607
 1314TIP3    H125433   4.784   4.495  13.651 -3.1039 -0.6404 -1.7394
 1314TIP3    H225434   4.745   4.572  13.776 -0.8599 -1.6465 -0.3416
 1315TIP3   OH225435   6.545   5.733   1.094  0.1979 -0.2896 -0.0049
 1315TIP3    H125436   6.460   5.760   1.058  0.5913 -0.3316 -0.9845
 1315TIP3    H225437   6.541   5.637   1.094  0.1469 -0.2866  0.1790
 1316TIP3   OH225438   6.724   4.019   2.057 -0.0836  0.3900 -0.1823
 1316TIP3    H125439   6.772   3.986   1.981 -0.3855  0.6340 -0.4828
 1316TIP3    H225440   6.733   3.950   2.122  1.8561  1.0303  0.2824
 1317TIP3   OH225441   6.056   4.779  13.158 -0.3171 -0.0683 -0.0265
 1317TIP3    H125442   6.029   4.862  13.198 -0.4774 -0.4126  0.5858
 1317TIP3    H225443   6.149   4.771  13.180 -0.6696 -0.8219  1.3094
 1318TIP3   OH225444   0.501   4.300  13.534  0.2559  0.5337  0.0246
 1318TIP3    H125445   0.595   4.316  13.522  0.5230 -1.2078 -0.5245
 1318TIP3    H225446   0.496   4.207  13.554 -1.4491  0.3267 -1.1849
 1319TIP3   OH225447   5.816   6.072   0.894 -0.3782 -0.0706  0.1723
 1319TIP3    H125448   5.857   5.986   0.888 -0.5367 -0.1558  0.3019
 1319TIP3    H225449   5.745   6.061   0.957 -1.0560 -0.0938 -0.5808
 1320TIP3   OH225450   1.445   3.611  15.036  0.4848 -0.3071  0.3603
 1320TIP3    H125451   1.536   3.608  15.007 -0.0639  0.6638 -1.6676
 1320TIP3    H225452   1.427   3.704  15.049 -0.6074 -0.3505 -0.6853
 1321TIP3   OH225453   3.223   0.198   1.433 -0.4433  0.4796 -0.0545
 1321TIP3    H125454   3.154   0.220   1.371 -0.3863  2.3240  0.4966
 1321TIP3    H225455   3.303   0.193   1.380 -0.5445  1.1176 -0.2638
 1322TIP3   OH225456   6.119   0.688   1.849  0.2365 -0.2197 -0.2616
 1322TIP3    H125457   6.182   0.644   1.905 -0.2491  1.4264  1.6821
 1322TIP3    H225458   6.162   0.768   1.821 -0.3331  0.0332 -0.4426
 1323TIP3   OH225459   6.406   3.741   4.759  0.0502 -0.2418  0.1003
 1323TIP3    H125460   6.468   3.669   4.758 -0.6444 -0.8559 -1.0958
 1323TIP3    H225461   6.403   3.769   4.850  1.1447 -0.9997  0.3863
 1324TIP3   OH225462   5.928   5.511  11.964  0.0564  0.0693 -0.9709
 1324TIP3    H125463   5.941   5.422  11.932  1.2206 -0.2313  0.2629
 1324TIP3    H225464   6.004   5.529  12.019 -1.7654  0.5645  1.5664
 1325TIP3   OH225465   3.817   0.066  11.393  0.3489 -0.1845 -0.1958
 1325TIP3    H125466   3.830  -0.021  11.356 -0.6375 -0.8711  1.0217
 1325TIP3    H225467   3.888   0.118  11.356  0.2221 -1.1721 -1.9293
 1326TIP3   OH225468   0.296   0.289   1.688 -0.2657  0.1397  0.3204
 1326TIP3    H125469   0.339   0.206   1.705  1.1154  0.8165  0.2304
 1326TIP3    H225470   0.362   0.343   1.645 -1.8655  0.4662 -1.9340
 1327TIP3   OH225471   4.074   6.249   0.600 -0.2643  0.0624 -0.5495
 1327TIP3    H125472   4.084   6.165   0.645 -1.5883  0.0808 -0.1681
 1327TIP3    H225473   4.047   6.225   0.512  0.2912  0.0744 -0.7261
 1328TIP3   OH225474   3.132   4.551   3.803  0.0409  0.1454 -0.0266
 1328TIP3    H125475   3.101   4.639   3.784  2.1142  0.5296 -2.2107
 1328TIP3    H225476   3.128   4.543   3.898 -2.7742  1.5322  0.0457
 1329TIP3   OH225477   3.045   3.829   1.356  0.3367 -0.0505 -0.3973
 1329TIP3    H125478   3.026   3.919   1.383  0.6350  0.2697 -1.2378
 1329TIP3    H225479   3.027   3.828   1.262 -0.0113 -0.9655 -0.3295
 1330TIP3   OH225480   0.130   2.739  16.576 -0.6652 -0.7090  0.0515
 1330TIP3    H125481   0.208   2.785  16.606 -1.1254  0.4578 -0.4343
 1330TIP3    H225482   0.113   2.673  16.643 -0.6654  0.6476  1.4518
 1331TIP3   OH225483   1.390   4.371   4.397  0.7393 -0.3254 -0.1699
 1331TIP3    H125484   1.372   4.345   4.306 -3.3178 -0.9489  0.6094
 1331TIP3    H225485   1.366   4.464   4.400  1.3636 -0.1731  0.1647
 1332TIP3   OH225486   0.040   6.649  16.869  0.2141 -0.0615 -0.1454
 1332TIP3    H125487   0.125   6.688  16.852 -0.5160  1.7277  0.0452
 1332TIP3    H225488   0.003   6.633  16.782 -0.2605  1.5661 -0.2760
 1333TIP3   OH225489   3.835   5.507   5.106 -0.6053 -0.2014  0.3449
 1333TIP3    H125490   3.915   5.454   5.104 -0.2272  0.3456 -1.4788
 1333TIP3    H225491   3.817   5.521   5.199  0.1955 -2.1257  0.8393
 1334TIP3   OH225492   2.064   6.829  15.883 -0.0760 -0.1593 -0.1823
 1334TIP3    H125493   2.059   6.776  15.804  0.2399 -1.8488  0.8727
 1334TIP3    H225494   2.158   6.843  15.897 -0.1551  0.6425 -0.4170
 1335TIP3   OH225495   2.436   2.078   0.723 -0.2368  0.1003  0.4137
 1335TIP3    H125496   2.370   2.048   0.785 -1.9244  1.0347 -0.8475
 1335TIP3    H225497   2.406   2.165   0.696  1.4808  0.5219 -0.2575
 1336TIP3   OH225498   2.469   6.332  17.154 -0.0196  0.4137  0.7846
 1336TIP3    H125499   2.403   6.364  17.092  0.5531  1.1392  0.5403
 1336TIP3    H225500   2.501   6.411  17.197  2.0529  0.3307 -0.4479
 1337TIP3   OH225501   6.638   4.118   3.856  0.2261  0.1165  0.1961
 1337TIP3    H125502   6.716   4.138   3.804  0.7425  1.9825  1.5469
 1337TIP3    H225503   6.565   4.145   3.802  0.4653 -1.5871 -1.0600
 1338TIP3   OH225504   3.806   6.522  16.605 -0.1504 -0.6324 -0.2626
 1338TIP3    H125505   3.893   6.560  16.594 -0.7758  0.6398 -1.0515
 1338TIP3    H225506   3.759   6.547  16.526 -0.5267 -3.3976 -1.0111
 1339TIP3   OH225507   1.554   4.422   0.207 -0.7364  0.2653 -0.1006
 1339TIP3    H125508   1.476   4.476   0.216 -1.9378 -1.2022 -1.1915
 1339TIP3    H225509   1.548   4.359   0.279  0.7972  1.6445  1.3308
 1340TIP3   OH225510   3.952   5.103  11.372 -0.4772  0.2910 -0.2577
 1340TIP3    H125511   3.939   5.008  11.368 -3.2579  0.4789  1.2968
 1340TIP3    H225512   4.017   5.116  11.440 -1.1789 -0.5087  0.5945
 1341TIP3   OH225513   6.541   1.258  16.879  0.2007  0.4959  0.2629
 1341TIP3    H125514   6.522   1.298  16.963  0.4758  0.0158  0.5549
 1341TIP3    H225515   6.499   1.172  16.883  2.4054 -0.6088  0.9291
 1342TIP3   OH225516   3.258   5.105  13.053 -0.3258 -0.2194 -0.3590
 1342TIP3    H125517   3.320   5.167  13.014  1.7499 -0.3478  2.3665
 1342TIP3    H225518   3.272   5.023  13.006 -0.2480  0.3882 -1.4138
 1343TIP3   OH225519   0.256   2.685   0.741 -0.3134 -0.1431  0.0811
 1343TIP3    H125520   0.169   2.663   0.708 -0.6230  1.4122 -0.1995
 1343TIP3    H225521   0.248   2.775   0.773  0.9812 -0.2642  0.8228
 1344TIP3   OH225522   1.846   4.425   4.596  0.4686 -0.2262 -0.3290
 1344TIP3    H125523   1.897   4.410   4.516 -0.3007  0.5308 -0.9762
 1344TIP3    H225524   1.758   4.447   4.565  0.0651 -0.2931  0.7384
 1345TIP3   OH225525   2.495   1.335   6.151  0.4510  0.0197 -0.1389
 1345TIP3    H125526   2.477   1.318   6.059 -0.0056 -0.3301  0.0077
 1345TIP3    H225527   2.438   1.409   6.173 -2.3382 -2.2217  0.7882
 1346TIP3   OH225528   0.522   6.059   3.888 -0.6069  0.4354 -0.5773
 1346TIP3    H125529   0.457   6.118   3.927  0.1339  1.5684 -1.0118
 1346TIP3    H225530   0.485   5.971   3.901 -2.5538  1.0721 -1.4096
 1347TIP3   OH225531   3.770   4.306  15.837  0.0843 -0.1466 -0.4899
 1347TIP3    H125532   3.839   4.372  15.843 -0.8720  0.8930 -0.4266
 1347TIP3    H225533   3.816   4.223  15.825  1.5145  0.0337  2.6439
 1348TIP3   OH225534   3.420   2.730  13.953  0.2945  0.1025 -0.3245
 1348TIP3    H125535   3.443   2.637  13.954 -0.7001 -0.1529  0.4019
 1348TIP3    H225536   3.344   2.736  13.895 -2.5024 -0.3351  2.9510
 1349TIP3   OH225537   2.584   2.519  14.702 -0.0764  0.9326 -0.0910
 1349TIP3    H125538   2.521   2.462  14.747  1.0672 -1.0385 -0.8552
 1349TIP3    H225539   2.600   2.591  14.763  1.4689 -1.6422  2.7877
 1350TIP3   OH225540   5.722   4.009   4.240 -0.0112 -0.3744 -0.2110
 1350TIP3    H125541   5.720   3.913   4.237  0.3543 -0.4064  0.5234
 1350TIP3    H225542   5.777   4.033   4.165  1.9761 -0.8577  1.0024
 1351TIP3   OH225543   0.986   5.252   3.705 -0.4908  0.0317  0.3066
 1351TIP3    H125544   0.891   5.246   3.692 -0.6411  1.4841  0.5573
 1351TIP3    H225545   1.003   5.345   3.715  1.0629 -0.1525 -0.3298
 1352TIP3   OH225546   3.199   4.971   1.234 -0.3119  0.5442  0.2238
 1352TIP3    H125547   3.281   4.923   1.247 -0.3617  0.7269  1.2280
 1352TIP3    H225548   3.150   4.917   1.172  0.7470  0.6584 -0.7683
 1353TIP3   OH225549   4.819   4.180   3.450 -0.1718  0.6449 -0.3607
 1353TIP3    H125550   4.724   4.165   3.443 -0.3927  1.7067  0.2129
 1353TIP3    H225551   4.854   4.095   3.478 -1.2831  0.8922  2.0013
 1354TIP3   OH225552   2.787   3.301  14.838  0.3070  0.4779  0.3715
 1354TIP3    H125553   2.735   3.247  14.897  0.3496 -0.5324 -0.4921
 1354TIP3    H225554   2.854   3.242  14.804  1.3945  1.4973  0.6713
 1355TIP3   OH225555   3.437   6.780  16.011 -0.0618 -0.1418  0.1641
 1355TIP3    H125556   3.517   6.729  16.024 -2.1759 -3.3211  2.1880
 1355TIP3    H225557   3.450   6.860  16.063  1.1918 -1.3707  1.8352
 1356TIP3   OH225558   4.136   5.740   6.136 -0.1472 -0.4350 -0.3804
 1356TIP3    H125559   4.124   5.824   6.179  2.6702 -0.5932  0.9462
 1356TIP3    H225560   4.111   5.755   6.045 -1.2485  1.3457  0.1663
 1357TIP3   OH225561   4.394   3.171   1.457  0.4377  0.5400 -0.1492
 1357TIP3    H125562   4.300   3.155   1.468  0.7923 -1.3294  0.4900
 1357TIP3    H225563   4.403   3.266   1.465 -1.5854  0.9414 -1.9533
 1358TIP3   OH225564   3.948   4.162   4.799 -0.1479  0.1746 -0.6046
 1358TIP3    H125565   4.017   4.148   4.864  0.4901  0.0830 -1.2960
 1358TIP3    H225566   3.950   4.256   4.782  0.1261  0.1038 -0.9716
 1359TIP3   OH225567   4.949   4.315  11.613 -0.1346 -0.7649 -0.0406
 1359TIP3    H125568   4.993   4.245  11.660  0.5254  0.2250  0.8557
 1359TIP3    H225569   4.964   4.393  11.666 -0.9273  0.0464 -0.9649
 1360TIP3   OH225570   6.303   4.097  12.082  0.2137  0.3333  0.3006
 1360TIP3    H125571   6.379   4.152  12.063 -1.1569  1.8027 -1.3364
 1360TIP3    H225572   6.334   4.035  12.148  3.2124 -0.0176 -1.2536
 1361TIP3   OH225573   5.153   3.219   4.984  0.0594 -0.2411  0.1059
 1361TIP3    H125574   5.107   3.153   4.932 -3.6543  1.8584  0.3802
 1361TIP3    H225575   5.146   3.299   4.933 -1.3148  1.2873  2.4866
 1362TIP3   OH225576   3.550   5.368   2.559  0.0532  0.1244  0.9378
 1362TIP3    H125577   3.459   5.340   2.566  0.8875 -2.7313  1.9038
 1362TIP3    H225578   3.568   5.415   2.640 -0.3978  0.2225  0.9830
 1363TIP3   OH225579   3.265   3.542  12.559 -1.0118 -0.4086 -0.3118
 1363TIP3    H125580   3.220   3.566  12.478  0.7954  1.6361 -0.7933
 1363TIP3    H225581   3.194   3.516  12.618 -2.7388  1.3287 -1.4727
 1364TIP3   OH225582   6.741   3.444   1.444 -0.0639 -0.8318  0.3535
 1364TIP3    H125583   6.751   3.351   1.463  0.1378 -0.8542  0.1292
 1364TIP3    H225584   6.825   3.471   1.406 -0.8270 -1.0414 -1.5896
 1365TIP3   OH225585   5.960   1.387  13.400 -0.4454  0.3127  0.6039
 1365TIP3    H125586   5.956   1.331  13.477 -1.2567 -0.7114 -0.1487
 1365TIP3    H225587   5.882   1.364  13.349 -1.3757  2.8594  0.7302
 1366TIP3   OH225588   1.376   1.178  11.505 -0.5380  0.4436 -0.1420
 1366TIP3    H125589   1.351   1.266  11.475 -0.8157 -0.0129 -1.3054
 1366TIP3    H225590   1.468   1.170  11.483 -0.4125  0.5791  0.3215
 1367TIP3   OH225591   5.237   0.230  11.251 -0.5248 -0.0962 -0.4084
 1367TIP3    H125592   5.164   0.205  11.309 -0.7895  0.4275 -0.5139
 1367TIP3    H225593   5.299   0.158  11.260 -0.7672 -0.2436  0.1775
 1368TIP3   OH225594   1.152   0.803  13.000 -0.5202 -0.2565 -0.0291
 1368TIP3    H125595   1.079   0.788  13.061 -1.0132 -0.3196 -0.6198
 1368TIP3    H225596   1.112   0.797  12.913  0.1167  0.1305 -0.3576
 1369TIP3   OH225597   6.138   1.210   4.291  0.0439  0.2302  0.2770
 1369TIP3    H125598   6.141   1.179   4.382  1.8848 -2.0609 -0.4709
 1369TIP3    H225599   6.228   1.235   4.271 -0.3275  0.6563 -0.9438
 1370TIP3   OH225600   0.221   2.083   3.745  0.0911 -0.2249 -0.5747
 1370TIP3    H125601   0.160   2.062   3.815 -1.3272  1.8365 -1.0897
 1370TIP3    H225602   0.171   2.068   3.664  0.8327 -0.1398 -1.0587
 1371TIP3   OH225603   0.404   5.341  16.935 -0.0916 -0.2050  0.2360
 1371TIP3    H125604   0.442   5.428  16.953 -1.1949  0.0455  1.4531
 1371TIP3    H225605   0.435   5.320  16.847  0.7530  1.1287  0.1834
 1372TIP3   OH225606   4.444   5.859   4.182  0.1372 -0.4504 -0.4834
 1372TIP3    H125607   4.382   5.925   4.151 -0.4039 -0.9740 -0.5486
 1372TIP3    H225608   4.395   5.777   4.177  0.9427 -0.9263 -0.8488
 1373TIP3   OH225609   2.306   1.816   6.090  0.1387  0.5177  0.2823
 1373TIP3    H125610   2.270   1.728   6.101  0.5509  0.3237  0.1335
 1373TIP3    H225611   2.230   1.872   6.075 -0.3286  0.5414  2.4062
 1374TIP3   OH225612   5.656   1.085  11.828  0.5017  0.2143  0.1895
 1374TIP3    H125613   5.718   1.015  11.848 -0.0690 -0.5725 -0.7359
 1374TIP3    H225614   5.695   1.164  11.867  0.8839 -0.7066  1.7429
 1375TIP3   OH225615   0.683   3.821  14.108  0.3222 -0.5793 -0.1093
 1375TIP3    H125616   0.737   3.746  14.135  1.6170  0.7513  1.2724
 1375TIP3    H225617   0.627   3.838  14.184 -0.3539 -0.4672 -0.6270
 1376TIP3   OH225618   5.146   5.423   2.472  0.3974  0.4037 -0.0470
 1376TIP3    H125619   5.211   5.353   2.472 -0.8497 -1.1249  4.3247
 1376TIP3    H225620   5.063   5.378   2.453 -0.3904  0.5479  2.6063
 1377TIP3   OH225621   1.655   6.778  15.808  0.1163  0.3985 -0.7660
 1377TIP3    H125622   1.620   6.821  15.886 -0.3761 -0.1076 -0.7040
 1377TIP3    H225623   1.725   6.836  15.778 -0.6766  1.3606 -0.8178
 1378TIP3   OH225624   0.623   4.857   2.108 -0.1245  0.0589 -0.1932
 1378TIP3    H125625   0.538   4.844   2.065 -0.9999  1.3077  1.1055
 1378TIP3    H225626   0.641   4.950   2.098  0.1129  0.1873  1.3170
 1379TIP3   OH225627   1.239   5.573  11.246  0.3341 -0.0482 -0.0496
 1379TIP3    H125628   1.154   5.561  11.204 -0.0811 -2.0099  1.1921
 1379TIP3    H225629   1.279   5.646  11.199 -1.6137  0.2837 -1.3205
 1380TIP3   OH225630   3.774   6.406  11.450  0.4518 -0.0841 -0.0334
 1380TIP3    H125631   3.698   6.363  11.412 -0.3960  0.2880  1.1605
 1380TIP3    H225632   3.818   6.338  11.501 -1.1835  0.4498  2.2926
 1381TIP3   OH225633   4.454   4.678   6.362  0.0475 -0.3814 -0.5269
 1381TIP3    H125634   4.491   4.619   6.428  0.5937 -1.5587 -1.8176
 1381TIP3    H225635   4.395   4.736   6.411  0.6555 -1.0132  1.0125
 1382TIP3   OH225636   0.168   0.585  10.504 -0.0149 -0.0644  0.2959
 1382TIP3    H125637   0.171   0.533  10.424 -0.4787  2.6492 -1.6321
 1382TIP3    H225638   0.260   0.608  10.520  0.2267 -1.5626  1.3130
 1383TIP3   OH225639   5.675   2.863   1.567 -0.6641 -0.0492 -0.5585
 1383TIP3    H125640   5.638   2.947   1.541 -2.5106 -0.4806  0.4582
 1383TIP3    H225641   5.725   2.882   1.646 -0.9421  0.1384 -0.4251
 1384TIP3   OH225642   0.751   6.616   5.242  0.0169 -0.4507  0.0234
 1384TIP3    H125643   0.811   6.669   5.295  0.6852 -0.6861 -0.4784
 1384TIP3    H225644   0.666   6.628   5.284  0.3570  0.1176  0.5881
 1385TIP3   OH225645   1.720   4.001  15.638 -0.1583 -0.2316 -0.7871
 1385TIP3    H125646   1.803   3.982  15.594  0.0246  1.6672 -1.3256
 1385TIP3    H225647   1.674   4.060  15.579 -0.4321  1.4389  0.9951
 1386TIP3   OH225648   0.349   4.657  15.292  0.2462  0.3730  0.1014
 1386TIP3    H125649   0.330   4.697  15.208 -0.9998 -0.4982 -0.0541
 1386TIP3    H225650   0.316   4.720  15.356  0.1550  0.5145 -0.0846
 1387TIP3   OH225651   5.204   3.202   2.424  0.6190 -0.3399 -0.2033
 1387TIP3    H125652   5.274   3.187   2.360  2.5963  1.9093  1.2991
 1387TIP3    H225653   5.214   3.132   2.488  2.3531  0.6036  0.6305
 1388TIP3   OH225654   3.717   3.410  13.513 -0.8194 -0.0661  0.4220
 1388TIP3    H125655   3.655   3.479  13.536  0.0271  0.8320  0.0882
 1388TIP3    H225656   3.802   3.444  13.541  0.3828  1.2740 -3.9979
 1389TIP3   OH225657   0.710   4.100  11.278  0.4613  0.6770 -0.6266
 1389TIP3    H125658   0.743   4.077  11.365 -0.9324 -1.1826 -0.5362
 1389TIP3    H225659   0.703   4.017  11.232 -1.4711  1.3048 -1.5649
 1390TIP3   OH225660   4.576   0.681   2.617 -0.0594  0.3427  0.0115
 1390TIP3    H125661   4.587   0.776   2.610  0.5795  0.2276 -0.6554
 1390TIP3    H225662   4.556   0.666   2.710 -2.4071  1.3197 -0.2581
 1391TIP3   OH225663   2.564   6.348   2.898 -0.1101 -0.3633 -0.3209
 1391TIP3    H125664   2.633   6.332   2.962  1.6348 -0.7401 -2.1949
 1391TIP3    H225665   2.483   6.335   2.946  1.0278  1.5738  2.3736
 1392TIP3   OH225666   3.752   5.149   3.883 -0.1588  0.2380  0.4627
 1392TIP3    H125667   3.699   5.212   3.932  0.1659 -0.2561  1.4850
 1392TIP3    H225668   3.724   5.063   3.916 -1.7831 -0.2992 -2.0891
 1393TIP3   OH225669   1.748   1.159   6.942  0.1422 -0.2588 -0.2287
 1393TIP3    H125670   1.754   1.245   6.901 -0.3881  0.2483  0.7492
 1393TIP3    H225671   1.829   1.149   6.991  0.1688 -0.2862 -0.2781
 1394TIP3   OH225672   1.275   4.855   1.787  0.7442  0.0684  0.2615
 1394TIP3    H125673   1.319   4.848   1.702 -0.1036 -1.2411 -0.1127
 1394TIP3    H225674   1.224   4.774   1.794 -0.0652  0.6510  1.5378
 1395TIP3   OH225675   1.019   3.530   4.568  0.2439  0.2711 -0.3952
 1395TIP3    H125676   0.945   3.522   4.627  0.6797  1.6813  0.3917
 1395TIP3    H225677   0.980   3.548   4.482 -0.3242  1.4287  0.0977
 1396TIP3   OH225678   2.555   4.213   1.893  0.5705  0.2106  0.7073
 1396TIP3    H125679   2.491   4.236   1.826  1.5815  1.9143  0.2447
 1396TIP3    H225680   2.504   4.178   1.966 -0.6934 -0.1598 -0.3268
 1397TIP3   OH225681   3.752   2.347   4.468 -0.1744 -0.5488 -0.1255
 1397TIP3    H125682   3.755   2.386   4.555  0.3155  0.3916 -0.5586
 1397TIP3    H225683   3.842   2.348   4.437 -0.6759  1.8332 -1.8009
 1398TIP3   OH225684   3.440   1.301   0.767  0.3081 -0.1251 -0.4179
 1398TIP3    H125685   3.351   1.314   0.735  0.2321  3.1062  0.7525
 1398TIP3    H225686   3.491   1.280   0.689 -1.3800 -1.9860 -1.1209
 1399TIP3   OH225687   1.075   4.706   1.130  0.3453 -0.3212  0.3753
 1399TIP3    H125688   1.006   4.642   1.149 -0.2364 -0.5936 -2.3115
 1399TIP3    H225689   1.139   4.658   1.078 -0.0899  1.1726 -1.6728
 1400TIP3   OH225690   1.118   2.151   0.710  0.2298 -0.3440 -0.2678
 1400TIP3    H125691   1.151   2.165   0.799 -1.6532 -2.6822  0.8991
 1400TIP3    H225692   1.188   2.103   0.666  0.6223 -0.3837  0.3801
 1401TIP3   OH225693   6.415   4.254   1.296 -0.2528  0.7378  0.3051
 1401TIP3    H125694   6.393   4.218   1.210  1.0092 -0.8300  0.5808
 1401TIP3    H225695   6.509   4.271   1.292 -0.4627  2.2320  0.8608
 1402TIP3   OH225696   4.424   5.479  14.890 -0.7218  0.1856  0.5048
 1402TIP3    H125697   4.415   5.500  14.983  1.7360 -0.4615  0.9547
 1402TIP3    H225698   4.457   5.560  14.851  1.4010 -0.4398  0.8590
 1403TIP3   OH225699   4.997   6.360  16.205 -0.3155  0.1377  0.3676
 1403TIP3    H125700   5.046   6.429  16.250 -0.2897  0.1110  0.3799
 1403TIP3    H225701   5.007   6.381  16.112  1.2982 -0.9394  0.2632
 1404TIP3   OH225702   3.103   1.221   2.660 -0.2398 -0.6831  0.8433
 1404TIP3    H125703   3.115   1.259   2.573 -1.5887  3.1032  2.1155
 1404TIP3    H225704   3.048   1.144   2.645  0.7782 -1.0020 -1.7404
 1405TIP3   OH225705   2.825   4.646   0.008 -0.3926 -0.0432  0.1062
 1405TIP3    H125706   2.909   4.609  -0.018 -0.2079  0.1329  0.4450
 1405TIP3    H225707   2.842   4.739   0.020 -0.4990 -0.1004  0.7329
 1406TIP3   OH225708   4.770   5.984  12.758 -0.0864 -0.9071  0.5146
 1406TIP3    H125709   4.714   6.014  12.829 -0.2356  0.2968 -0.0738
 1406TIP3    H225710   4.709   5.949  12.692 -0.2274  0.7181 -0.2744
 1407TIP3   OH225711   4.248   5.941   0.324 -0.1962 -0.0276 -0.0272
 1407TIP3    H125712   4.265   6.018   0.379  0.7292 -1.5260  1.8944
 1407TIP3    H225713   4.309   5.951   0.250 -0.7648  1.5301 -0.3194
 1408TIP3   OH225714   5.559   6.002  14.380  0.7841  0.0182 -0.1171
 1408TIP3    H125715   5.484   5.957  14.341  0.9832 -0.0415 -0.4341
 1408TIP3    H225716   5.634   5.970  14.331  0.9318  0.6911 -0.3520
 1409TIP3   OH225717   3.842   0.073  11.985 -0.5373  0.0083 -0.4561
 1409TIP3    H125718   3.937   0.061  11.972 -0.5168  0.9539 -1.3081
 1409TIP3    H225719   3.819   0.007  12.050  1.2979  1.8589  2.3239
 1410TIP3   OH225720   1.559   2.401   6.435  0.6192 -0.1612  0.3358
 1410TIP3    H125721   1.530   2.479   6.387  1.2225  1.8511  2.9658
 1410TIP3    H225722   1.599   2.436   6.514 -2.6044 -3.1852  3.6864
 1411TIP3   OH225723   5.634   5.472   3.892  0.1498 -0.1746  0.8378
 1411TIP3    H125724   5.687   5.533   3.840  1.0225 -1.4239  0.1983
 1411TIP3    H225725   5.684   5.391   3.892 -0.2062 -0.4533  3.0252
 1412TIP3   OH225726   6.382   3.479   0.655 -0.1201  0.4569  0.1821
 1412TIP3    H125727   6.340   3.408   0.605  3.0095 -1.4049 -0.1076
 1412TIP3    H225728   6.354   3.465   0.745 -2.2305  1.0238 -0.3406
 1413TIP3   OH225729   4.065   0.600  15.112 -0.0190 -0.0551  0.2535
 1413TIP3    H125730   4.033   0.685  15.145 -0.5188  0.4909 -1.5467
 1413TIP3    H225731   4.075   0.613  15.018  0.6615 -1.7820  0.0581
 1414TIP3   OH225732   1.396   5.142  13.611 -0.8616 -0.1942 -0.5787
 1414TIP3    H125733   1.383   5.226  13.566  1.2431  0.4656 -0.1047
 1414TIP3    H225734   1.373   5.160  13.702 -1.1219 -0.3506 -0.6125
 1415TIP3   OH225735   1.020   5.198   2.517 -0.0641  0.5227 -0.4572
 1415TIP3    H125736   1.028   5.106   2.541  0.2385  0.1322 -1.9702
 1415TIP3    H225737   1.110   5.228   2.505 -0.1611  1.0265  0.0126
 1416TIP3   OH225738   6.692   1.991  14.716 -0.4986 -0.1992  0.8781
 1416TIP3    H125739   6.718   2.067  14.663  0.0526 -0.7135  0.4020
 1416TIP3    H225740   6.775   1.955  14.747 -0.8046 -0.0427  1.9111
 1417TIP3   OH225741   0.424   0.696  12.549 -0.2470  0.0411 -0.0359
 1417TIP3    H125742   0.475   0.696  12.468 -0.9361  0.8665 -0.4881
 1417TIP3    H225743   0.424   0.787  12.577 -1.7657  0.1324 -0.2476
 1418TIP3   OH225744   0.844   5.181  15.026  0.2490 -0.0097 -0.2076
 1418TIP3    H125745   0.751   5.169  15.044 -0.2271  3.9903  0.8610
 1418TIP3    H225746   0.888   5.156  15.107 -0.1153  0.2057  0.0596
 1419TIP3   OH225747   4.881   2.871   3.552  0.5280 -0.2832 -0.7837
 1419TIP3    H125748   4.946   2.801   3.545 -0.0739 -0.9201 -0.1414
 1419TIP3    H225749   4.902   2.930   3.479 -0.0239 -2.0271 -2.4565
 1420TIP3   OH225750   4.548   0.269  16.635  0.0798  0.8240  0.3442
 1420TIP3    H125751   4.634   0.303  16.656  0.0602  1.6048 -0.7932
 1420TIP3    H225752   4.504   0.261  16.720  1.3758  0.0591  0.9729
 1421TIP3   OH225753   2.779   0.032   0.551  0.1998 -0.4277  0.5373
 1421TIP3    H125754   2.875   0.028   0.551  0.3234  1.2959 -0.8940
 1421TIP3    H225755   2.757   0.068   0.637  1.0671  2.0040 -0.1943
 1422TIP3   OH225756   1.051   0.235  14.449 -0.4401  0.0638 -0.1226
 1422TIP3    H125757   1.034   0.317  14.402  1.5470 -0.5018 -1.9784
 1422TIP3    H225758   1.104   0.183  14.388 -0.5766 -2.1007  1.5025
 1423TIP3   OH225759   2.949   3.090  14.757 -0.1739 -0.0381 -0.2971
 1423TIP3    H125760   2.965   3.051  14.671  0.4251 -0.2003 -0.1226
 1423TIP3    H225761   2.951   3.015  14.817  2.4700  0.3474  0.2378
 1424TIP3   OH225762   3.096   6.610  10.903 -0.4990  0.5315 -0.5642
 1424TIP3    H125763   3.175   6.645  10.862 -0.1473 -0.1377 -0.4652
 1424TIP3    H225764   3.054   6.557  10.836 -0.3078  0.0312 -0.2945
 1425TIP3   OH225765   0.767   4.603   0.831  0.2309 -0.0580  0.6254
 1425TIP3    H125766   0.740   4.566   0.747 -0.2664 -0.5280  0.9908
 1425TIP3    H225767   0.850   4.559   0.851  0.3135  0.0027  0.4193
 1426TIP3   OH225768   3.253   2.986  14.898 -0.3041 -0.2314  0.1571
 1426TIP3    H125769   3.277   2.919  14.962 -1.5933 -0.4917  0.3753
 1426TIP3    H225770   3.186   2.945  14.844 -1.6011  1.0917  0.7180
 1427TIP3   OH225771   4.817   6.717   6.070 -0.3169 -0.2641  0.2366
 1427TIP3    H125772   4.782   6.681   5.989  2.6881 -1.9904 -0.4117
 1427TIP3    H225773   4.818   6.644   6.131  1.4086 -0.1252  0.4315
 1428TIP3   OH225774   3.957   5.130  13.765 -0.9595 -0.3582  0.7270
 1428TIP3    H125775   3.965   5.223  13.745 -0.5678  0.0716  2.6549
 1428TIP3    H225776   4.031   5.111  13.822 -2.0434 -1.3955  1.8552
 1429TIP3   OH225777   6.598   4.374   3.691  0.5739 -0.6698  0.4843
 1429TIP3    H125778   6.559   4.460   3.676  0.6646 -0.9549 -1.6787
 1429TIP3    H225779   6.692   4.390   3.686  0.5863 -1.0253 -1.1343
 1430TIP3   OH225780   1.987   5.363  15.809 -0.1685 -0.3172  0.0527
 1430TIP3    H125781   2.017   5.363  15.900 -0.7811 -2.4175  0.3093
 1430TIP3    H225782   1.897   5.394  15.812 -0.0483  0.0274  0.1011
 1431TIP3   OH225783   6.490   3.454   2.355  0.2872 -0.0732  0.1293
 1431TIP3    H125784   6.556   3.432   2.421  0.0077 -0.9359  0.1229
 1431TIP3    H225785   6.451   3.535   2.388  1.4710  0.5675  0.0368
 1432TIP3   OH225786   6.402   0.760  12.309  0.4214 -0.1359 -0.0843
 1432TIP3    H125787   6.346   0.704  12.362 -1.2312  2.3875  1.0410
 1432TIP3    H225788   6.367   0.752  12.220 -0.6677  0.1021  0.3085
 1433TIP3   OH225789   1.578   6.831   5.817  0.0108  0.2059 -0.6377
 1433TIP3    H125790   1.611   6.847   5.905  1.2608  1.8766 -1.3611
 1433TIP3    H225791   1.546   6.741   5.819  0.4270  0.0682  1.3848
 1434TIP3   OH225792   1.517   0.839  16.692 -0.2791 -0.2722  0.2243
 1434TIP3    H125793   1.598   0.788  16.684  0.0584  0.0830  1.2847
 1434TIP3    H225794   1.448   0.778  16.666  0.0015 -1.6669  2.4829
 1435TIP3   OH225795   4.685   6.262   0.574 -0.3718  0.7043 -0.0229
 1435TIP3    H125796   4.709   6.334   0.516 -0.5053  1.5781  0.9708
 1435TIP3    H225797   4.762   6.249   0.629 -0.5610  0.4966  0.1944
 1436TIP3   OH225798   1.277   0.160  16.146  0.7333  0.2236  0.0588
 1436TIP3    H125799   1.247   0.118  16.227  1.9236  0.4609  0.6372
 1436TIP3    H225800   1.196   0.179  16.098  0.0467 -0.5771  0.8551
 1437TIP3   OH225801   2.538   1.688  14.846  0.1016  0.0100 -0.0854
 1437TIP3    H125802   2.480   1.613  14.854 -0.1645  0.0652 -1.1991
 1437TIP3    H225803   2.582   1.695  14.930 -0.1332 -1.1748  0.1493
 1438TIP3   OH225804   5.610   6.013  12.174  0.2454 -0.8240  0.1421
 1438TIP3    H125805   5.625   6.108  12.177  0.5466 -0.8919  1.8242
 1438TIP3    H225806   5.696   5.975  12.188  0.0586 -1.3458 -0.1161
 1439TIP3   OH225807   6.695   2.434   5.043 -0.2604 -0.7057 -0.3475
 1439TIP3    H125808   6.673   2.444   5.136  1.0461 -0.4865 -0.0343
 1439TIP3    H225809   6.791   2.440   5.041 -0.3709  1.6605 -1.9959
 1440TIP3   OH225810   2.438   6.575  12.152  0.5434 -0.4428  0.4417
 1440TIP3    H125811   2.440   6.481  12.168  0.6074 -1.1552 -2.8872
 1440TIP3    H225812   2.528   6.604  12.165  0.4483 -0.7417  1.8576
 1441TIP3   OH225813   2.309   6.514  17.012 -0.1706 -0.1009  0.1578
 1441TIP3    H125814   2.225   6.515  17.058  0.4653 -0.2898  1.3615
 1441TIP3    H225815   2.339   6.605  17.016 -0.1413 -0.1061  0.0541
 1442TIP3   OH225816   2.660   4.306  11.661 -0.5022 -0.5183 -0.0746
 1442TIP3    H125817   2.657   4.219  11.701 -0.7371 -0.4838 -0.0135
 1442TIP3    H225818   2.618   4.295  11.576 -0.4943 -0.4752 -0.0842
 1443TIP3   OH225819   0.086   0.203   4.908 -0.5069 -0.4412 -0.2436
 1443TIP3    H125820   0.139   0.246   4.976  2.2293 -0.4876 -2.1780
 1443TIP3    H225821   0.058   0.275   4.851 -1.0971 -0.5941 -0.1453
 1444TIP3   OH225822   6.232   2.208   3.710 -0.9970 -0.3851  0.2610
 1444TIP3    H125823   6.277   2.123   3.712 -0.6767 -0.2100  0.5336
 1444TIP3    H225824   6.299   2.271   3.735 -1.5195 -0.1704  1.1670
 1445TIP3   OH225825   6.162   6.603  16.720  0.2940  0.3194  0.4823
 1445TIP3    H125826   6.087   6.661  16.730 -0.1076 -0.2753  1.0216
 1445TIP3    H225827   6.223   6.651  16.664 -0.3758  0.9158  0.2547
 1446TIP3   OH225828   5.082   4.043   0.362  0.6085  0.5795 -0.1645
 1446TIP3    H125829   5.023   4.089   0.302 -0.3466  0.4496  0.6316
 1446TIP3    H225830   5.075   4.092   0.444  0.8425 -0.0291  0.2256
 1447TIP3   OH225831   4.997   3.100   0.790  0.1888  0.0511  0.0753
 1447TIP3    H125832   5.020   3.053   0.710 -0.7480 -3.0829  1.4808
 1447TIP3    H225833   4.902   3.110   0.786 -0.1759 -2.0580  1.6184
 1448TIP3   OH225834   5.031   0.437   1.897  0.5375  0.4075 -0.3556
 1448TIP3    H125835   4.939   0.410   1.902  1.0486 -1.1672  2.2474
 1448TIP3    H225836   5.066   0.388   1.822 -0.1509 -1.0606  0.2471
 1449TIP3   OH225837   3.396   3.018  15.941 -0.1624 -0.1820  0.2104
 1449TIP3    H125838   3.408   3.108  15.969 -1.8767 -0.5272  2.3063
 1449TIP3    H225839   3.384   2.969  16.022 -3.1135 -1.6420 -0.9745
 1450TIP3   OH225840   0.662   2.333  11.121  0.2292 -0.0554 -0.1396
 1450TIP3    H125841   0.707   2.388  11.186 -0.2060 -1.7985  1.7585
 1450TIP3    H225842   0.728   2.269  11.094  0.3270  0.4984 -1.2500
 1451TIP3   OH225843   6.608   2.269  15.150  0.4509 -0.0795 -0.4468
 1451TIP3    H125844   6.533   2.311  15.191  0.9128  0.4179 -0.0937
 1451TIP3    H225845   6.571   2.195  15.102 -0.1298 -0.4640  0.5857
 1452TIP3   OH225846   3.675   0.010  10.765 -0.3315  0.3859  0.0900
 1452TIP3    H125847   3.642   0.039  10.851  1.3336  1.7959  0.3199
 1452TIP3    H225848   3.748  -0.048  10.786 -0.0373  0.5859 -0.3572
 1453TIP3   OH225849   4.866   6.386   2.883 -0.0670 -0.1532 -0.0686
 1453TIP3    H125850   4.926   6.408   2.812  0.7942 -2.9881 -0.3172
 1453TIP3    H225851   4.779   6.401   2.846  0.3774 -1.3760 -1.7018
 1454TIP3   OH225852   2.767   0.832   6.300  0.1521  0.6924 -0.6263
 1454TIP3    H125853   2.834   0.784   6.252  0.2213 -0.2562  0.3888
 1454TIP3    H225854   2.810   0.864   6.378 -0.2047  1.3852 -0.7038
 1455TIP3   OH225855   5.980   2.390   1.251  0.8255 -0.2067  0.1611
 1455TIP3    H125856   6.039   2.371   1.324  0.3783 -0.8036  0.3819
 1455TIP3    H225857   5.996   2.319   1.189 -0.3349 -0.9213  0.6540
 1456TIP3   OH225858   2.003   5.627  15.360 -0.5650 -0.5238  0.4754
 1456TIP3    H125859   1.957   5.581  15.289 -0.5003  0.0881  0.0363
 1456TIP3    H225860   1.933   5.667  15.412 -0.5567  0.1086  0.0111
 1457TIP3   OH225861   0.587   2.444  14.776 -0.4620 -0.0397 -0.0645
 1457TIP3    H125862   0.624   2.365  14.735  0.0748 -0.7558  1.7098
 1457TIP3    H225863   0.506   2.414  14.816  0.5323 -0.1270  2.0094
 1458TIP3   OH225864   1.095   5.867   0.418  0.1646 -0.2260  0.0522
 1458TIP3    H125865   1.073   5.802   0.484  2.0276 -0.8247  0.1469
 1458TIP3    H225866   1.188   5.853   0.400  0.2401  1.3814 -1.0865
 1459TIP3   OH225867   6.263   1.932  13.597 -0.4433  0.3505 -0.0628
 1459TIP3    H125868   6.317   1.858  13.625  0.4845  1.2303  0.5143
 1459TIP3    H225869   6.261   1.925  13.502  0.8548  0.4138 -0.1080
 1460TIP3   OH225870   2.962   0.012   4.019 -0.4321  0.9706  0.2375
 1460TIP3    H125871   2.882   0.058   3.994 -0.8822 -0.6920 -1.5998
 1460TIP3    H225872   2.943  -0.080   4.005  1.4782  0.4479  0.7626
 1461TIP3   OH225873   1.037   6.830  13.726 -0.8373 -0.2139 -0.0974
 1461TIP3    H125874   1.084   6.752  13.696 -0.8158 -0.1900 -0.1245
 1461TIP3    H225875   1.091   6.865  13.797 -0.5072  0.1513 -0.5172
 1462TIP3   OH225876   5.670   2.926   0.402 -0.3004 -0.4248  0.1263
 1462TIP3    H125877   5.762   2.952   0.395 -0.3715 -0.1771  0.0931
 1462TIP3    H225878   5.623   3.008   0.419 -0.4706 -0.6073  0.5414
 1463TIP3   OH225879   4.365   0.220  12.617 -0.3088 -0.4965 -0.6493
 1463TIP3    H125880   4.418   0.296  12.592 -0.5105 -0.2655 -0.3761
 1463TIP3    H225881   4.303   0.254  12.681 -1.0242 -0.6785 -1.2210
 1464TIP3   OH225882   2.490   5.407  12.546 -0.0921 -0.1423 -0.1668
 1464TIP3    H125883   2.544   5.348  12.493  0.3716 -1.9453  2.1651
 1464TIP3    H225884   2.403   5.368  12.544  0.3562 -1.4298  1.9216
 1465TIP3   OH225885   5.458   0.945   0.333 -0.3463  0.3748  0.3860
 1465TIP3    H125886   5.520   0.953   0.260  0.0054 -1.9515  0.3466
 1465TIP3    H225887   5.512   0.948   0.411 -0.1310 -1.6221  0.3529
 1466TIP3   OH225888   4.061   5.667   4.394  0.4652 -0.3348 -0.7209
 1466TIP3    H125889   4.036   5.668   4.301  1.2405 -1.0657 -0.9502
 1466TIP3    H225890   4.045   5.757   4.424 -0.0556 -0.1586 -1.4816
 1467TIP3   OH225891   6.230   2.208   5.767 -0.4356 -0.3427 -0.2294
 1467TIP3    H125892   6.184   2.271   5.712  2.0484  0.4382 -1.5492
 1467TIP3    H225893   6.283   2.261   5.826  0.8757 -1.1548 -0.6262
 1468TIP3   OH225894   4.381   6.359  15.433  0.6472 -0.4113  0.1974
 1468TIP3    H125895   4.294   6.320  15.434  1.0035 -1.2209 -0.1336
 1468TIP3    H225896   4.403   6.371  15.526 -0.4563  1.3038  0.2987
 1469TIP3   OH225897   1.126   2.546   4.116  0.1967  0.1137  0.0432
 1469TIP3    H125898   1.199   2.491   4.145  0.7441 -0.6179 -2.5101
 1469TIP3    H225899   1.048   2.499   4.146  0.6988 -1.2901 -0.7727
 1470TIP3   OH225900   0.813   2.371   5.482 -0.6151 -0.3422 -0.0048
 1470TIP3    H125901   0.749   2.361   5.553  0.5165 -2.7720  0.7878
 1470TIP3    H225902   0.796   2.296   5.424  1.1500 -0.7446 -0.0527
 1471TIP3   OH225903   0.255   1.327  12.223  0.5029  0.5516  0.4520
 1471TIP3    H125904   0.171   1.306  12.263 -0.2261  0.0512 -1.2632
 1471TIP3    H225905   0.235   1.396  12.160  1.5475  1.0245  0.6041
 1472TIP3   OH225906   1.307   1.338  10.701 -0.3254 -0.1469 -0.0971
 1472TIP3    H125907   1.346   1.278  10.637  0.7471  0.0642  0.3283
 1472TIP3    H225908   1.234   1.379  10.654  0.6602  0.2762 -1.3315
 1473TIP3   OH225909   1.182   6.698  16.730  0.2437 -0.8647  0.2141
 1473TIP3    H125910   1.223   6.778  16.762 -1.8183 -0.2947  1.6475
 1473TIP3    H225911   1.124   6.670  16.802 -2.0564 -1.4191 -1.7181
 1474TIP3   OH225912   0.235   5.963   5.134 -0.3660 -0.2205  0.0930
 1474TIP3    H125913   0.281   5.895   5.085 -1.9542 -1.1882 -0.1096
 1474TIP3    H225914   0.148   5.967   5.095 -0.7893  0.9002  1.0816
 1475TIP3   OH225915   2.196   3.392   1.167 -0.0239  0.9095  1.1068
 1475TIP3    H125916   2.266   3.327   1.156  0.9218  2.1110 -0.3979
 1475TIP3    H225917   2.116   3.343   1.150  0.6772  0.1660 -0.2676
 1476TIP3   OH225918   0.392   3.122  15.159 -0.6674  0.4475  0.0745
 1476TIP3    H125919   0.436   3.137  15.076 -1.2286  1.2778 -0.0812
 1476TIP3    H225920   0.319   3.184  15.160 -1.3021 -0.2775  0.7227
 1477TIP3   OH225921   4.087   6.251   3.840 -0.1709 -0.3967  0.0759
 1477TIP3    H125922   3.994   6.231   3.835 -0.3524 -0.0678  1.6683
 1477TIP3    H225923   4.130   6.165   3.834 -0.7479 -0.9101  2.4056
 1478TIP3   OH225924   1.954   0.182   0.784  0.5486 -0.2591  0.2694
 1478TIP3    H125925   1.911   0.154   0.703  2.6221 -2.8635 -0.0656
 1478TIP3    H225926   1.907   0.261   0.810 -2.3941 -1.2200 -1.6240
 1479TIP3   OH225927   4.660   1.931  16.369  0.0119  0.4649 -0.0348
 1479TIP3    H125928   4.704   1.989  16.307 -2.3575  2.1486 -0.3049
 1479TIP3    H225929   4.669   1.974  16.454  0.4310 -0.1393  0.2389
 1480TIP3   OH225930   6.393   1.534   0.390  0.3665  0.0251 -0.9308
 1480TIP3    H125931   6.313   1.513   0.440  1.3265 -0.5356  0.4375
 1480TIP3    H225932   6.385   1.627   0.371  0.2548  0.4421  0.9125
 1481TIP3   OH225933   6.215   6.181  15.565 -0.2029  0.4678  0.0636
 1481TIP3    H125934   6.251   6.243  15.502  1.9450 -0.2042  0.5411
 1481TIP3    H225935   6.256   6.204  15.648 -1.5619  0.1644  0.8575
 1482TIP3   OH225936   3.495   5.572  14.822 -0.3026 -0.8103  0.4108
 1482TIP3    H125937   3.411   5.558  14.867  0.1513  1.6156  2.2240
 1482TIP3    H225938   3.483   5.654  14.774  1.1598 -0.0981  1.1793
 1483TIP3   OH225939   6.224   2.700  13.471 -0.9457  0.0008 -0.1190
 1483TIP3    H125940   6.269   2.715  13.387 -0.0410 -2.0931 -0.0843
 1483TIP3    H225941   6.144   2.653  13.446  0.4228 -2.7610  0.2130
 1484TIP3   OH225942   3.362   0.884   2.672  0.2675  0.3904  0.0973
 1484TIP3    H125943   3.288   0.824   2.672 -0.1986  0.9490  0.7755
 1484TIP3    H225944   3.434   0.833   2.635  0.1601 -0.9472  1.5912
 1485TIP3   OH225945   5.388   3.721   2.553  0.0877  0.0171 -0.2139
 1485TIP3    H125946   5.375   3.677   2.468  1.7363 -1.9421  0.4612
 1485TIP3    H225947   5.362   3.812   2.537  0.4982 -0.2380 -2.8676
 1486TIP3   OH225948   5.218   5.765  11.329  0.0368 -0.2493 -0.6460
 1486TIP3    H125949   5.178   5.830  11.272 -1.1329 -0.5495 -0.2009
 1486TIP3    H225950   5.146   5.708  11.355  0.0156  1.1211  2.8603
 1487TIP3   OH225951   4.549   4.706  15.760 -0.1251  0.2379 -0.1983
 1487TIP3    H125952   4.487   4.671  15.697 -1.3318  0.6094  0.7332
 1487TIP3    H225953   4.542   4.801  15.750 -0.4507  0.3058  0.5707
 1488TIP3   OH225954   1.271   2.561  13.895  0.2053 -0.4295  0.1662
 1488TIP3    H125955   1.313   2.598  13.972  1.5803  2.9760 -1.9505
 1488TIP3    H225956   1.184   2.601  13.894  0.9784  1.4067 -1.0574
 1489TIP3   OH225957   2.240   1.541   3.431 -0.2428 -0.2941  0.0810
 1489TIP3    H125958   2.174   1.609   3.416  1.8171  2.0504  1.0425
 1489TIP3    H225959   2.312   1.565   3.374  0.0203 -2.5484 -0.6109
 1490TIP3   OH225960   4.945   0.832  16.143 -0.0732 -0.5551 -0.3258
 1490TIP3    H125961   4.963   0.897  16.075  0.0364 -1.7214 -1.4448
 1490TIP3    H225962   4.851   0.839  16.159  0.2939  1.5516  1.3587
 1491TIP3   OH225963   0.002   4.663   0.213  0.3104  0.2184 -0.3501
 1491TIP3    H125964   0.001   4.758   0.202  1.7174  0.1847 -1.0650
 1491TIP3    H225965   0.091   4.644   0.243 -0.1402 -0.8241  0.3709
 1492TIP3   OH225966   4.404   4.881   4.006 -0.0060  0.1881 -0.8860
 1492TIP3    H125967   4.435   4.905   3.919  0.1079  1.9484 -0.3962
 1492TIP3    H225968   4.420   4.786   4.012  0.2182  0.0834 -2.6604
 1493TIP3   OH225969   4.737   5.047   0.488  0.3903 -0.2491 -0.2154
 1493TIP3    H125970   4.815   5.088   0.525  0.4000  0.0641 -0.5747
 1493TIP3    H225971   4.708   5.108   0.419 -1.2261  0.5565  1.1010
 1494TIP3   OH225972   4.948   3.908  16.128 -0.2188 -0.4534 -0.0122
 1494TIP3    H125973   4.894   3.965  16.074 -0.4544 -0.9822 -0.3452
 1494TIP3    H225974   5.034   3.910  16.087 -0.1242 -0.0382  0.2017
 1495TIP3   OH225975   1.750   3.478  15.984  0.1726 -0.0199 -0.3896
 1495TIP3    H125976   1.730   3.509  15.896  0.6213  0.6056 -0.2792
 1495TIP3    H225977   1.806   3.402  15.971 -0.0982 -0.1770 -0.6477
 1496TIP3   OH225978   2.679   5.880  12.213  0.2254  0.4570 -0.2778
 1496TIP3    H125979   2.628   5.819  12.267 -0.6845  1.1715 -0.3138
 1496TIP3    H225980   2.614   5.926  12.160  0.9673  0.9313 -0.8008
 1497TIP3   OH225981   5.906   4.581  13.261 -0.0739 -0.0831 -0.2660
 1497TIP3    H125982   5.957   4.500  13.254  0.4999  0.2868 -0.4434
 1497TIP3    H225983   5.968   4.651  13.237 -0.9198  0.2983 -1.3965
 1498TIP3   OH225984   3.503   6.541   3.036 -0.3141 -0.6286 -0.5982
 1498TIP3    H125985   3.493   6.623   2.987 -2.7054 -1.2427 -1.2596
 1498TIP3    H225986   3.442   6.548   3.109 -1.0861 -2.0711 -1.0578
 1499TIP3   OH225987   5.877   2.592  16.276  0.2569  0.6222  0.2531
 1499TIP3    H125988   5.823   2.512  16.275 -0.6097  1.1286  2.0548
 1499TIP3    H225989   5.855   2.637  16.194  1.2912 -1.2759 -1.1508
 1500TIP3   OH225990   4.600   0.641  12.876  0.5429 -0.6236 -0.1246
 1500TIP3    H125991   4.615   0.547  12.863  1.2864 -0.2475 -2.6719
 1500TIP3    H225992   4.652   0.682  12.807 -2.0016  1.5079 -0.9155
 1501TIP3   OH225993   2.654   1.319  15.726  0.6795  0.2345  0.0816
 1501TIP3    H125994   2.678   1.317  15.634  0.6941 -0.6290  0.0927
 1501TIP3    H225995   2.558   1.321  15.725  0.6327 -0.9907  0.0302
 1502TIP3   OH225996   3.848   4.426  14.596 -0.1221 -0.0573 -0.4915
 1502TIP3    H125997   3.813   4.363  14.659 -0.4987  2.7431  2.3149
 1502TIP3    H225998   3.781   4.432  14.528 -1.6291 -0.2436  0.9290
 1503TIP3   OH225999   3.662   0.951  12.271  0.3719 -0.4595 -0.2053
 1503TIP3    H126000   3.573   0.963  12.238  0.3111 -0.3681 -0.0079
 1503TIP3    H226001   3.691   1.039  12.295  0.0808 -0.6436  0.8416
 1504TIP3   OH226002   0.896   1.915   3.345  0.6856  0.4975  0.3389
 1504TIP3    H126003   0.839   1.880   3.414 -0.6376  0.8036 -0.5713
 1504TIP3    H226004   0.919   2.003   3.375  3.0430 -0.5986  2.0611
 1505TIP3   OH226005   1.595   0.937   4.123  0.4371  0.5478  0.2818
 1505TIP3    H126006   1.547   0.929   4.040 -1.4504  0.2605  1.3340
 1505TIP3    H226007   1.584   1.028   4.148  0.5824  0.5208  0.4439
 1506TIP3   OH226008   6.826   3.016  12.979 -0.0003 -0.1107 -0.1991
 1506TIP3    H126009   6.891   3.021  13.050  1.0332 -0.3229 -1.1114
 1506TIP3    H226010   6.878   3.004  12.900 -1.0963  0.9894 -1.1163
 1507TIP3   OH226011   5.616   1.926  16.950 -0.2343  0.2204  0.6348
 1507TIP3    H126012   5.705   1.905  16.921 -0.1927 -1.9827  2.1248
 1507TIP3    H226013   5.562   1.911  16.872  0.6263  1.1224 -0.1610
 1508TIP3   OH226014   5.425   6.811  13.672 -0.3379 -0.1498 -0.0342
 1508TIP3    H126015   5.390   6.853  13.594 -1.6207  2.0354  1.6159
 1508TIP3    H226016   5.384   6.857  13.745  2.4659 -0.5866  1.9943
 1509TIP3   OH226017   3.125   1.929   5.684  0.5425 -0.0903 -0.3160
 1509TIP3    H126018   3.106   1.842   5.649 -0.5717 -0.2657  0.6683
 1509TIP3    H226019   3.045   1.979   5.670  0.4057  0.1129  1.0617
 1510TIP3   OH226020   6.469   3.961  12.254 -0.5815  0.1455  0.2985
 1510TIP3    H126021   6.433   3.904  12.322  0.0882  0.1368  0.6534
 1510TIP3    H226022   6.480   4.046  12.297  0.4896 -0.0347  0.4147
 1511TIP3   OH226023   0.455   0.097  16.442  0.1673  0.3844 -0.0891
 1511TIP3    H126024   0.383   0.039  16.468  1.3378 -1.7093 -1.2790
 1511TIP3    H226025   0.534   0.048  16.463  1.2082  0.7045 -2.8755
 1512TIP3   OH226026   3.795   1.770   2.140 -0.2537 -0.0763  0.2873
 1512TIP3    H126027   3.744   1.851   2.146 -0.6236 -0.3401  0.7660
 1512TIP3    H226028   3.732   1.704   2.113 -0.1649 -0.3965  0.8417
 1513TIP3   OH226029   5.552   0.659  11.300 -0.1362  0.6435 -0.1305
 1513TIP3    H126030   5.580   0.606  11.225 -0.4885  1.1897 -0.6655
 1513TIP3    H226031   5.578   0.748  11.277 -0.9378  0.9310  0.0405
 1514TIP3   OH226032   0.669   5.660   3.787 -0.0731  0.2402 -0.2051
 1514TIP3    H126033   0.583   5.637   3.821 -0.2514 -0.2023 -0.9337
 1514TIP3    H226034   0.715   5.577   3.776  0.9097  0.5436  1.3178
 1515TIP3   OH226035   3.836   3.361  12.288  0.2453  0.0597  0.7837
 1515TIP3    H126036   3.775   3.292  12.314  0.3158 -1.1596 -1.9827
 1515TIP3    H226037   3.895   3.319  12.226  2.1370  1.9312  1.2129
 1516TIP3   OH226038   2.039   1.356  11.852  0.2887 -0.6085  0.0534
 1516TIP3    H126039   2.131   1.373  11.831  0.2714  1.0431  1.1683
 1516TIP3    H226040   1.995   1.440  11.841 -0.9994 -1.2470  0.0948
 1517TIP3   OH226041   5.333   3.737   3.920 -0.1507  0.0838 -0.6206
 1517TIP3    H126042   5.343   3.776   3.833 -1.5938  3.7267  0.6195
 1517TIP3    H226043   5.311   3.811   3.976  0.1519 -2.1869  2.7854
 1518TIP3   OH226044   6.085   1.732  10.825 -0.6495  0.0896 -0.1104
 1518TIP3    H126045   6.106   1.713  10.733 -2.2850 -1.1113 -0.2875
 1518TIP3    H226046   6.139   1.671  10.875  1.4964  1.8506 -0.1072
 1519TIP3   OH226047   1.389   2.544  16.900 -0.6607 -0.3137  0.2608
 1519TIP3    H126048   1.302   2.520  16.934 -0.7958  2.5303  2.3687
 1519TIP3    H226049   1.370   2.589  16.817 -1.4893  1.7762  1.5002
 1520TIP3   OH226050   2.364   1.262   2.139 -0.3814  0.3107  0.7602
 1520TIP3    H126051   2.364   1.238   2.232  0.4541  1.0885  0.9831
 1520TIP3    H226052   2.434   1.327   2.132 -0.2474  0.0464 -0.4740
 1521TIP3   OH226053   0.255   4.476   1.795 -0.0547 -0.4781  0.2892
 1521TIP3    H126054   0.269   4.550   1.735  1.8580 -1.9427 -1.1925
 1521TIP3    H226055   0.170   4.441   1.768  1.1222 -1.6141 -2.2805
 1522TIP3   OH226056   4.079   3.148  13.306 -0.5153 -0.6628 -0.0696
 1522TIP3    H126057   4.089   3.089  13.381 -0.4807 -1.5396 -0.7561
 1522TIP3    H226058   4.114   3.232  13.337 -0.8897 -0.8884  1.0362
 1523TIP3   OH226059   2.431   0.650  15.859  0.2675  0.1449  0.0553
 1523TIP3    H126060   2.343   0.675  15.887  0.2115  0.7257 -0.6152
 1523TIP3    H226061   2.481   0.732  15.862  0.3000  0.2066 -1.3606
 1524TIP3   OH226062   4.000   3.698   0.926  0.9255  0.3506  0.0908
 1524TIP3    H126063   3.959   3.779   0.896 -0.6802 -0.7366 -0.7810
 1524TIP3    H226064   3.929   3.649   0.967  1.9317 -0.5263  0.8366
 1525TIP3   OH226065   0.555   4.570  11.464  0.4193 -0.2740 -0.2055
 1525TIP3    H126066   0.541   4.475  11.466 -0.5199 -0.1309  0.4367
 1525TIP3    H226067   0.543   4.598  11.555  1.5834  0.3468 -0.2184
 1526TIP3   OH226068   1.854   1.173   1.851 -0.0011 -0.0106 -0.5672
 1526TIP3    H126069   1.899   1.157   1.768  0.0346 -0.4988 -0.4553
 1526TIP3    H226070   1.925   1.175   1.916 -0.1506 -1.0026 -0.3584
 1527TIP3   OH226071   3.778   6.203   3.891  0.2244 -0.1330 -0.0315
 1527TIP3    H126072   3.783   6.151   3.971  0.0687 -0.6638 -0.3587
 1527TIP3    H226073   3.784   6.294   3.921  1.7821 -0.3565  0.4596
 1528TIP3   OH226074   0.589   1.396  15.675 -0.8278 -0.0782 -0.5287
 1528TIP3    H126075   0.533   1.401  15.753  1.0566 -2.8399  1.2116
 1528TIP3    H226076   0.548   1.329  15.620 -0.9919  0.2965 -0.8646
 1529TIP3   OH226077   1.143   5.992   3.247 -0.2520  0.4556  0.2202
 1529TIP3    H126078   1.137   5.921   3.183 -0.8645  0.3096  0.4311
 1529TIP3    H226079   1.232   6.027   3.236  0.0564 -0.3322  0.1064
 1530TIP3   OH226080   4.155   4.664  12.738 -0.3603  0.1600 -0.1003
 1530TIP3    H126081   4.112   4.684  12.821  1.1625 -1.3104  1.1152
 1530TIP3    H226082   4.179   4.750  12.702 -2.3254  0.8919  0.2150
 1531TIP3   OH226083   4.280   6.001  12.120  0.1076  0.2014 -0.0888
 1531TIP3    H126084   4.245   5.912  12.113 -0.8040  0.6316 -1.2674
 1531TIP3    H226085   4.368   5.996  12.084  0.6819 -0.5455  1.3551
 1532TIP3   OH226086   6.429   0.524   1.366 -0.2093 -0.4698  0.3216
 1532TIP3    H126087   6.436   0.471   1.445 -0.8276  0.2877  0.8942
 1532TIP3    H226088   6.473   0.606   1.388 -1.6119  0.2936  0.3815
 1533TIP3   OH226089   6.372   4.974   0.889  0.4286 -0.1037 -0.1288
 1533TIP3    H126090   6.369   5.062   0.926 -1.0422  0.2070 -0.9364
 1533TIP3    H226091   6.316   4.922   0.947 -1.0171  0.1493 -1.2495
 1534TIP3   OH226092   2.843   2.077  11.311  0.0453  0.0899 -0.8990
 1534TIP3    H126093   2.842   2.126  11.229 -0.7838  0.3705 -0.7303
 1534TIP3    H226094   2.755   2.040  11.317  0.2101 -0.2105 -0.3006
 1535TIP3   OH226095   6.514   3.501   2.922  0.1604  0.2248  0.6612
 1535TIP3    H126096   6.468   3.438   2.867 -2.3162  0.5950  2.1211
 1535TIP3    H226097   6.516   3.459   3.009 -0.5306  1.6697  1.4011
 1536TIP3   OH226098   2.418   4.348   0.381 -0.4175  0.0931  0.4999
 1536TIP3    H126099   2.474   4.424   0.367 -1.7809  1.4082  1.7003
 1536TIP3    H226100   2.468   4.274   0.347  2.1153  1.1296  1.7283
 1537TIP3   OH226101   5.696   3.435   4.254 -0.2089 -0.4308 -0.2240
 1537TIP3    H126102   5.716   3.409   4.345  1.6229 -0.4624 -0.5861
 1537TIP3    H226103   5.734   3.523   4.246 -0.5908 -0.3260 -0.8939
 1538TIP3   OH226104   4.718   4.796   4.577  0.3705 -0.1646 -0.1415
 1538TIP3    H126105   4.739   4.729   4.642  1.2449  1.4946  1.4129
 1538TIP3    H226106   4.708   4.748   4.495  1.0075 -2.1690  0.8767
 1539TIP3   OH226107   3.516   6.401  12.376 -0.4959  0.0233 -0.4077
 1539TIP3    H126108   3.452   6.372  12.441 -0.1176 -1.5594 -0.6980
 1539TIP3    H226109   3.472   6.472  12.329 -0.6903  1.3675  1.6667
 1540TIP3   OH226110   3.317   4.088  13.606 -0.4698  0.4808  0.2873
 1540TIP3    H126111   3.312   4.182  13.625 -2.0151  0.3435  0.6623
 1540TIP3    H226112   3.226   4.061  13.592  0.1428 -0.3915 -2.7571
 1541TIP3   OH226113   0.405   1.611  16.423 -0.3084  0.6292  0.3329
 1541TIP3    H126114   0.450   1.563  16.353  2.6672  3.4086  0.0948
 1541TIP3    H226115   0.450   1.584  16.503 -0.4514  0.9999  0.5426
 1542TIP3   OH226116   2.404   2.907  15.276  0.5514  0.1546  0.0867
 1542TIP3    H126117   2.308   2.910  15.284  0.4869  0.0805 -0.6051
 1542TIP3    H226118   2.421   2.934  15.186  1.2881  1.7485  0.6810
 1543TIP3   OH226119   2.578   4.844   4.893 -0.3939 -0.0869 -0.1940
 1543TIP3    H126120   2.483   4.841   4.891 -0.3937 -1.4693  0.5223
 1543TIP3    H226121   2.599   4.879   4.979 -0.2598 -0.3370 -0.1232
 1544TIP3   OH226122   2.879   4.638  10.626  0.4118  0.4127  0.5545
 1544TIP3    H126123   2.966   4.669  10.599  0.6901 -0.1467  0.7944
 1544TIP3    H226124   2.891   4.607  10.716  0.7683 -2.6896 -0.4265
 1545TIP3   OH226125   4.151   1.211   5.723  0.0997  0.2234 -0.5228
 1545TIP3    H126126   4.244   1.228   5.734  0.0997  1.6238 -2.2956
 1545TIP3    H226127   4.108   1.281   5.773 -0.0596 -0.8384  0.9013
 1546TIP3   OH226128   6.676   3.350  12.491  0.0050 -0.6418  0.6078
 1546TIP3    H126129   6.742   3.282  12.508 -0.6470 -1.2137  0.8891
 1546TIP3    H226130   6.675   3.359  12.396 -0.4630 -1.5980  0.5156
 1547TIP3   OH226131   3.730   0.636   4.023 -0.0233 -0.1357  0.2434
 1547TIP3    H126132   3.797   0.621   3.957 -2.4307 -0.8171 -2.2091
 1547TIP3    H226133   3.722   0.552   4.068 -1.6666 -1.2894 -1.9829
 1548TIP3   OH226134   5.320   1.589  12.270 -0.2745  0.6006  0.3317
 1548TIP3    H126135   5.304   1.581  12.176 -1.9419 -0.2410  0.6427
 1548TIP3    H226136   5.342   1.681  12.283 -0.0389  0.7360 -0.8630
 1549TIP3   OH226137   5.414   2.064   2.157  0.0499  0.2752 -0.1691
 1549TIP3    H126138   5.480   2.098   2.217  1.5660  1.8753 -2.5561
 1549TIP3    H226139   5.355   2.138   2.142  0.5974  0.4426 -1.7381
 1550TIP3   OH226140   0.859   5.304   1.244  0.7440  0.4628  0.0009
 1550TIP3    H126141   0.840   5.368   1.175  0.1792 -0.8754 -1.1206
 1550TIP3    H226142   0.822   5.344   1.323 -0.6448  1.0195 -0.8901
 1551TIP3   OH226143   0.014   1.712  11.027  0.6966  0.0754 -0.3420
 1551TIP3    H126144   0.098   1.680  11.060  0.3373  0.1140  0.6724
 1551TIP3    H226145  -0.036   1.632  11.009  0.1404  0.0084  1.2839
 1552TIP3   OH226146   2.596   1.550   5.625 -0.2013 -0.1773 -0.5740
 1552TIP3    H126147   2.636   1.466   5.604 -0.9677 -0.8441  0.5440
 1552TIP3    H226148   2.581   1.547   5.719 -2.0715  0.3960 -0.8086
 1553TIP3   OH226149   6.005   0.573  10.618  0.0712  0.5132  0.2701
 1553TIP3    H126150   5.980   0.636  10.550 -1.7650  2.0737  2.2591
 1553TIP3    H226151   6.027   0.628  10.694 -2.8473 -1.1258  2.5054
 1554TIP3   OH226152   6.827   2.357  12.643  0.1713 -0.1191 -0.2401
 1554TIP3    H126153   6.878   2.393  12.571  0.5454  1.0392  0.5877
 1554TIP3    H226154   6.863   2.398  12.721 -0.9137 -0.5713  0.5196
 1555TIP3   OH226155   4.376   3.795  16.744  0.2210 -0.1132 -0.2652
 1555TIP3    H126156   4.457   3.825  16.786  0.7836 -0.3610 -1.1591
 1555TIP3    H226157   4.392   3.703  16.724 -0.6565 -0.4373  0.4209
 1556TIP3   OH226158   1.524   2.387   2.499  0.4405  0.2432 -0.3627
 1556TIP3    H126159   1.491   2.299   2.520  0.1403  0.4124 -0.1187
 1556TIP3    H226160   1.514   2.394   2.404 -0.4940  0.3971 -0.2586
 1557TIP3   OH226161   4.479   6.227  13.160  0.4471  0.9767 -0.0310
 1557TIP3    H126162   4.407   6.280  13.127 -0.2921  0.1247  0.1678
 1557TIP3    H226163   4.473   6.236  13.255 -1.1403 -1.2481  0.1465
 1558TIP3   OH226164   0.948   0.680  13.163  0.1076  0.6617  0.6918
 1558TIP3    H126165   0.951   0.618  13.090  0.1126 -0.6347  1.7401
 1558TIP3    H226166   0.858   0.674  13.195 -0.0045  1.5265  0.5464
 1559TIP3   OH226167   3.930   1.509   4.794 -0.2749  0.1680 -0.0195
 1559TIP3    H126168   3.891   1.581   4.843  2.9778  0.6260  2.1968
 1559TIP3    H226169   3.992   1.551   4.734  0.3233 -0.6729 -0.0077
 1560TIP3   OH226170   4.576   6.670   2.329 -0.1007 -0.3204  0.2832
 1560TIP3    H126171   4.595   6.696   2.419  0.7482 -0.8911  0.2740
 1560TIP3    H226172   4.501   6.611   2.336 -0.2486 -0.0999  0.5790
 1561TIP3   OH226173   6.493   0.847   0.853 -0.0980  0.0165  0.4486
 1561TIP3    H126174   6.450   0.787   0.915 -1.0809  1.0725  0.8326
 1561TIP3    H226175   6.531   0.789   0.787 -1.5711 -1.0288  0.4533
 1562TIP3   OH226176   0.163   6.047   3.009 -0.6577  0.1124 -0.1490
 1562TIP3    H126177   0.257   6.033   3.003 -0.4190  1.8677 -1.2295
 1562TIP3    H226178   0.152   6.109   3.081 -1.2792 -1.9858  1.6793
 1563TIP3   OH226179   2.618   3.855   0.220 -0.4170  0.4184 -0.1680
 1563TIP3    H126180   2.663   3.831   0.139 -0.9066  0.5451 -0.4806
 1563TIP3    H226181   2.650   3.792   0.285  1.1410  1.2422 -0.0791
 1564TIP3   OH226182   2.486   6.801   2.941 -0.1813 -0.3277  0.6600
 1564TIP3    H126183   2.567   6.779   2.987  1.7355  1.0964 -1.8314
 1564TIP3    H226184   2.470   6.725   2.884 -0.8670 -0.7776  1.4285
 1565TIP3   OH226185   1.925   1.885   2.902 -0.4152  0.4260  0.4571
 1565TIP3    H126186   1.942   1.884   2.996 -1.5081  0.0989  0.6602
 1565TIP3    H226187   1.855   1.950   2.891 -0.6479  0.0914 -0.0710
 1566TIP3   OH226188   3.664   2.491  13.658  0.5959  0.2764 -0.7808
 1566TIP3    H126189   3.578   2.522  13.687 -0.9221 -0.2371 -4.2021
 1566TIP3    H226190   3.674   2.406  13.701  1.3327  1.9522  2.7316
 1567TIP3   OH226191   2.517   5.197  11.133 -0.4453  0.1746  0.2493
 1567TIP3    H126192   2.610   5.204  11.112 -0.3933  1.8836  0.8665
 1567TIP3    H226193   2.501   5.269  11.194 -2.5164  0.9917 -1.1364
 1568TIP3   OH226194   6.494   0.652   5.110 -0.1263  0.1165 -0.8866
 1568TIP3    H126195   6.484   0.633   5.017  1.7140  0.0591 -1.1044
 1568TIP3    H226196   6.556   0.587   5.142  1.4990  1.8486 -0.2858
 1569TIP3   OH226197   1.320   2.096  11.567 -0.1861 -0.5308 -0.3522
 1569TIP3    H126198   1.349   2.176  11.523 -0.9247 -0.8211 -1.3899
 1569TIP3    H226199   1.251   2.126  11.626  0.4183 -0.2279  0.2240
 1570TIP3   OH226200   2.839   4.655   6.276 -0.4393  0.7173 -0.0921
 1570TIP3    H126201   2.809   4.576   6.321  0.6167  0.6850  0.6053
 1570TIP3    H226202   2.815   4.727   6.334 -0.0752  0.7720 -0.0046
 1571TIP3   OH226203   0.472   1.035   0.693  0.4360  0.2765  0.1350
 1571TIP3    H126204   0.464   1.090   0.615  0.8800 -0.5484 -0.5148
 1571TIP3    H226205   0.434   1.088   0.763  2.5237  2.2213 -0.0663
 1572TIP3   OH226206   4.053   6.621  14.529  0.6159 -0.0727  0.4554
 1572TIP3    H126207   4.020   6.660  14.448 -1.7960  0.1159  1.4428
 1572TIP3    H226208   4.139   6.663  14.543  0.9140  0.1616 -1.7635
 1573TIP3   OH226209   0.639   1.985  13.654 -0.4625 -0.1120  0.4088
 1573TIP3    H126210   0.700   1.928  13.607 -1.8591 -0.9018 -0.5223
 1573TIP3    H226211   0.581   2.018  13.586 -1.4275  0.1636  1.3470
 1574TIP3   OH226212   3.430   0.513  11.622 -0.0099  0.0027  0.6962
 1574TIP3    H126213   3.420   0.422  11.651  0.2226 -0.0628  0.5696
 1574TIP3    H226214   3.351   0.529  11.569 -0.5670  0.2050  1.5591
 1575TIP3   OH226215   2.287   3.556  15.194 -0.0290  0.0220  0.0744
 1575TIP3    H126216   2.272   3.615  15.120  1.0493 -0.5670 -0.6350
 1575TIP3    H226217   2.209   3.500  15.195 -1.4216  1.8376  1.2008
 1576TIP3   OH226218   3.543   1.398   6.272 -0.0348 -0.0762 -0.1510
 1576TIP3    H126219   3.584   1.323   6.315 -1.0568 -0.1998  0.6432
 1576TIP3    H226220   3.513   1.453   6.343  0.0087  0.7087 -0.7296
 1577TIP3   OH226221   3.186   0.074   1.178 -0.0165  0.5562  0.2769
 1577TIP3    H126222   3.124   0.127   1.128  0.5566  1.6025  0.6509
 1577TIP3    H226223   3.265   0.127   1.184  0.5072 -0.2546  0.8462
 1578TIP3   OH226224   2.508   4.647   5.124 -0.7480 -0.1898  0.0959
 1578TIP3    H126225   2.456   4.727   5.113  1.0727  1.0247 -0.1913
 1578TIP3    H226226   2.497   4.599   5.042 -0.0440  0.9320 -0.6835
 1579TIP3   OH226227   2.598   5.794  11.688 -0.7121  0.3514  0.3447
 1579TIP3    H126228   2.609   5.800  11.593  0.0411 -0.7954  0.3452
 1579TIP3    H226229   2.687   5.791  11.723 -0.9742 -0.4583  0.9857
 1580TIP3   OH226230   5.343   1.844  12.956 -0.1972  0.2108  0.5717
 1580TIP3    H126231   5.364   1.935  12.975  0.4509  0.4570 -1.1830
 1580TIP3    H226232   5.329   1.804  13.042  0.1950  1.7895  1.3959
 1581TIP3   OH226233   4.424   1.459   1.682  0.1103 -0.1633 -0.7936
 1581TIP3    H126234   4.408   1.368   1.707  0.6810 -0.2245 -0.6323
 1581TIP3    H226235   4.468   1.498   1.758  1.5553 -0.2640 -1.5273
 1582TIP3   OH226236   4.567   5.668   3.012 -0.2443  0.0324  0.4234
 1582TIP3    H126237   4.530   5.736   3.068  1.0213  1.7959 -0.7665
 1582TIP3    H226238   4.569   5.707   2.924  0.5851 -1.5082 -0.2973
 1583TIP3   OH226239   0.201   3.316  14.785  0.4449 -0.5451 -0.4738
 1583TIP3    H126240   0.181   3.402  14.823  2.1987 -0.6546  0.7973
 1583TIP3    H226241   0.119   3.267  14.792 -0.2596  0.6338 -0.1581
 1584TIP3   OH226242   0.237   0.931  10.718 -0.0461 -0.2002 -0.7583
 1584TIP3    H126243   0.164   0.883  10.756  0.1898 -0.7591 -1.0006
 1584TIP3    H226244   0.300   0.863  10.692  1.4576  0.3499  1.2642
 1585TIP3   OH226245   2.892   0.845  16.450 -0.6230  0.3005 -0.6742
 1585TIP3    H126246   2.960   0.806  16.505  0.0250 -0.0405 -1.7085
 1585TIP3    H226247   2.840   0.771  16.420 -0.7155  0.4433 -0.8654
 1586TIP3   OH226248   6.485   5.296   4.839 -0.0083 -0.0775 -0.0278
 1586TIP3    H126249   6.543   5.255   4.774 -1.4822 -0.6987 -0.9959
 1586TIP3    H226250   6.473   5.228   4.905 -2.5856 -1.4374 -1.7161
 1587TIP3   OH226251   0.615   2.794  14.016  0.2966  0.5184  0.1780
 1587TIP3    H126252   0.599   2.748  13.933  1.6139  0.8633 -0.3018
 1587TIP3    H226253   0.674   2.736  14.064 -0.8846  0.0735  1.1352
 1588TIP3   OH226254   5.636   1.935   0.423  0.1899 -0.0037 -0.0684
 1588TIP3    H126255   5.567   1.985   0.468 -1.3965  0.1782 -2.5203
 1588TIP3    H226256   5.604   1.845   0.424 -0.5934  0.2077 -1.9590
 1589TIP3   OH226257   1.199   2.306  10.759 -0.1417 -0.0783 -0.2374
 1589TIP3    H126258   1.279   2.314  10.812 -0.7305  0.8069  0.5506
 1589TIP3    H226259   1.210   2.371  10.689 -0.8216  1.1897  0.7749
 1590TIP3   OH226260   2.280   5.159   5.652  0.2874 -0.0506 -0.4101
 1590TIP3    H126261   2.219   5.161   5.578  0.1447 -0.6274 -0.3159
 1590TIP3    H226262   2.264   5.241   5.699 -1.0021 -0.5449  0.0700
 1591TIP3   OH226263   0.026   6.390  13.174 -0.4205  0.0587  0.2046
 1591TIP3    H126264  -0.041   6.456  13.193 -0.7947 -0.5032  0.8844
 1591TIP3    H226265   0.005   6.361  13.085 -1.0260 -0.0431  0.3728
 1592TIP3   OH226266   0.431   0.631   0.629 -0.2566  0.3262 -0.4294
 1592TIP3    H126267   0.341   0.610   0.656  0.3702 -1.3468  0.4890
 1592TIP3    H226268   0.476   0.547   0.627  1.6871  1.2745  0.6064
 1593TIP3   OH226269   6.241   3.113   5.031 -0.1750 -0.3406 -0.3962
 1593TIP3    H126270   6.310   3.178   5.019 -0.0236 -0.2336  0.8852
 1593TIP3    H226271   6.205   3.100   4.944  1.2235 -0.1311 -1.0341
 1594TIP3   OH226272   1.362   0.263   4.298 -0.0109  0.4111 -0.4275
 1594TIP3    H126273   1.424   0.240   4.229  0.1278 -0.2200 -0.0951
 1594TIP3    H226274   1.282   0.287   4.252  0.2471  0.5053 -0.8271
 1595TIP3   OH226275   0.254   2.441  15.238 -0.1607  0.0558  0.3671
 1595TIP3    H126276   0.172   2.406  15.273 -0.1340 -0.5571 -0.1654
 1595TIP3    H226277   0.278   2.511  15.299 -2.8048  2.5868 -1.2417
 1596TIP3   OH226278   5.427   3.934  11.254 -0.3390 -0.0698 -0.0269
 1596TIP3    H126279   5.507   3.882  11.252  0.9922  1.7199  2.2123
 1596TIP3    H226280   5.419   3.970  11.166  1.6036  0.1278 -0.1531
 1597TIP3   OH226281   3.283   2.825   3.694 -0.3297  0.7768  0.2266
 1597TIP3    H126282   3.206   2.789   3.738 -0.1200  0.2547  0.1757
 1597TIP3    H226283   3.337   2.749   3.673  0.2345  1.1379  0.3259
 1598TIP3   OH226284   5.359   4.961  14.446  0.5956 -0.2165 -1.1325
 1598TIP3    H126285   5.263   4.969  14.444  0.6542  1.5868  0.3198
 1598TIP3    H226286   5.375   4.867  14.451 -1.3197 -0.5416  3.0918
 1599TIP3   OH226287   0.156   0.995   4.214  0.1864 -0.0394  0.1131
 1599TIP3    H126288   0.156   1.060   4.284 -0.4551 -0.1766  0.2422
 1599TIP3    H226289   0.207   0.922   4.249 -0.2960 -0.1856  0.5117
 1600TIP3   OH226290   2.767   2.764   4.532  0.5725  0.5474 -0.3711
 1600TIP3    H126291   2.829   2.691   4.525 -2.2260 -2.5277  2.9237
 1600TIP3    H226292   2.704   2.748   4.462  1.7460  1.9096 -1.7980
 1601TIP3   OH226293   1.234   1.201  15.969  0.2654 -0.4409  0.2135
 1601TIP3    H126294   1.237   1.154  15.886 -1.7321 -1.2599  0.5664
 1601TIP3    H226295   1.232   1.133  16.036  0.9633  0.2069  0.9283
 1602TIP3   OH226296   5.257   0.400   2.054 -0.1401  0.0567 -0.3209
 1602TIP3    H126297   5.293   0.472   2.106 -1.9426 -0.0959  1.2600
 1602TIP3    H226298   5.194   0.442   1.996 -1.6651 -0.2385  1.0476
 1603TIP3   OH226299   1.640   2.428   4.219  0.1932  0.2673 -0.0197
 1603TIP3    H126300   1.650   2.442   4.313 -1.0816  1.9267 -0.0875
 1603TIP3    H226301   1.727   2.446   4.182  0.5522  0.1904  0.7823
 1604TIP3   OH226302   5.422   1.954   0.873 -0.5438  0.4128 -0.1874
 1604TIP3    H126303   5.362   1.973   0.802 -1.3689  1.8661  0.8498
 1604TIP3    H226304   5.380   1.990   0.951  0.3705 -1.0504  1.0371
 1605TIP3   OH226305   1.935   0.779   5.855 -0.4443  0.1785  0.1005
 1605TIP3    H126306   1.991   0.803   5.929 -0.5908  0.3198  0.1672
 1605TIP3    H226307   1.847   0.803   5.883 -0.9377 -2.4553  1.0550
 1606TIP3   OH226308   1.263   5.366   3.215  0.0390  0.0371 -0.3866
 1606TIP3    H126309   1.342   5.312   3.215 -0.6691 -1.0890  1.5903
 1606TIP3    H226310   1.194   5.308   3.184 -0.2044  0.7731 -1.2741
 1607TIP3   OH226311   2.290   5.979   0.866 -0.1884  0.0543  0.7212
 1607TIP3    H126312   2.326   5.893   0.843 -0.2891  0.3578 -0.6754
 1607TIP3    H226313   2.245   6.008   0.787 -1.9595  0.5010  1.8450
 1608TIP3   OH226314   4.796   6.723  13.053  0.1090  0.0022  0.5110
 1608TIP3    H126315   4.768   6.631  13.056  0.1662  0.0017  1.0541
 1608TIP3    H226316   4.837   6.739  13.138 -0.7129  0.7931  0.7773
 1609TIP3   OH226317   1.278   0.961  15.078  0.1260  0.8940 -0.0484
 1609TIP3    H126318   1.333   0.919  15.012  3.1205  0.9238  2.1792
 1609TIP3    H226319   1.320   1.045  15.095  0.0679  0.5157  2.4560
 1610TIP3   OH226320   5.063   1.735  12.907 -0.3913 -0.6376  0.1579
 1610TIP3    H126321   5.089   1.790  12.981  0.6861  0.1158 -0.7314
 1610TIP3    H226322   5.114   1.655  12.918  0.0954 -0.3548  0.0286
 1611TIP3   OH226323   3.777   4.225  14.791 -0.2907  0.2140 -0.0865
 1611TIP3    H126324   3.732   4.149  14.756 -0.0799 -0.0978  0.3141
 1611TIP3    H226325   3.867   4.197  14.804  0.0471  0.8650 -0.9589
 1612TIP3   OH226326   4.654   6.220  15.899  0.3746  0.3321 -0.4797
 1612TIP3    H126327   4.617   6.252  15.817  2.5827 -0.9605 -2.0701
 1612TIP3    H226328   4.607   6.270  15.967 -1.6014  1.3675 -2.4566
 1613TIP3   OH226329   2.255   0.589   2.401  0.2694 -0.1387 -0.0721
 1613TIP3    H126330   2.168   0.576   2.438  0.6095  1.0590  1.2723
 1613TIP3    H226331   2.269   0.513   2.345 -2.0227  0.1434 -1.1298
 1614TIP3   OH226332   6.002   5.150  15.397  0.0226 -0.1364  0.0499
 1614TIP3    H126333   6.086   5.192  15.376  0.9244 -1.0784  1.6270
 1614TIP3    H226334   6.005   5.135  15.491 -2.0716  0.0693  0.1969
 1615TIP3   OH226335   2.448   1.236  13.104  0.3062  0.3879 -0.6212
 1615TIP3    H126336   2.473   1.328  13.095  0.9525  0.1108 -2.0388
 1615TIP3    H226337   2.513   1.189  13.052 -0.0664 -0.8688  0.0131
 1616TIP3   OH226338   2.791   4.598   1.615 -0.6565 -0.3011 -0.0550
 1616TIP3    H126339   2.746   4.560   1.691 -0.6530  3.0069  1.8126
 1616TIP3    H226340   2.721   4.613   1.552 -1.0721 -0.9716  0.2294
 1617TIP3   OH226341   0.402   6.789  11.549 -0.3340  0.1406  0.8803
 1617TIP3    H126342   0.314   6.797  11.511 -0.1746 -0.2457  0.4239
 1617TIP3    H226343   0.435   6.879  11.550 -0.5958  0.2413  0.7139
 1618TIP3   OH226344   4.625   1.298   0.792  0.4763 -0.1536  0.3352
 1618TIP3    H126345   4.587   1.385   0.787 -1.8498 -1.1455 -0.2069
 1618TIP3    H226346   4.620   1.274   0.884  0.1141 -0.1239  0.3241
 1619TIP3   OH226347   2.358   6.618  15.179 -0.9906  0.0262 -0.5889
 1619TIP3    H126348   2.286   6.628  15.117 -1.6720 -0.3052  0.1296
 1619TIP3    H226349   2.383   6.526  15.171 -1.3187 -0.1034 -0.1146
 1620TIP3   OH226350   6.454   0.298   6.171 -0.9407 -0.3293  0.2734
 1620TIP3    H126351   6.538   0.345   6.168 -1.5534  0.8368  0.7685
 1620TIP3    H226352   6.476   0.209   6.143  0.4211  0.0083  0.1697
 1621TIP3   OH226353   1.197   2.257   3.501 -0.5437  0.5253  0.3571
 1621TIP3    H126354   1.244   2.265   3.419  1.3843  1.2444  1.4728
 1621TIP3    H226355   1.227   2.331   3.554  0.9371 -1.7499  2.9621
 1622TIP3   OH226356   1.112   1.218  14.302  0.1814 -0.8024 -0.0657
 1622TIP3    H126357   1.193   1.166  14.298  0.0894 -0.9791  0.3110
 1622TIP3    H226358   1.066   1.183  14.378 -0.3380 -0.8328 -0.3897
 1623TIP3   OH226359   3.038   2.648  14.422 -0.5314 -0.5334  0.2194
 1623TIP3    H126360   2.945   2.645  14.402 -0.3621 -1.5255 -0.5042
 1623TIP3    H226361   3.069   2.558  14.406  0.2059 -0.6758  2.1416
 1624TIP3   OH226362   1.712   4.124   1.951 -0.1172 -0.0689  0.0868
 1624TIP3    H126363   1.770   4.199   1.962  0.4361 -0.3609 -0.7528
 1624TIP3    H226364   1.624   4.159   1.968  0.1193  0.8000 -0.4210
 1625TIP3   OH226365   1.759   6.500  12.980 -0.4385  0.0241  0.4149
 1625TIP3    H126366   1.684   6.443  12.963 -0.1672 -0.3376  0.3993
 1625TIP3    H226367   1.722   6.577  13.023 -0.7176 -0.4895  1.0993
 1626TIP3   OH226368   5.923   1.528   1.592  0.7235  0.5055  0.5588
 1626TIP3    H126369   5.888   1.608   1.554 -1.0765 -0.5525 -0.1144
 1626TIP3    H226370   5.931   1.468   1.518 -0.0866 -0.6580  1.3899
 1627TIP3   OH226371   0.554   0.959  15.134 -0.1820 -0.7176  0.6402
 1627TIP3    H126372   0.584   0.891  15.075  2.3084 -0.4264  1.4595
 1627TIP3    H226373   0.547   0.916  15.219  0.1379 -0.2707  0.9021
 1628TIP3   OH226374   1.398   6.631  15.801  0.7298  0.2716  0.2060
 1628TIP3    H126375   1.388   6.609  15.708 -2.3221  1.0024  0.2856
 1628TIP3    H226376   1.488   6.665  15.807  1.3615 -0.7214 -2.2527
 1629TIP3   OH226377   1.150   3.352   3.698  0.5524 -0.3723  0.1583
 1629TIP3    H126378   1.097   3.312   3.629 -0.1498  1.4926 -0.4464
 1629TIP3    H226379   1.213   3.284   3.723  0.4512 -1.2926 -1.9218
 1630TIP3   OH226380   0.080   0.883  10.329 -0.5846 -0.5719  0.9239
 1630TIP3    H126381   0.070   0.798  10.373  1.2256 -1.6140 -0.5279
 1630TIP3    H226382   0.151   0.869  10.267 -0.1036  2.1021  0.7769
 1631TIP3   OH226383   2.868   0.039  13.603 -0.3222 -0.1017 -0.3397
 1631TIP3    H126384   2.830  -0.049  13.598 -1.6539  0.3963  0.3931
 1631TIP3    H226385   2.890   0.051  13.695 -0.3450  0.4046 -0.3980
 1632TIP3   OH226386   2.993   3.736  14.919  0.4655 -0.2398 -0.6120
 1632TIP3    H126387   3.046   3.780  14.852  3.2783 -1.9594  0.3283
 1632TIP3    H226388   2.944   3.669  14.871  2.2289 -1.2640 -1.0748
 1633TIP3   OH226389   5.884   3.752  16.872  0.2248 -0.5430 -0.4648
 1633TIP3    H126390   5.816   3.819  16.885 -0.7327 -1.8550  2.0487
 1633TIP3    H226391   5.855   3.703  16.795  0.2337  1.0335 -1.5308
 1634TIP3   OH226392   1.253   0.260   5.065 -0.3088  0.1327  0.7867
 1634TIP3    H126393   1.199   0.261   5.144 -2.1095  2.8776 -0.3158
 1634TIP3    H226394   1.196   0.224   4.998  0.9055 -1.3577  0.5147
 1635TIP3   OH226395   2.379   6.662   3.443 -0.0749  0.0705  0.3419
 1635TIP3    H126396   2.296   6.693   3.406 -0.2410 -1.0064 -0.2215
 1635TIP3    H226397   2.355   6.584   3.493  0.5723 -0.1531  0.3056
 1636TIP3   OH226398   0.161   4.658   2.408 -0.4420 -0.4767  0.0828
 1636TIP3    H126399   0.190   4.668   2.318 -0.7854 -1.5973 -0.1553
 1636TIP3    H226400   0.180   4.567   2.430 -1.3215 -0.4994  0.7971
 1637TIP3   OH226401   0.462   5.689   6.254 -0.1727  0.2254 -0.5682
 1637TIP3    H126402   0.470   5.734   6.170  0.9504 -0.3354 -0.7881
 1637TIP3    H226403   0.537   5.720   6.305 -0.1445 -0.3759 -0.2378
 1638TIP3   OH226404   5.869   2.371   6.093 -0.5181 -0.1956  0.6049
 1638TIP3    H126405   5.848   2.401   6.004  0.0634 -0.0513  0.5072
 1638TIP3    H226406   5.877   2.452   6.144  0.5622 -0.1884  0.4541
 1639TIP3   OH226407   5.008   1.580   6.265  0.0871 -0.3356  0.0752
 1639TIP3    H126408   5.025   1.666   6.304 -0.4236 -1.2467  2.5045
 1639TIP3    H226409   4.945   1.597   6.196 -0.3798  1.2043  0.8259
 1640TIP3   OH226410   0.954   3.795   3.323 -0.1872  0.7738  0.5246
 1640TIP3    H126411   0.929   3.821   3.412 -1.4946  1.3514  0.0099
 1640TIP3    H226412   1.042   3.758   3.333 -0.6092  0.1407  2.1616
 1641TIP3   OH226413   4.496   3.826  14.580  0.2615  0.1258 -0.7616
 1641TIP3    H126414   4.527   3.895  14.638  1.7804 -2.0620  1.1883
 1641TIP3    H226415   4.551   3.834  14.502  1.4653  0.2040  0.0652
 1642TIP3   OH226416   5.686   2.473  13.168 -0.5041 -0.0893 -0.6509
 1642TIP3    H126417   5.667   2.408  13.236 -0.1454 -0.6472 -1.0742
 1642TIP3    H226418   5.778   2.461  13.148 -0.2700  0.9956 -0.2905
 1643TIP3   OH226419   6.116   3.058   0.885 -0.1886  0.3517 -0.3544
 1643TIP3    H126420   6.143   3.136   0.837 -0.0327 -0.0413 -0.9157
 1643TIP3    H226421   6.120   2.987   0.821 -0.8233 -0.0327  0.0142
 1644TIP3   OH226422   1.894   5.861  11.210  0.2149  0.1224  0.2556
 1644TIP3    H126423   1.989   5.851  11.197  0.2052  1.2009 -0.8801
 1644TIP3    H226424   1.856   5.838  11.125 -0.7889 -2.7158  1.3695
 1645TIP3   OH226425   5.279   4.539   5.195 -0.1214 -0.5055 -0.1989
 1645TIP3    H126426   5.212   4.540   5.263  0.6608  0.8692  0.5950
 1645TIP3    H226427   5.233   4.569   5.116 -0.5773 -0.1463  0.1977
 1646TIP3   OH226428   3.525   2.924  14.533 -0.0116 -0.7437 -0.3219
 1646TIP3    H126429   3.442   2.973  14.539  0.3872 -0.0054 -0.6886
 1646TIP3    H226430   3.587   2.988  14.498  0.7667 -1.2320  0.1637
 1647TIP3   OH226431   0.594   5.412   2.762  0.0160  0.0358 -0.0248
 1647TIP3    H126432   0.554   5.378   2.682 -2.5383  1.9851  0.3114
 1647TIP3    H226433   0.676   5.451   2.732 -0.9110  0.7807 -1.7533
 1648TIP3   OH226434   1.837   1.498   2.762 -0.2380 -0.1184  0.1655
 1648TIP3    H126435   1.915   1.462   2.803 -0.5191 -1.5833 -0.5472
 1648TIP3    H226436   1.852   1.490   2.668 -0.0994  2.1351 -0.0631
 1649TIP3   OH226437   3.500   4.210  16.282  0.3307  0.3661  0.5087
 1649TIP3    H126438   3.572   4.228  16.221  1.8059 -0.0109  2.0889
 1649TIP3    H226439   3.439   4.156  16.231  0.1237  2.3500 -1.4989
 1650TIP3   OH226440   4.279   2.202   3.604 -0.5368 -0.2144 -0.2417
 1650TIP3    H126441   4.328   2.120   3.609  0.6274  0.5150  0.7375
 1650TIP3    H226442   4.314   2.256   3.675 -2.1179  0.6990 -0.0933
 1651TIP3   OH226443   2.073   3.503  11.983  0.4277 -0.0893 -0.3904
 1651TIP3    H126444   2.060   3.581  11.929  0.1984  0.2677  0.1645
 1651TIP3    H226445   1.996   3.449  11.967  0.3344  0.0405 -0.3858
 1652TIP3   OH226446   4.360   5.127   3.189  0.4372 -0.3175 -0.0447
 1652TIP3    H126447   4.406   5.050   3.224  0.6373 -0.6803 -1.0502
 1652TIP3    H226448   4.385   5.128   3.096 -0.4157  0.3489 -0.2695
 1653TIP3   OH226449   1.054   3.950  13.086  0.0767 -0.5230  0.3162
 1653TIP3    H126450   1.011   3.982  13.166 -0.1815  1.5232 -0.5829
 1653TIP3    H226451   0.982   3.931  13.026  0.3191 -0.7669  0.1018
 1654TIP3   OH226452   1.518   2.953   4.262 -0.1691 -0.7887  0.1086
 1654TIP3    H126453   1.515   2.901   4.342 -3.5866 -1.3419 -0.2130
 1654TIP3    H226454   1.550   2.893   4.195 -1.1441 -1.6022  0.3430
 1655TIP3   OH226455   2.127   6.367   3.402  0.5184 -0.4719 -0.2261
 1655TIP3    H126456   2.058   6.360   3.336  0.1288 -0.2795  0.1526
 1655TIP3    H226457   2.120   6.456   3.435  1.3692 -0.2474 -0.6233
 1656TIP3   OH226458   3.470   0.279  11.973 -0.9568 -0.9064 -0.4237
 1656TIP3    H126459   3.425   0.234  12.045  1.6828 -1.1396  1.2177
 1656TIP3    H226460   3.442   0.370  11.981 -1.2794 -1.0657  0.4171
 1657TIP3   OH226461   2.732   1.843  14.403 -0.1181  0.3222  0.0719
 1657TIP3    H126462   2.704   1.783  14.472 -0.7782 -0.0180 -0.4840
 1657TIP3    H226463   2.744   1.788  14.326  2.5525  0.3713  0.3563
 1658TIP3   OH226464   1.321   1.370   0.510  0.0460  0.7798 -0.1781
 1658TIP3    H126465   1.407   1.365   0.550 -0.2062 -1.0891  0.1829
 1658TIP3    H226466   1.331   1.435   0.440  1.5261  1.1423  0.3469
 1659TIP3   OH226467   3.519   1.451   2.658  0.6668 -0.2122  0.4235
 1659TIP3    H126468   3.541   1.540   2.633  1.4832  0.0833  2.0898
 1659TIP3    H226469   3.603   1.410   2.680  0.0980 -0.6466  1.9362
 1660TIP3   OH226470   4.787   6.572   0.662 -0.0201 -0.7490 -0.5133
 1660TIP3    H126471   4.869   6.526   0.682  0.5224  0.3268 -0.2229
 1660TIP3    H226472   4.748   6.519   0.592  0.5566 -1.6797 -0.1620
 1661TIP3   OH226473   1.789   3.951   4.256  0.3575 -0.3114 -0.0723
 1661TIP3    H126474   1.743   3.950   4.172 -0.7965  0.6709  0.5332
 1661TIP3    H226475   1.781   4.040   4.288 -2.6832 -1.4559  2.9207
 1662TIP3   OH226476   2.214   0.154   4.758  0.0243  0.2319 -0.0486
 1662TIP3    H126477   2.307   0.159   4.734  0.0308 -1.0824 -0.3484
 1662TIP3    H226478   2.202   0.065   4.791 -0.8947  0.7450  1.0550
 1663TIP3   OH226479   0.869   2.896  12.756  0.1668 -0.2325 -0.3548
 1663TIP3    H126480   0.890   2.905  12.663  0.6455 -0.9261 -0.3275
 1663TIP3    H226481   0.916   2.967  12.799  0.1274 -0.0469 -0.6221
 1664TIP3   OH226482   4.830   4.281  13.713 -0.3865  0.0010 -0.3343
 1664TIP3    H126483   4.827   4.252  13.804 -4.1128 -0.9276 -0.5851
 1664TIP3    H226484   4.880   4.213  13.668  1.3669  0.3992  0.9138
 1665TIP3   OH226485   2.616   2.642   6.340 -0.5104  0.0942  0.2496
 1665TIP3    H126486   2.703   2.602   6.337 -0.9433 -0.9726  1.2377
 1665TIP3    H226487   2.610   2.693   6.259  0.6942 -0.5326 -0.2543
 1666TIP3   OH226488   5.916   2.253  16.067 -0.7488  0.2758 -0.1547
 1666TIP3    H126489   5.898   2.170  16.024  1.2294 -0.6816  0.7283
 1666TIP3    H226490   5.846   2.261  16.132 -1.7601  0.0331 -1.1706
 1667TIP3   OH226491   6.297   4.231   1.797 -0.1689  0.0835  0.8162
 1667TIP3    H126492   6.336   4.309   1.836 -0.7351  0.2909  0.9737
 1667TIP3    H226493   6.372   4.173   1.781  0.2244  0.5394  0.9560
 1668TIP3   OH226494   5.186   0.794   4.945 -0.3890  0.2160 -0.5530
 1668TIP3    H126495   5.270   0.800   4.900 -0.0742 -1.1188 -0.1927
 1668TIP3    H226496   5.138   0.726   4.899 -1.0515  0.5575 -0.3863
 1669TIP3   OH226497   5.098   0.434  13.651 -0.0328 -0.4142  0.1165
 1669TIP3    H126498   5.065   0.518  13.685  0.3110 -0.2378  0.0229
 1669TIP3    H226499   5.096   0.445  13.556 -0.6786 -0.7851  0.0805
 1670TIP3   OH226500   0.351   4.748   0.101 -0.0031 -0.3249 -0.5620
 1670TIP3    H126501   0.299   4.825   0.124  2.0802  1.3057 -0.9766
 1670TIP3    H226502   0.431   4.757   0.152  1.1807 -1.0934 -2.2064
 1671TIP3   OH226503   0.545   3.483   3.507  0.8387 -0.2669  0.1938
 1671TIP3    H126504   0.601   3.457   3.580  0.2458  0.6994  1.0165
 1671TIP3    H226505   0.459   3.497   3.546 -0.2937 -2.6892 -1.2162
 1672TIP3   OH226506   2.549   2.929  15.529 -0.0397 -0.1055 -0.2640
 1672TIP3    H126507   2.500   2.928  15.611  0.0850  0.0951 -0.1884
 1672TIP3    H226508   2.484   2.909  15.461 -0.2037  0.0496 -0.1522
 1673TIP3   OH226509   5.261   0.537   4.757 -0.5885 -0.4456  0.1020
 1673TIP3    H126510   5.322   0.487   4.810 -1.0108 -0.0462  0.9884
 1673TIP3    H226511   5.311   0.614   4.728 -0.7945  0.1489  1.2576
 1674TIP3   OH226512   1.865   0.295  15.094  0.8845  0.0844  0.1951
 1674TIP3    H126513   1.885   0.201  15.087  1.4670  0.1866  0.5046
 1674TIP3    H226514   1.883   0.317  15.185 -1.1815  0.0601  0.6760
 1675TIP3   OH226515   0.403   4.767  11.050 -0.4862  0.1765  0.7443
 1675TIP3    H126516   0.473   4.722  11.097 -2.4707 -1.8305  1.9789
 1675TIP3    H226517   0.374   4.705  10.983 -1.1648  0.9263  0.3177
 1676TIP3   OH226518   4.668   1.439  13.025  0.1507  0.2017  0.1252
 1676TIP3    H126519   4.591   1.391  12.996  0.5093 -0.2511 -0.0828
 1676TIP3    H226520   4.742   1.392  12.987  0.5855  0.1184  1.0373
 1677TIP3   OH226521   3.866   4.097   4.263 -0.0574  0.7251  0.3627
 1677TIP3    H126522   3.847   4.081   4.356 -0.0172  0.3123  0.3032
 1677TIP3    H226523   3.948   4.145   4.264 -0.5591  1.6007  0.5783
 1678TIP3   OH226524   0.293   2.690   5.625 -0.4019  0.4869 -0.1332
 1678TIP3    H126525   0.227   2.759   5.616 -0.6703  0.0834 -1.4530
 1678TIP3    H226526   0.260   2.618   5.570  0.9028  0.1024 -0.4351
 1679TIP3   OH226527   4.606   5.302   1.580 -0.1209 -0.5184 -0.5064
 1679TIP3    H126528   4.588   5.383   1.532 -2.5956 -0.2421  0.7120
 1679TIP3    H226529   4.650   5.246   1.516 -1.2901  0.6184 -2.4207
 1680TIP3   OH226530   2.486   2.352   1.685 -0.4971  0.3090 -0.2796
 1680TIP3    H126531   2.444   2.410   1.621  0.3638 -0.2077 -1.3373
 1680TIP3    H226532   2.507   2.409   1.759 -0.2591  1.2085 -1.0283
 1681TIP3   OH226533   2.925   3.402   0.054  0.2365 -0.0258 -0.2787
 1681TIP3    H126534   2.845   3.387   0.104  1.0558 -3.1771  0.3515
 1681TIP3    H226535   2.896   3.413  -0.036 -0.9732  0.4645  0.1543
 1682TIP3   OH226536   6.149   2.238   4.923 -0.0342  0.0777  0.3425
 1682TIP3    H126537   6.057   2.214   4.928 -0.4477  0.8555 -2.2114
 1682TIP3    H226538   6.196   2.164   4.962 -1.6841 -0.5702  1.1834
 1683TIP3   OH226539   2.752   2.174   0.551 -0.7203  0.4061  0.1729
 1683TIP3    H126540   2.820   2.189   0.485 -0.5948 -1.3898 -0.1425
 1683TIP3    H226541   2.675   2.146   0.502 -1.8935  2.8061  0.4946
 1684TIP3   OH226542   3.925   2.523  14.759  0.0374  0.0594 -0.0325
 1684TIP3    H126543   3.847   2.493  14.712 -0.9225  2.1525  0.1053
 1684TIP3    H226544   3.988   2.545  14.691  0.7184 -1.9981 -0.1375
 1685TIP3   OH226545   2.851   3.913   2.664 -0.3414  0.0420  0.1495
 1685TIP3    H126546   2.934   3.887   2.624 -0.9002 -0.6023 -0.6244
 1685TIP3    H226547   2.862   3.895   2.757  0.3948 -0.0012  0.0595
 1686TIP3   OH226548   5.781   6.747   0.633 -0.4512 -0.5242  0.7157
 1686TIP3    H126549   5.744   6.718   0.550 -0.6597 -0.0080  0.6237
 1686TIP3    H226550   5.825   6.670   0.669 -1.8044 -1.2013  0.9420
 1687TIP3   OH226551   6.512   5.261  12.077  0.1820  0.2391 -0.2149
 1687TIP3    H126552   6.547   5.325  12.139  1.6005 -1.3920  0.7489
 1687TIP3    H226553   6.585   5.240  12.020 -0.2406 -0.5683 -0.4812
 1688TIP3   OH226554   6.124   4.507   1.905 -0.1015 -0.0497 -0.1007
 1688TIP3    H126555   6.093   4.585   1.860 -0.0930  0.2837  0.4654
 1688TIP3    H226556   6.076   4.435   1.864  2.2121 -0.1992 -2.9301
 1689TIP3   OH226557   0.035   5.684  11.142  0.0790 -0.7275 -0.0115
 1689TIP3    H126558   0.037   5.599  11.098  0.0948 -0.8297  0.1859
 1689TIP3    H226559   0.102   5.677  11.211 -1.2462 -1.2492  1.2658
 1690TIP3   OH226560   1.756   4.038  15.907  0.0818  0.8555 -0.1858
 1690TIP3    H126561   1.769   4.014  15.815  0.3528  0.6402 -0.0912
 1690TIP3    H226562   1.706   3.965  15.944  1.0004  0.3657  0.1291
 1691TIP3   OH226563   4.321   0.678   3.171  0.5154 -0.5729 -0.3123
 1691TIP3    H126564   4.285   0.590   3.183 -0.6302  0.1045  1.4244
 1691TIP3    H226565   4.403   0.677   3.220 -0.8230  0.0946  2.0898
 1692TIP3   OH226566   4.819   4.166  16.013 -0.1548  0.1660  0.0015
 1692TIP3    H126567   4.829   4.180  15.919 -2.9480  2.2819 -0.0858
 1692TIP3    H226568   4.827   4.253  16.051 -1.4343 -0.3150  1.4640
 1693TIP3   OH226569   2.171   0.481  13.966 -0.0778 -0.0852 -0.4646
 1693TIP3    H126570   2.108   0.485  13.894 -0.8596 -1.0197  0.1371
 1693TIP3    H226571   2.148   0.556  14.022  1.5420  1.5971 -1.9375
 1694TIP3   OH226572   1.030   0.115  10.681 -0.6039 -0.3333  0.6596
 1694TIP3    H126573   1.011   0.202  10.644 -1.6963 -1.4395 -1.6123
 1694TIP3    H226574   1.124   0.114  10.694 -0.5546  1.1405  0.5739
 1695TIP3   OH226575   0.927   1.553  10.185  0.0460 -0.1959  0.5460
 1695TIP3    H126576   0.983   1.477  10.202  2.0142  1.1494  0.3973
 1695TIP3    H226577   0.972   1.601  10.116 -1.8773  0.4322 -0.3535
 1696TIP3   OH226578   2.382   0.300   4.478  0.4311  0.6477 -0.1418
 1696TIP3    H126579   2.381   0.222   4.533 -0.2454 -0.0013 -1.0545
 1696TIP3    H226580   2.349   0.370   4.535  0.7128  0.2156  0.5735
 1697TIP3   OH226581   5.609   5.584   0.747 -0.1455 -0.3553 -0.1944
 1697TIP3    H126582   5.643   5.658   0.798 -1.0061 -1.5085  2.2421
 1697TIP3    H226583   5.685   5.527   0.734  0.7498  1.3236 -2.9807
 1698TIP3   OH226584   6.166   3.898   3.427  0.2574 -1.6904 -0.9770
 1698TIP3    H126585   6.260   3.906   3.414  0.3432 -0.9929 -0.0177
 1698TIP3    H226586   6.154   3.809   3.461  0.7495 -1.2874  0.3020
 1699TIP3   OH226587   1.185   1.131   4.684 -0.2964 -0.2015 -0.0700
 1699TIP3    H126588   1.238   1.056   4.659 -0.4625 -0.3527  0.0299
 1699TIP3    H226589   1.171   1.121   4.778 -0.0051  0.1555  0.0180
 1700TIP3   OH226590   1.278   2.700  12.156 -0.2184 -0.0933 -0.2873
 1700TIP3    H126591   1.247   2.776  12.107  3.8910  2.9007  1.1687
 1700TIP3    H226592   1.363   2.680  12.117  0.6560 -1.2126  2.0315
 1701TIP3   OH226593   5.741   5.707   5.916 -0.0035  0.1730 -0.2811
 1701TIP3    H126594   5.749   5.653   5.994 -0.7536  0.6626  0.1366
 1701TIP3    H226595   5.761   5.796   5.945  0.1768  0.2902 -0.7479
 1702TIP3   OH226596   5.544   1.220  14.788 -0.2759  0.4929 -0.2839
 1702TIP3    H126597   5.594   1.237  14.708  0.0243  0.9246 -0.0079
 1702TIP3    H226598   5.587   1.145  14.828  0.5486  1.2371  0.2673
 1703TIP3   OH226599   6.409   3.854   0.808 -0.2636 -0.0986 -0.2187
 1703TIP3    H126600   6.348   3.927   0.795 -3.0515 -2.2834 -0.4020
 1703TIP3    H226601   6.441   3.865   0.897  0.9945  2.3758 -0.8778
 1704TIP3   OH226602   3.308   1.857   4.126  0.1329  0.4850 -0.7925
 1704TIP3    H126603   3.251   1.915   4.177 -1.5039 -0.1330 -1.8295
 1704TIP3    H226604   3.302   1.891   4.036 -1.5406 -1.6695 -1.6071
 1705TIP3   OH226605   3.422   0.435   5.347 -0.3750 -0.5304  0.2302
 1705TIP3    H126606   3.446   0.431   5.255 -0.2988 -1.1322  0.2746
 1705TIP3    H226607   3.342   0.383   5.353  0.6126 -2.0449  0.8168
 1706TIP3   OH226608   6.250   2.199  16.751 -0.0729 -0.5367  0.0926
 1706TIP3    H126609   6.208   2.117  16.722 -0.7493  0.3625 -1.6682
 1706TIP3    H226610   6.207   2.220  16.834 -1.1355 -1.1072 -0.2869
 1707TIP3   OH226611   0.986   1.683  11.267 -0.0500  0.1076 -0.6097
 1707TIP3    H126612   0.891   1.674  11.274 -0.5027  2.9186 -1.9177
 1707TIP3    H226613   1.006   1.660  11.176  0.7891 -1.8807  0.0264
 1708TIP3   OH226614   0.138   3.003  13.194  0.6884  0.0183  0.9032
 1708TIP3    H126615   0.081   2.995  13.270 -1.7819 -1.0620 -0.8929
 1708TIP3    H226616   0.224   2.972  13.223 -0.5271 -1.7099  2.8695
 1709TIP3   OH226617   3.209   5.838  15.995  0.5430  0.0855 -0.0266
 1709TIP3    H126618   3.250   5.909  16.045 -0.8935 -0.5970  2.2608
 1709TIP3    H226619   3.186   5.773  16.060 -0.7808 -1.2206 -1.7129
 1710TIP3   OH226620   4.556   3.662   1.832 -0.3608 -0.9676 -0.0788
 1710TIP3    H126621   4.610   3.622   1.901  0.4155  1.6008  0.9398
 1710TIP3    H226622   4.620   3.692   1.767 -0.8663 -0.8691 -0.5348
 1711TIP3   OH226623   4.959   3.475  16.514 -0.4083 -0.1260  0.0118
 1711TIP3    H126624   4.891   3.489  16.449 -0.6104 -0.7417  0.0828
 1711TIP3    H226625   5.004   3.395  16.485  1.7621  1.4735 -1.2971
 1712TIP3   OH226626   5.432   5.398   5.949 -0.1216 -0.0572  0.0294
 1712TIP3    H126627   5.483   5.323   5.918  0.9136 -0.0278  1.5622
 1712TIP3    H226628   5.431   5.459   5.875  0.2809 -0.9404 -0.7275
 1713TIP3   OH226629   5.549   2.757   1.970 -0.4735  0.0863  0.0907
 1713TIP3    H126630   5.605   2.794   2.038 -0.7686  1.7205 -0.5054
 1713TIP3    H226631   5.595   2.679   1.940 -0.0490 -0.3186  1.7248
 1714TIP3   OH226632   6.790   1.501   4.704 -0.3431 -0.7849  0.0054
 1714TIP3    H126633   6.750   1.556   4.771 -0.7998 -1.6087  0.4238
 1714TIP3    H226634   6.885   1.509   4.720 -0.4340 -3.3579  2.8049
 1715TIP3   OH226635   0.460   6.130   5.558  0.0609 -0.4072 -0.1045
 1715TIP3    H126636   0.550   6.116   5.526  0.2195 -3.2508  1.2615
 1715TIP3    H226637   0.405   6.088   5.491 -0.2750  1.1102 -0.8126
 1716TIP3   OH226638   6.431   2.499  13.170  0.6507  0.6845  0.0208
 1716TIP3    H126639   6.403   2.486  13.079  2.1284 -2.3387 -0.1114
 1716TIP3    H226640   6.492   2.573  13.166 -0.1145  1.2836 -1.2137
 1717TIP3   OH226641   5.368   5.547   4.688  0.2674 -0.3274  0.2600
 1717TIP3    H126642   5.288   5.545   4.636 -0.5075 -1.1039  1.4398
 1717TIP3    H226643   5.408   5.631   4.666 -0.9900  0.1855 -0.1766
 1718TIP3   OH226644   4.657   5.135  13.877 -0.1346 -0.3298  0.0028
 1718TIP3    H126645   4.614   5.168  13.798  1.5743 -0.8278 -1.1962
 1718TIP3    H226646   4.608   5.174  13.950 -0.5206  1.7882 -1.3092
 1719TIP3   OH226647   1.303   5.351  11.373  0.1993 -0.6900  0.7550
 1719TIP3    H126648   1.298   5.442  11.345  0.3037 -0.2838  1.9667
 1719TIP3    H226649   1.211   5.323  11.381  0.1702 -0.7469  0.2154
 1720TIP3   OH226650   0.581   2.356   2.357  0.1236 -0.0031  0.5468
 1720TIP3    H126651   0.568   2.326   2.447 -0.7135 -2.1866 -0.2264
 1720TIP3    H226652   0.543   2.444   2.355  0.2736  0.1326  2.3486
 1721TIP3   OH226653   0.094   5.512   0.459  0.4959 -0.3632 -0.1117
 1721TIP3    H126654   0.109   5.422   0.485 -1.4620 -0.7318 -0.1533
 1721TIP3    H226655   0.009   5.512   0.416  0.0190  1.6464  0.6761
 1722TIP3   OH226656   0.313   4.377   4.924  0.0021 -0.0349 -0.2097
 1722TIP3    H126657   0.292   4.404   4.834  1.6009  0.1602 -0.5463
 1722TIP3    H226658   0.378   4.441   4.954 -0.6157 -0.0069  1.1601
 1723TIP3   OH226659   0.332   0.144  14.018 -0.0037  0.7405 -0.0917
 1723TIP3    H126660   0.347   0.142  13.924  0.6293 -0.3659  0.0118
 1723TIP3    H226661   0.406   0.096  14.055 -0.9077  0.0536  0.8726
 1724TIP3   OH226662   0.731   3.713   0.625 -0.0528 -0.3743  0.0286
 1724TIP3    H126663   0.641   3.725   0.654  0.1507  1.9223 -0.1401
 1724TIP3    H226664   0.759   3.800   0.597  2.7822 -0.6161  1.7029
 1725TIP3   OH226665   1.790   0.236  14.684  0.6217  0.3548  0.2296
 1725TIP3    H126666   1.857   0.284  14.734 -1.6134  1.9630  1.8960
 1725TIP3    H226667   1.761   0.299  14.618  0.7492 -0.3443 -0.5051
 1726TIP3   OH226668   6.512   3.430  16.901  0.0289  0.0436  0.0518
 1726TIP3    H126669   6.420   3.456  16.896 -0.6748 -1.9658  1.2662
 1726TIP3    H226670   6.515   3.345  16.857  0.4411 -1.7351  3.1933
 1727TIP3   OH226671   4.851   4.195  12.721  0.2318  0.0538  0.1648
 1727TIP3    H126672   4.770   4.182  12.771  0.4843 -0.3469  0.4720
 1727TIP3    H226673   4.921   4.192  12.786  0.5393 -0.1409 -0.1652
 1728TIP3   OH226674   3.201   5.983  16.824  0.7712  0.5478  0.0878
 1728TIP3    H126675   3.293   5.959  16.818  0.6686  0.5654 -2.4054
 1728TIP3    H226676   3.161   5.948  16.745 -1.8768 -1.3924  2.0871
 1729TIP3   OH226677   5.286   1.048  16.795  0.1595  0.7439  0.3505
 1729TIP3    H126678   5.272   1.013  16.883  0.9144 -0.6590 -0.0470
 1729TIP3    H226679   5.336   1.129  16.810  1.8809 -0.3932  1.1735
 1730TIP3   OH226680   5.345   4.247  14.074 -0.4807  0.4508 -0.4024
 1730TIP3    H126681   5.305   4.290  13.999 -1.4805 -0.1652 -0.2382
 1730TIP3    H226682   5.380   4.319  14.127 -2.9469  1.1894  0.3550
 1731TIP3   OH226683   3.095   6.636  11.794  0.3455  0.7227  0.0005
 1731TIP3    H126684   3.152   6.712  11.804  1.0441 -0.0153  2.2549
 1731TIP3    H226685   3.008   6.673  11.775  0.8323  2.0185  0.2060
 1732TIP3   OH226686   1.439   0.037   2.160 -0.3381  0.3872  0.0104
 1732TIP3    H126687   1.475  -0.048   2.185  2.0123  1.1955 -0.3689
 1732TIP3    H226688   1.354   0.017   2.121  0.1764 -1.7869 -0.1012
 1733TIP3   OH226689   4.615   1.931   5.661 -0.3599  0.2084  0.7040
 1733TIP3    H126690   4.565   2.004   5.627  1.0390  0.7420 -0.3111
 1733TIP3    H226691   4.706   1.951   5.638 -0.0168 -2.2378 -0.3824
 1734TIP3   OH226692   0.029   5.065   1.369  0.5384  0.0474  0.3565
 1734TIP3    H126693  -0.032   5.032   1.303 -0.4361 -0.7669  1.6038
 1734TIP3    H226694   0.114   5.068   1.325  0.2799 -2.2456 -0.4238
 1735TIP3   OH226695   5.629   6.519  14.867 -0.2309  0.4724 -0.2474
 1735TIP3    H126696   5.590   6.556  14.946  1.7217 -0.8940  1.4760
 1735TIP3    H226697   5.640   6.593  14.808  0.8941  2.1633  1.9218
 1736TIP3   OH226698   0.430   6.138  11.493 -0.2324  0.7852 -0.3917
 1736TIP3    H126699   0.471   6.224  11.503 -0.0201  0.6482 -0.0288
 1736TIP3    H226700   0.343   6.156  11.460 -0.5227  1.2072  0.5565
 1737TIP3   OH226701   4.111   0.193  14.891  0.1420 -0.2534 -0.2669
 1737TIP3    H126702   4.029   0.145  14.880 -0.9040  1.3574  0.1582
 1737TIP3    H226703   4.105   0.230  14.979  0.4693  1.4287 -0.9306
 1738TIP3   OH226704   1.042   3.798  12.336 -0.3748 -0.2295  0.4607
 1738TIP3    H126705   1.024   3.891  12.353  1.4284 -0.1177  2.0805
 1738TIP3    H226706   0.962   3.766  12.295 -1.4024  1.8300  0.7078
 1739TIP3   OH226707   1.896   2.553  11.546 -0.6107  0.2332 -0.3843
 1739TIP3    H126708   1.840   2.624  11.517  0.0506  0.2150 -1.8164
 1739TIP3    H226709   1.943   2.525  11.467  0.9769 -0.1369  0.6213
 1740TIP3   OH226710   2.630   6.081  15.827  0.0297 -0.3188  0.2184
 1740TIP3    H126711   2.639   6.007  15.766  0.9514 -0.2322  0.2398
 1740TIP3    H226712   2.716   6.088  15.869  0.6644  2.0936 -1.2957
 1741TIP3   OH226713   4.131   0.638   0.917  0.4813 -0.4957 -0.3520
 1741TIP3    H126714   4.073   0.687   0.858 -0.4227 -1.0013  0.0929
 1741TIP3    H226715   4.140   0.694   0.994  0.4869 -0.4692 -0.3719
 1742TIP3   OH226716   4.753   1.914  16.974 -0.1958 -0.2629 -0.6471
 1742TIP3    H126717   4.768   1.826  16.940  2.3642  0.2989 -1.2328
 1742TIP3    H226718   4.703   1.959  16.906 -2.2708 -1.4568  0.0291
 1743TIP3   OH226719   2.014   2.862   0.467 -0.0941  0.0126 -0.0700
 1743TIP3    H126720   2.064   2.805   0.408  0.2769 -2.8776  2.7798
 1743TIP3    H226721   1.924   2.853   0.437  0.1334 -1.0691 -0.4964
 1744TIP3   OH226722   0.813   6.171  16.166 -0.0055 -0.3087 -0.7140
 1744TIP3    H126723   0.852   6.199  16.248 -2.7150 -0.5695  0.7789
 1744TIP3    H226724   0.860   6.091  16.143  1.1487  0.0638  0.2807
 1745TIP3   OH226725   1.617   5.846   3.206  0.0543  0.0296 -0.6073
 1745TIP3    H126726   1.585   5.758   3.228  0.8602 -0.2312 -0.4468
 1745TIP3    H226727   1.711   5.843   3.225  0.0279  1.0376 -0.2542
 1746TIP3   OH226728   2.009   1.452   1.279 -0.5635 -0.1801 -0.6856
 1746TIP3    H126729   1.956   1.447   1.200 -1.1141 -1.6695 -0.2542
 1746TIP3    H226730   1.945   1.447   1.351  0.0302 -0.2371 -0.1515
 1747TIP3   OH226731   3.888   6.608  12.617  0.2512 -0.6638 -0.2382
 1747TIP3    H126732   3.937   6.601  12.698 -0.0772 -1.0668 -0.0744
 1747TIP3    H226733   3.805   6.648  12.642  1.5618  2.8861 -0.9356
 1748TIP3   OH226734   3.198   3.902  14.374  0.1845 -0.0999  0.4121
 1748TIP3    H126735   3.239   3.869  14.454 -1.2688 -1.5514  0.6109
 1748TIP3    H226736   3.268   3.898  14.308  1.3657  1.0095  1.5401
 1749TIP3   OH226737   5.768   5.599   1.347  0.2039  0.0888 -0.2179
 1749TIP3    H126738   5.672   5.605   1.341  0.0288 -2.1740 -0.4576
 1749TIP3    H226739   5.794   5.557   1.265  1.6097  2.0386 -0.8504
 1750TIP3   OH226740   6.567   1.222   3.872  0.0421  0.3083 -0.9343
 1750TIP3    H126741   6.578   1.172   3.953 -0.3616 -2.1828 -2.3254
 1750TIP3    H226742   6.654   1.221   3.831 -0.2041 -0.1711 -1.4573
 1751TIP3   OH226743   3.372   0.848   0.648  0.3700 -1.2150  0.1120
 1751TIP3    H126744   3.339   0.843   0.738 -2.5066  1.8400 -0.5752
 1751TIP3    H226745   3.434   0.920   0.649 -2.3103  1.3246 -0.8128
 1752TIP3   OH226746   3.365   4.464   1.297  0.2560  0.2391  0.3660
 1752TIP3    H126747   3.321   4.436   1.217 -0.8900  0.0471  1.0456
 1752TIP3    H226748   3.311   4.535   1.331  1.0807  0.7518  0.6550
 1753TIP3   OH226749   1.858   4.043  16.830  0.2774 -0.1880  0.2199
 1753TIP3    H126750   1.831   4.100  16.758 -0.7339  0.0793  0.7985
 1753TIP3    H226751   1.880   4.103  16.901 -1.3851 -0.5004  1.0421
 1754TIP3   OH226752   0.134   1.961  12.331 -0.6153  0.0269  0.2823
 1754TIP3    H126753   0.050   2.001  12.311 -0.3280  0.4265 -0.1592
 1754TIP3    H226754   0.191   2.035  12.352 -0.3477 -0.2333  0.4870
 1755TIP3   OH226755   2.685   5.064  11.379 -0.3292  0.2151 -0.1115
 1755TIP3    H126756   2.681   5.152  11.342  0.1829  0.0918 -0.4682
 1755TIP3    H226757   2.605   5.056  11.430 -0.8019  0.5688 -0.7919
 1756TIP3   OH226758   1.648   2.403  12.082  0.5663 -0.2027 -0.0520
 1756TIP3    H126759   1.676   2.354  12.005  1.5960  1.0451 -0.5154
 1756TIP3    H226760   1.720   2.392  12.145  0.3607 -0.1040  0.2002
 1757TIP3   OH226761   5.704   4.313   5.097  0.3062  0.2128 -0.0635
 1757TIP3    H126762   5.610   4.311   5.116  0.5138 -1.7277  1.0606
 1757TIP3    H226763   5.731   4.221   5.100  2.5707  0.8289  1.4242
 1758TIP3   OH226764   0.036   0.519   1.190  0.1456  0.1496 -0.3181
 1758TIP3    H126765  -0.009   0.486   1.112  2.5583 -2.7058 -0.6795
 1758TIP3    H226766   0.083   0.597   1.159 -1.2548  0.7854 -0.9154
 1759TIP3   OH226767   5.802   1.818   4.924 -0.6815  0.1378 -0.1343
 1759TIP3    H126768   5.715   1.795   4.890 -0.6454 -0.6358  0.2532
 1759TIP3    H226769   5.844   1.867   4.854 -0.9377 -0.6405 -0.8417
 1760TIP3   OH226770   0.150   3.384  16.381  0.2379 -0.1055  0.0893
 1760TIP3    H126771   0.072   3.329  16.371 -0.1011  0.4444 -0.3586
 1760TIP3    H226772   0.209   3.332  16.435 -0.1155 -0.8724 -0.2438
 1761TIP3   OH226773   0.833   5.693   3.040  0.0474 -0.3283  0.0005
 1761TIP3    H126774   0.901   5.709   3.105 -1.1135  0.3236  1.0953
 1761TIP3    H226775   0.795   5.609   3.065 -0.8858  0.2692  0.6168
 1762TIP3   OH226776   0.230   1.263   5.857  0.2583  0.2432 -0.5340
 1762TIP3    H126777   0.279   1.209   5.796  0.3574 -1.1873  0.7528
 1762TIP3    H226778   0.184   1.326   5.802 -1.8212 -2.6545 -2.3677
 1763TIP3   OH226779   2.974   0.481  14.953 -0.3079 -0.2308  0.2846
 1763TIP3    H126780   2.924   0.502  14.874  0.9537 -0.3621 -0.5785
 1763TIP3    H226781   2.910   0.488  15.024 -1.0606  1.7758 -0.5056
 1764TIP3   OH226782   4.386   2.077   1.712  0.4416 -0.0134 -0.1344
 1764TIP3    H126783   4.432   2.000   1.746  2.7083  0.9099 -0.9321
 1764TIP3    H226784   4.382   2.137   1.785 -1.3737 -0.8510  0.5041
 1765TIP3   OH226785   1.634   1.463  12.462  0.0546  0.5933 -0.0110
 1765TIP3    H126786   1.605   1.461  12.554  1.7327  2.2104  0.6215
 1765TIP3    H226787   1.569   1.518  12.418  0.7493  2.2150  0.8755
 1766TIP3   OH226788   2.389   0.486  16.481 -1.1435 -1.0518 -0.4681
 1766TIP3    H126789   2.454   0.500  16.412 -0.0548 -1.4071  0.4559
 1766TIP3    H226790   2.374   0.392  16.480 -2.6760 -0.8366 -1.5493
 1767TIP3   OH226791   6.602   6.061  13.453 -0.1885  0.1016  0.0467
 1767TIP3    H126792   6.625   6.060  13.546  1.5182  1.7361 -0.3125
 1767TIP3    H226793   6.522   6.112  13.449 -0.2006  0.1377  0.6011
 1768TIP3   OH226794   3.595   0.263  15.745  0.5418 -0.0685 -0.2882
 1768TIP3    H126795   3.624   0.173  15.731 -0.3412 -0.4868  0.4860
 1768TIP3    H226796   3.638   0.291  15.826 -2.1187 -1.1811  1.6830
 1769TIP3   OH226797   4.390   5.271   6.048  0.2012  0.7100  0.1055
 1769TIP3    H126798   4.396   5.354   6.094 -1.3007  0.9068 -0.0091
 1769TIP3    H226799   4.451   5.279   5.974  2.4685  0.4783  1.8267
 1770TIP3   OH226800   5.472   3.480  12.434 -0.2492 -0.0470  0.1067
 1770TIP3    H126801   5.496   3.562  12.391  0.6130 -0.8310 -0.9747
 1770TIP3    H226802   5.462   3.417  12.363 -1.3045 -0.7921  0.8854
 1771TIP3   OH226803   0.754   3.245  16.013  0.0824 -0.3124  0.5479
 1771TIP3    H126804   0.787   3.216  15.927 -0.2288 -2.9712  1.2455
 1771TIP3    H226805   0.721   3.333  15.997  1.6738 -0.0127 -1.6412
 1772TIP3   OH226806   5.706   0.332   4.530 -0.0028 -0.0731  0.1223
 1772TIP3    H126807   5.676   0.333   4.621 -1.1759 -1.0242 -0.2402
 1772TIP3    H226808   5.629   0.310   4.479  0.8885 -0.6867 -1.0110
 1773TIP3   OH226809   2.218   0.345   3.874  0.0948 -0.5300  0.2994
 1773TIP3    H126810   2.199   0.303   3.958 -1.3627  0.3589  0.4656
 1773TIP3    H226811   2.306   0.379   3.883 -0.5115  0.7386  2.0168
 1774TIP3   OH226812   6.252   4.470   4.096 -0.1672  0.4398  0.2302
 1774TIP3    H126813   6.182   4.410   4.122  0.6364  0.0874  1.7373
 1774TIP3    H226814   6.318   4.460   4.165  2.2788 -0.7590 -2.1185
 1775TIP3   OH226815   1.105   6.050  11.090  0.2208  0.0501  0.3192
 1775TIP3    H126816   1.011   6.066  11.078  0.0329 -0.6703  0.7652
 1775TIP3    H226817   1.147   6.132  11.064 -0.4638  0.0617 -0.8097
 1776TIP3   OH226818   3.497   0.221  16.802 -0.3403  0.2096 -0.2166
 1776TIP3    H126819   3.535   0.142  16.763  0.2362  0.2369  0.2618
 1776TIP3    H226820   3.520   0.215  16.895 -3.6287 -1.0091  0.6370
 1777TIP3   OH226821   0.750   2.623  14.902  0.2320 -0.3694  0.0011
 1777TIP3    H126822   0.693   2.561  14.858  0.6578 -1.7274  1.2610
 1777TIP3    H226823   0.802   2.569  14.963  0.4482  1.2402  1.3299
 1778TIP3   OH226824   6.067   4.297   4.194 -0.6390  0.2703  0.1304
 1778TIP3    H126825   5.993   4.319   4.251 -0.2418 -0.3791  0.9156
 1778TIP3    H226826   6.040   4.218   4.148 -0.7728  0.5276 -0.2362
 1779TIP3   OH226827   2.302   0.547   0.961 -0.3638 -0.2571 -0.0842
 1779TIP3    H126828   2.360   0.510   0.894  0.8193 -0.1530  0.8514
 1779TIP3    H226829   2.292   0.478   1.026  1.2415  0.7280  1.2948
 1780TIP3   OH226830   2.693   4.425  13.832  0.4704  0.7223 -0.3781
 1780TIP3    H126831   2.677   4.390  13.744  1.8314  0.8204 -0.6831
 1780TIP3    H226832   2.782   4.397  13.853 -0.0604  0.1281  1.2648
 1781TIP3   OH226833   1.119   4.773   3.792  0.0416 -0.0179  0.1716
 1781TIP3    H126834   1.142   4.853   3.745 -1.7128  0.7849  0.5847
 1781TIP3    H226835   1.026   4.761   3.776  0.3088 -2.1654 -0.1033
 1782TIP3   OH226836   1.015   6.110   2.536  0.5617 -0.6316  0.1154
 1782TIP3    H126837   0.998   6.020   2.509  0.9617 -0.8712  0.6331
 1782TIP3    H226838   0.929   6.144   2.560  0.5910 -1.4170  1.4839
 1783TIP3   OH226839   2.562   5.874   4.360  0.4061 -0.4508  0.8044
 1783TIP3    H126840   2.594   5.899   4.274 -0.9478  2.1507  0.9667
 1783TIP3    H226841   2.470   5.855   4.347  0.6308 -2.0536  1.3596
 1784TIP3   OH226842   3.775   0.728  12.871 -0.3031  0.2703 -0.1745
 1784TIP3    H126843   3.764   0.756  12.962 -0.9645  1.1104 -0.5067
 1784TIP3    H226844   3.688   0.698  12.844 -0.4869  1.4675 -0.9965
 1785TIP3   OH226845   0.636   0.899  12.397 -0.2626  0.2108  0.1070
 1785TIP3    H126846   0.584   0.908  12.316 -0.2218  1.8955  0.2438
 1785TIP3    H226847   0.711   0.957  12.384  0.2012 -0.1744  1.0100
 1786TIP3   OH226848   4.991   6.775   1.740  0.3788 -0.6060 -0.6632
 1786TIP3    H126849   4.981   6.817   1.655  0.0314 -0.0407 -0.3482
 1786TIP3    H226850   4.918   6.713   1.744 -0.6686  0.6293 -0.0519
 1787TIP3   OH226851   0.455   0.522  13.655  0.0543 -0.2776  0.4160
 1787TIP3    H126852   0.427   0.597  13.708  0.9762  1.8453 -1.8920
 1787TIP3    H226853   0.549   0.532  13.647  0.0199 -0.8456 -1.1115
 1788TIP3   OH226854   4.952   1.640  13.359 -0.7320  0.6777 -0.1107
 1788TIP3    H126855   4.886   1.578  13.389  0.0098 -0.2469 -0.3379
 1788TIP3    H226856   4.987   1.680  13.439 -0.1015 -0.3762  0.1579
 1789TIP3   OH226857   1.829   1.596   4.911 -0.5070 -0.6176  0.4655
 1789TIP3    H126858   1.854   1.664   4.848  1.1796 -0.5192  1.1814
 1789TIP3    H226859   1.907   1.585   4.966 -0.1300 -4.1518 -0.5152
 1790TIP3   OH226860   0.293   0.854  15.430 -0.0096  0.0028 -0.0909
 1790TIP3    H126861   0.327   0.785  15.373 -0.9572 -1.8474  1.4652
 1790TIP3    H226862   0.358   0.861  15.500  0.1400  0.8213 -0.2941
 1791TIP3   OH226863   3.905   1.312   2.951  0.2058  0.3025  0.0656
 1791TIP3    H126864   3.967   1.239   2.951 -1.9485 -1.6880 -1.4752
 1791TIP3    H226865   3.959   1.389   2.969  2.7942 -1.4900  0.6272
 1792TIP3   OH226866   4.851   2.877   4.332 -0.2782  0.1917  0.2643
 1792TIP3    H126867   4.876   2.900   4.422  2.5301  1.6336 -0.7428
 1792TIP3    H226868   4.841   2.961   4.288  0.0856 -0.4710 -1.1417
 1793TIP3   OH226869   0.330   1.637  16.809  0.4255 -0.2571  0.2575
 1793TIP3    H126870   0.343   1.674  16.897 -0.8612  3.1588 -0.8229
 1793TIP3    H226871   0.396   1.567  16.803  1.4815  0.2749  3.4171
 1794TIP3   OH226872   0.045   0.275  11.514 -0.2192  0.1528 -0.7100
 1794TIP3    H126873  -0.049   0.291  11.524 -0.3971 -0.1606 -1.7211
 1794TIP3    H226874   0.061   0.195  11.565 -0.6848 -0.2833 -1.2250
 1795TIP3   OH226875   0.671   4.056   5.996  0.1565 -0.0199 -0.1132
 1795TIP3    H126876   0.592   4.010   6.021 -0.2290  0.3587 -0.6119
 1795TIP3    H226877   0.736   4.030   6.061 -0.0114 -1.3373 -0.4376
 1796TIP3   OH226878   3.721   5.491   3.453 -0.4974  0.3140 -0.5440
 1796TIP3    H126879   3.811   5.508   3.425 -0.3595 -0.0791 -0.3566
 1796TIP3    H226880   3.667   5.542   3.393 -0.1339  0.8763 -0.4028
 1797TIP3   OH226881   1.527   3.833  14.832  0.0051 -0.0152  0.4943
 1797TIP3    H126882   1.547   3.896  14.762 -1.1836  0.2462  0.3695
 1797TIP3    H226883   1.532   3.884  14.913 -0.3063  0.0851  0.4505
 1798TIP3   OH226884   2.507   0.219   3.908  0.4281  0.3805 -0.1100
 1798TIP3    H126885   2.588   0.201   3.955  0.9843  0.6419 -0.9392
 1798TIP3    H226886   2.469   0.133   3.892  0.5023  0.2606  0.3601
 1799TIP3   OH226887   2.142   2.782  14.956  0.5554  0.0202 -0.6577
 1799TIP3    H126888   2.109   2.697  14.925  0.0690 -0.2916  0.6441
 1799TIP3    H226889   2.127   2.780  15.050  1.7152  1.0510 -0.4328
 1800TIP3   OH226890   6.806   6.520   0.234  0.2350  0.0894  0.0977
 1800TIP3    H126891   6.846   6.603   0.259  1.3908 -0.4360  0.0939
 1800TIP3    H226892   6.880   6.460   0.224 -0.6297 -1.1915  1.0361
 1801TIP3   OH226893   2.796   0.241   5.050 -0.2472  0.2100  0.0136
 1801TIP3    H126894   2.826   0.165   5.001  0.6343  1.3816 -1.3637
 1801TIP3    H226895   2.876   0.279   5.086 -0.5699  0.9140  0.0054
 1802TIP3   OH226896   4.647   3.385  15.194 -0.2592 -0.1663 -0.0382
 1802TIP3    H126897   4.712   3.372  15.125  2.4983 -1.5609  2.5837
 1802TIP3    H226898   4.622   3.297  15.220 -2.4273  0.3546 -0.1951
 1803TIP3   OH226899   3.712   5.331   5.529  0.1037  0.2676  0.0744
 1803TIP3    H126900   3.804   5.347   5.546  0.0156 -0.7940  1.7313
 1803TIP3    H226901   3.711   5.251   5.475  0.1484 -0.1319  0.6518
 1804TIP3   OH226902   6.518   6.238  14.738  0.0147  0.3978  0.4690
 1804TIP3    H126903   6.518   6.334  14.741  1.3669  0.4433 -0.4704
 1804TIP3    H226904   6.607   6.214  14.712 -0.2990 -1.1221  0.7030
 1805TIP3   OH226905   3.869   0.256  15.591  0.0713 -0.1018 -0.1174
 1805TIP3    H126906   3.840   0.283  15.678 -1.1616 -1.5039 -0.0737
 1805TIP3    H226907   3.895   0.165  15.601  2.6025  0.4749 -0.6338
 1806TIP3   OH226908   3.280   3.591  11.174 -0.3892  0.3395  0.3820
 1806TIP3    H126909   3.332   3.586  11.254  0.1672  0.0345  0.0071
 1806TIP3    H226910   3.296   3.680  11.141  1.4657 -0.3413 -0.7488
 1807TIP3   OH226911   0.539   4.898   3.998  0.0908  0.0074  0.4302
 1807TIP3    H126912   0.580   4.820   4.035 -1.4817 -0.0159  2.2795
 1807TIP3    H226913   0.458   4.909   4.048  0.4011  2.9962  0.4299
 1808TIP3   OH226914   2.423   4.096   2.103  0.0515  0.1295 -0.6178
 1808TIP3    H126915   2.490   4.027   2.103  0.7804  0.8276 -0.3991
 1808TIP3    H226916   2.342   4.051   2.127  0.8949 -0.2905  1.6201
 1809TIP3   OH226917   5.602   2.309  11.329 -0.1793  0.3075 -0.2957
 1809TIP3    H126918   5.647   2.267  11.403 -0.8914 -1.1167 -0.6183
 1809TIP3    H226919   5.540   2.369  11.370 -0.1212  0.0058  0.2520
 1810TIP3   OH226920   6.609   5.345  11.662 -1.1784  0.4254  0.2880
 1810TIP3    H126921   6.621   5.393  11.580 -1.5887  1.7935  0.9908
 1810TIP3    H226922   6.695   5.348  11.704 -1.5518  1.8440  0.9873
 1811TIP3   OH226923   5.963   1.991   1.036  0.0262 -0.2249  0.9052
 1811TIP3    H126924   5.938   1.907   0.997 -0.2761  0.0956  0.4066
 1811TIP3    H226925   5.880   2.033   1.058  0.1704  0.0836  0.8567
 1812TIP3   OH226926   2.747   1.662  13.364 -0.6667 -0.5522  0.4721
 1812TIP3    H126927   2.825   1.641  13.415 -0.6397 -1.0746  0.2261
 1812TIP3    H226928   2.713   1.576  13.336 -2.5750 -0.4980  2.3939
 1813TIP3   OH226929   3.358   1.744   0.272 -0.2967 -0.1461  0.2381
 1813TIP3    H126930   3.451   1.745   0.247 -0.5652  0.3317 -0.8113
 1813TIP3    H226931   3.357   1.705   0.359  0.7110 -1.8895 -0.4886
 1814TIP3   OH226932   4.318   2.040  15.047  0.3868  0.3392 -0.4774
 1814TIP3    H126933   4.369   2.095  14.987  0.3885  0.7225 -0.1340
 1814TIP3    H226934   4.340   1.950  15.023  0.7802  0.4970 -0.7098
 1815TIP3   OH226935   2.809   4.632  13.654  0.5306  0.5533 -0.7842
 1815TIP3    H126936   2.829   4.726  13.654  0.2972  0.6049 -0.6536
 1815TIP3    H226937   2.843   4.600  13.737  0.3562  0.5806 -0.7005
 1816TIP3   OH226938   3.014   2.219  17.165  0.0263  0.1200  0.0715
 1816TIP3    H126939   3.082   2.260  17.217  0.4163  1.0674 -1.1432
 1816TIP3    H226940   3.023   2.125  17.182  1.2444  0.2878  0.3838
 1817TIP3   OH226941   2.935   1.381   2.864  0.2937 -0.2484 -0.1071
 1817TIP3    H126942   2.970   1.293   2.852  1.9847  0.6520 -2.5636
 1817TIP3    H226943   2.989   1.436   2.807 -2.5405  1.9249 -0.9248
 1818TIP3   OH226944   3.466   3.281   6.524  0.1828  1.1505 -0.6300
 1818TIP3    H126945   3.435   3.214   6.464 -1.0550 -0.9018  2.0631
 1818TIP3    H226946   3.547   3.246   6.559  0.6069  2.0507 -0.6934
 1819TIP3   OH226947   1.079   1.888   5.736  0.7441  0.1317 -0.1627
 1819TIP3    H126948   1.086   1.914   5.828  3.2131  2.1101 -0.8123
 1819TIP3    H226949   1.145   1.819   5.725  0.9786  0.4260 -0.6162
 1820TIP3   OH226950   2.296   0.111   2.095 -0.4398  0.3055 -0.4748
 1820TIP3    H126951   2.316   0.023   2.127 -1.2910  0.3923  0.3644
 1820TIP3    H226952   2.213   0.133   2.137  0.5457  2.1545  0.6395
 1821TIP3   OH226953   5.460   0.734   2.494  0.3684 -0.0516 -0.0198
 1821TIP3    H126954   5.508   0.682   2.558  0.2927  1.1445  1.0414
 1821TIP3    H226955   5.508   0.817   2.490 -0.1447  0.2234 -0.8622
 1822TIP3   OH226956   0.740   5.646   5.620 -0.0070  0.5854  0.7384
 1822TIP3    H126957   0.771   5.730   5.587  1.7580 -0.9279 -1.8776
 1822TIP3    H226958   0.645   5.650   5.610  0.2151  1.3623 -2.0097
 1823TIP3   OH226959   5.211   2.913  13.742  0.1365 -0.7868 -0.6666
 1823TIP3    H126960   5.259   2.851  13.796  1.2066 -0.0486 -0.7474
 1823TIP3    H226961   5.135   2.864  13.711  0.1403 -1.5772  0.5254
 1824TIP3   OH226962   1.128   2.751   0.030 -0.1689 -0.3032  0.0747
 1824TIP3    H126963   1.131   2.749  -0.066 -2.4654  1.7808 -0.1363
 1824TIP3    H226964   1.070   2.678   0.053 -2.7661  1.4523 -0.4818
 1825TIP3   OH226965   5.576   1.006   6.038  0.1189  0.3780  0.2502
 1825TIP3    H126966   5.653   1.005   6.094  1.5600 -0.0632 -1.6700
 1825TIP3    H226967   5.533   0.922   6.055 -0.3432  0.8980  1.8084
 1826TIP3   OH226968   1.426   4.998   3.742 -0.1554  0.6017  0.3966
 1826TIP3    H126969   1.335   5.024   3.729  0.2896  1.4295 -1.2457
 1826TIP3    H226970   1.454   4.965   3.657  0.8479 -0.4521  1.1076
 1827TIP3   OH226971   4.174   1.604  13.351  0.2280  0.6963 -0.6997
 1827TIP3    H126972   4.128   1.598  13.268 -2.8790  0.3362  0.8883
 1827TIP3    H226973   4.187   1.698  13.365 -1.1346  0.9054 -0.6902
 1828TIP3   OH226974   5.250   4.353   1.733  1.0774  0.6237 -0.0551
 1828TIP3    H126975   5.282   4.333   1.820 -0.7300 -0.5213  0.3974
 1828TIP3    H226976   5.234   4.268   1.692  2.0905  1.1307 -1.6051
 1829TIP3   OH226977   5.158   2.046   4.709 -0.3810  0.4319  0.7460
 1829TIP3    H126978   5.080   2.082   4.666  0.0028  0.6551  0.2309
 1829TIP3    H226979   5.212   2.122   4.729  0.4738  0.1633 -0.4197
 1830TIP3   OH226980   2.871   0.404   3.236  0.3500  0.3039 -0.2950
 1830TIP3    H126981   2.835   0.352   3.164  0.0612 -0.2744  0.2593
 1830TIP3    H226982   2.966   0.391   3.228  0.2265 -1.4691  0.6684
 1831TIP3   OH226983   4.904   0.142  14.685  0.5496 -0.1814 -0.1156
 1831TIP3    H126984   4.897   0.062  14.633 -1.7416 -1.0544  1.3681
 1831TIP3    H226985   4.814   0.164  14.707  1.0099  3.3191 -1.1125
 1832TIP3   OH226986   0.116   4.367  12.448  0.2403  0.0926 -0.1193
 1832TIP3    H126987   0.096   4.457  12.422  0.3064 -0.0688 -0.7529
 1832TIP3    H226988   0.126   4.371  12.543  1.2379  0.9444 -0.2418
 1833TIP3   OH226989   0.888   5.431   5.552 -0.4632 -0.3285 -0.0375
 1833TIP3    H126990   0.842   5.347   5.555 -0.5897 -0.4135 -2.3791
 1833TIP3    H226991   0.827   5.493   5.591 -1.9526 -0.7397 -1.5883
 1834TIP3   OH226992   2.323   4.074  15.457  0.1644  0.4226 -0.0258
 1834TIP3    H126993   2.408   4.114  15.475  0.9457 -1.4316  0.6293
 1834TIP3    H226994   2.343   3.984  15.432 -1.6304 -0.1663  0.4595
 1835TIP3   OH226995   1.060   6.067   1.455 -0.6413 -0.2997  0.1212
 1835TIP3    H126996   0.989   6.037   1.398 -0.9491  0.0248  0.3260
 1835TIP3    H226997   1.099   6.141   1.409  0.2969 -1.1581 -0.5127
 1836TIP3   OH226998   0.248   6.433  17.035  0.3426 -0.3555 -0.8898
 1836TIP3    H126999   0.179   6.369  17.015 -0.4014  0.6436 -1.6277
 1836TIP3    H227000   0.239   6.450  17.128 -0.1907 -0.4944 -0.9115
 1837TIP3   OH227001   1.916   6.257   5.402 -0.4465  0.0442 -0.5886
 1837TIP3    H127002   2.000   6.274   5.360 -0.0065 -0.5232  0.0534
 1837TIP3    H227003   1.936   6.248   5.495 -0.3821 -4.8154 -0.7908
 1838TIP3   OH227004   0.778   3.144  16.533 -0.0398 -0.5428 -0.1865
 1838TIP3    H127005   0.853   3.198  16.557  1.8156 -3.8667  2.4581
 1838TIP3    H227006   0.702   3.191  16.568  1.3500  0.7619  1.2123
 1839TIP3   OH227007   5.449   1.394  13.828 -0.0470 -0.0150  0.0263
 1839TIP3    H127008   5.497   1.467  13.791  0.4736 -0.1415  0.4349
 1839TIP3    H227009   5.429   1.421  13.918 -1.8392  0.5469 -0.5061
 1840TIP3   OH227010   0.352   3.252   2.433  0.6702 -0.5526 -0.4654
 1840TIP3    H127011   0.278   3.195   2.411 -0.3461  0.3469  0.4287
 1840TIP3    H227012   0.378   3.292   2.350 -1.1805  0.6104 -0.5539
 1841TIP3   OH227013   0.458   1.495  10.448  0.2508  0.6532 -0.1481
 1841TIP3    H127014   0.484   1.403  10.457  0.7547  0.7935 -0.1221
 1841TIP3    H227015   0.461   1.511  10.354  2.0044  1.1475 -0.0418
 1842TIP3   OH227016   2.028   2.895   2.070 -0.1438 -0.1763 -0.2930
 1842TIP3    H127017   2.059   2.927   1.985  0.4895 -1.2569 -0.4750
 1842TIP3    H227018   1.943   2.939   2.082  0.2093  0.7411 -1.0181
 1843TIP3   OH227019   4.232   3.012  11.833 -0.1130  0.0986 -0.1994
 1843TIP3    H127020   4.258   3.093  11.789 -2.4005  0.5904 -0.7655
 1843TIP3    H227021   4.189   2.960  11.766 -0.6671 -0.6110  0.6729
 1844TIP3   OH227022   0.421   2.416   4.994  0.1383 -0.4397 -0.5275
 1844TIP3    H127023   0.428   2.389   5.085  0.2018 -0.2380 -0.4728
 1844TIP3    H227024   0.473   2.496   4.988  1.2621 -1.1856 -1.0491
 1845TIP3   OH227025   4.323   1.940   3.714  0.2216 -0.1411  0.1681
 1845TIP3    H127026   4.235   1.929   3.749  0.3325  0.2265  0.5736
 1845TIP3    H227027   4.334   1.867   3.653 -0.3762 -0.1624  0.0830
 1846TIP3   OH227028   0.681   6.660   2.152 -0.3351 -0.3294 -0.9305
 1846TIP3    H127029   0.667   6.743   2.107  1.1377  0.1355 -0.5970
 1846TIP3    H227030   0.650   6.677   2.242 -1.0058 -0.4899 -1.1228
 1847TIP3   OH227031   5.684   3.204  15.376  0.0906 -0.2999  0.1229
 1847TIP3    H127032   5.725   3.160  15.302 -1.9829 -0.4288 -1.0175
 1847TIP3    H227033   5.753   3.260  15.412  1.5103 -1.1764 -1.1012
 1848TIP3   OH227034   5.828   2.192  12.374 -0.1079 -0.7401  1.0814
 1848TIP3    H127035   5.841   2.223  12.285 -0.0690  0.2867  1.4360
 1848TIP3    H227036   5.786   2.265  12.420 -0.6740 -1.4629  1.7565
 1849TIP3   OH227037   6.436   6.636   4.957 -0.0534  0.4925 -0.3128
 1849TIP3    H127038   6.523   6.621   4.993 -0.7224  0.5828  1.4779
 1849TIP3    H227039   6.449   6.640   4.862  1.7523 -0.2792 -0.1394
 1850TIP3   OH227040   3.351   2.305   5.116 -0.7173  0.2211  0.1148
 1850TIP3    H127041   3.327   2.306   5.208 -2.0906  2.4050 -0.1838
 1850TIP3    H227042   3.351   2.213   5.091 -0.3394 -0.4107  2.2539
 1851TIP3   OH227043   4.887   0.585  10.991 -0.1810 -0.1500 -0.5328
 1851TIP3    H127044   4.869   0.678  11.001  1.1272 -0.0414  1.4427
 1851TIP3    H227045   4.910   0.555  11.079  0.8195 -2.0269 -1.3519
 1852TIP3   OH227046   4.081   3.533   5.286  0.5919  0.2322 -0.2604
 1852TIP3    H127047   4.162   3.543   5.336  0.6351 -1.9813  0.2253
 1852TIP3    H227048   4.030   3.469   5.336 -0.5048 -0.0660 -1.7082
 1853TIP3   OH227049   5.635   6.125   3.209  0.4255 -1.2322 -0.3164
 1853TIP3    H127050   5.564   6.113   3.145  0.5438 -1.0282 -0.4881
 1853TIP3    H227051   5.689   6.047   3.200  1.0325 -0.7297 -1.2228
 1854TIP3   OH227052   3.578   2.593   4.078 -0.1787  0.1141  0.1825
 1854TIP3    H127053   3.645   2.634   4.133  0.4162 -2.0830  1.1780
 1854TIP3    H227054   3.496   2.617   4.120  0.0709  1.1716  0.1075
 1855TIP3   OH227055   3.460   3.050   3.216  0.3091 -0.0089 -0.3049
 1855TIP3    H127056   3.536   3.076   3.164  1.0777  0.7883  1.1492
 1855TIP3    H227057   3.495   2.984   3.276 -0.4310 -0.5120 -0.4272
 1856TIP3   OH227058   0.174   6.095  15.998  0.4014 -0.5869  0.4785
 1856TIP3    H127059   0.186   6.189  16.006 -0.1213 -0.5430  0.7406
 1856TIP3    H227060   0.161   6.080  15.905  0.6699 -0.4269  0.4131
 1857TIP3   OH227061   5.181   6.293   5.604  0.5529  0.2686 -0.1586
 1857TIP3    H127062   5.202   6.294   5.511  1.2211 -0.3398 -0.0213
 1857TIP3    H227063   5.165   6.385   5.626 -1.1178  0.2651 -1.1909
 1858TIP3   OH227064   2.112   5.388  16.063  0.4976 -0.3242  0.1989
 1858TIP3    H127065   2.169   5.388  16.140  0.4887  0.2684  0.2126
 1858TIP3    H227066   2.028   5.421  16.095  0.1477 -1.1598  0.1692
 1859TIP3   OH227067   3.944   0.764  11.546 -0.7480 -0.3873 -0.3484
 1859TIP3    H127068   3.975   0.713  11.472  0.6806  0.6648 -0.5174
 1859TIP3    H227069   3.990   0.728  11.622  0.8169  1.0112 -0.5637
 1860TIP3   OH227070   6.044   2.726  12.105 -0.3835 -0.3656 -0.5107
 1860TIP3    H127071   5.968   2.673  12.129 -1.1023  0.3669 -1.1078
 1860TIP3    H227072   6.095   2.733  12.185 -2.1863  1.1528  0.5965
 1861TIP3   OH227073   3.420   6.315  14.120 -0.5370  0.4043 -0.3253
 1861TIP3    H127074   3.503   6.311  14.071 -0.1514  2.2560  0.1177
 1861TIP3    H227075   3.386   6.226  14.115 -0.2293  0.3352 -3.4695
 1862TIP3   OH227076   5.880   2.275   2.275  0.6898  0.0454  0.1104
 1862TIP3    H127077   5.929   2.318   2.346  0.1544 -1.3437  1.3579
 1862TIP3    H227078   5.891   2.182   2.291 -1.8744 -0.3267  0.1069
 1863TIP3   OH227079   6.586   4.742   5.344 -0.1357  0.4339 -0.2654
 1863TIP3    H127080   6.492   4.762   5.347 -0.0359  0.8994  2.2441
 1863TIP3    H227081   6.628   4.828   5.348  0.3057  0.2090  3.2367
 1864TIP3   OH227082   5.988   4.696   5.218 -0.6651 -0.0769  0.2493
 1864TIP3    H127083   5.898   4.722   5.195 -1.1368 -2.2969 -0.6153
 1864TIP3    H227084   6.042   4.767   5.183 -1.9729  0.5486 -0.6136
 1865TIP3   OH227085   0.719   4.694   2.873 -0.5213  0.2503  0.2898
 1865TIP3    H127086   0.664   4.753   2.924 -0.6013  0.7228 -0.3441
 1865TIP3    H227087   0.661   4.660   2.805  0.0633  1.0379 -0.6100
 1866TIP3   OH227088   0.453   0.701   4.948  0.6300 -0.0978 -0.3581
 1866TIP3    H127089   0.403   0.783   4.948 -0.8695 -0.9518  1.0929
 1866TIP3    H227090   0.443   0.667   4.859  1.3797  1.3238 -1.0166
 1867TIP3   OH227091   6.493   1.951  12.639 -0.4211  0.5699  0.6368
 1867TIP3    H127092   6.464   1.924  12.726 -0.0889 -2.2690 -0.0255
 1867TIP3    H227093   6.533   2.037  12.652 -1.7347  0.8910  2.9902
 1868TIP3   OH227094   5.478   0.940   3.362  0.9375 -0.5633  0.3622
 1868TIP3    H127095   5.550   0.894   3.318  3.1376  2.3251  0.6364
 1868TIP3    H227096   5.507   0.950   3.452 -2.1198 -3.5867  1.8911
 1869TIP3   OH227097   6.822   2.671  10.964 -0.0380 -0.1425  0.5796
 1869TIP3    H127098   6.858   2.697  11.049  0.5890  0.0344  0.2628
 1869TIP3    H227099   6.831   2.576  10.962  1.4581 -0.0217  0.0553
 1870TIP3   OH227100   2.312   2.848   2.345  0.2692  0.1039 -0.7070
 1870TIP3    H127101   2.396   2.808   2.322 -0.0041 -1.6794  1.0776
 1870TIP3    H227102   2.256   2.774   2.370 -0.6525  1.4668  1.6785
 1871TIP3   OH227103   2.808   3.780   4.315  0.2197  0.9358  0.2114
 1871TIP3    H127104   2.856   3.835   4.377  0.7609 -0.4020  1.0127
 1871TIP3    H227105   2.788   3.700   4.364  0.7331 -0.1869 -1.3622
 1872TIP3   OH227106   4.007   5.176  15.573 -0.1045 -0.0581 -0.3952
 1872TIP3    H127107   4.050   5.258  15.596  1.4433 -1.2315  1.1511
 1872TIP3    H227108   3.919   5.184  15.610  0.4854  0.3900  0.9977
 1873TIP3   OH227109   0.262   2.431   0.179 -0.2440 -0.1118  0.5918
 1873TIP3    H127110   0.280   2.523   0.197 -0.4450 -0.0340  0.3991
 1873TIP3    H227111   0.229   2.396   0.262  0.6504 -0.2205  0.9040
 1874TIP3   OH227112   0.598   3.282   0.892  0.0380 -0.5663 -0.0528
 1874TIP3    H127113   0.626   3.348   0.955 -1.0312 -1.0519  0.9758
 1874TIP3    H227114   0.673   3.224   0.882  0.2767 -0.3883  0.6734
 1875TIP3   OH227115   2.120   3.203   3.885  0.3213 -0.1378  0.0083
 1875TIP3    H127116   2.179   3.140   3.927 -0.7419 -0.4879  1.0134
 1875TIP3    H227117   2.115   3.173   3.794 -0.1030 -1.4866  0.4483
 1876TIP3   OH227118   0.700   0.510   5.333  0.1844 -0.5389 -0.3634
 1876TIP3    H127119   0.625   0.525   5.390  1.5127  1.0178  1.0844
 1876TIP3    H227120   0.764   0.465   5.388  1.5135  1.0184 -0.5327
 1877TIP3   OH227121   4.293   4.559   0.589  0.2175 -0.2852  0.4869
 1877TIP3    H127122   4.349   4.636   0.578  1.0755 -0.7454  1.4707
 1877TIP3    H227123   4.342   4.487   0.551 -0.5730 -0.3728 -0.4038
 1878TIP3   OH227124   2.072   2.565  14.054 -0.0596  0.0472  0.5637
 1878TIP3    H127125   2.046   2.652  14.087 -2.2766 -0.8128  1.3014
 1878TIP3    H227126   2.138   2.535  14.117  2.0405  1.8316 -0.6644
 1879TIP3   OH227127   1.685   0.093  11.770 -0.2280  0.1222  0.4479
 1879TIP3    H127128   1.712   0.087  11.861  0.5148  0.5289  0.2597
 1879TIP3    H227129   1.596   0.130  11.774  1.2200  4.0743  0.9185
 1880TIP3   OH227130   5.248   1.499  12.748  0.6844 -0.1097 -0.5488
 1880TIP3    H127131   5.178   1.509  12.684  0.1222 -1.3899 -0.1580
 1880TIP3    H227132   5.205   1.461  12.825  1.8639 -1.3155 -0.4539
 1881TIP3   OH227133   3.219   2.909   6.177 -0.1042  0.0755  0.0089
 1881TIP3    H127134   3.192   2.826   6.217 -1.2243 -0.3070 -1.4547
 1881TIP3    H227135   3.184   2.976   6.235 -2.1419 -0.4509 -0.5449
 1882TIP3   OH227136   2.836   2.772  12.609  0.1736  0.3356  0.1841
 1882TIP3    H127137   2.827   2.704  12.542 -1.6865 -1.1151  1.7934
 1882TIP3    H227138   2.872   2.848  12.562  0.1650 -1.0245 -2.1488
 1883TIP3   OH227139   3.022   4.545  13.439  0.2644 -0.4425  0.2214
 1883TIP3    H127140   3.088   4.572  13.503  0.7059 -2.5432  0.7327
 1883TIP3    H227141   2.941   4.586  13.470  0.8538  0.1736  0.9939
 1884TIP3   OH227142   4.258   0.690  13.661 -0.5918 -0.4891  0.7455
 1884TIP3    H127143   4.285   0.774  13.622  0.2188 -0.8258  0.5672
 1884TIP3    H227144   4.261   0.706  13.755 -0.4702 -0.3065  0.7123
 1885TIP3   OH227145   4.628   0.445  16.377 -0.0164 -0.0245 -0.0874
 1885TIP3    H127146   4.550   0.397  16.408 -1.1031  1.4021 -0.4960
 1885TIP3    H227147   4.686   0.449  16.452 -0.8611 -0.0965  0.5813
 1886TIP3   OH227148   3.664   4.137   0.721 -0.1345  0.7655 -0.1441
 1886TIP3    H127149   3.631   4.125   0.810 -1.1696  0.6118 -0.5331
 1886TIP3    H227150   3.639   4.227   0.698  1.0361  1.1577  0.0848
 1887TIP3   OH227151   6.229   0.823   1.165  0.0878 -0.3841  0.4271
 1887TIP3    H127152   6.286   0.870   1.226 -0.8355  0.4317  0.6860
 1887TIP3    H227153   6.289   0.768   1.115  0.9807 -0.3485  1.4058
 1888TIP3   OH227154   5.329   5.702   1.713  0.4212 -0.5739  0.2024
 1888TIP3    H127155   5.347   5.796   1.723 -2.1053  0.1116 -0.9607
 1888TIP3    H227156   5.402   5.668   1.661  0.4896  1.1421 -0.8850
 1889TIP3   OH227157   6.061   4.607   4.912 -0.2691  0.0118  0.0573
 1889TIP3    H127158   6.119   4.684   4.915 -0.6704  0.2900  1.0511
 1889TIP3    H227159   6.102   4.544   4.972  0.5814 -0.9547 -1.4699
 1890TIP3   OH227160   2.862   0.861  14.069 -0.0094  0.2399  0.4003
 1890TIP3    H127161   2.872   0.818  13.984 -0.0508 -1.9075  1.4383
 1890TIP3    H227162   2.948   0.898  14.088  1.3061 -2.9948  1.3111
 1891TIP3   OH227163   4.060   0.967   4.975  0.2768 -0.1713 -0.5512
 1891TIP3    H127164   3.973   0.948   4.941 -0.6130  2.6534 -0.1652
 1891TIP3    H227165   4.114   0.894   4.946 -1.8589 -1.2227 -2.1767
 1892TIP3   OH227166   5.455   5.242   3.566  0.6075 -0.6118 -0.5568
 1892TIP3    H127167   5.458   5.336   3.549 -0.8191 -0.2389  0.9351
 1892TIP3    H227168   5.413   5.205   3.489  1.1624 -0.0341 -1.1490
 1893TIP3   OH227169   2.711   0.615  13.144 -0.0340 -0.3796 -0.3614
 1893TIP3    H127170   2.787   0.601  13.088 -0.3902 -0.2787 -0.8721
 1893TIP3    H227171   2.640   0.634  13.084 -0.5380 -0.7922  0.0984
 1894TIP3   OH227172   5.339   2.931  15.872 -0.3410  0.5889  0.2084
 1894TIP3    H127173   5.433   2.933  15.854 -0.1568  0.3139  1.1085
 1894TIP3    H227174   5.305   2.862  15.816 -0.0924  1.0067 -0.4762
 1895TIP3   OH227175   2.139   1.072   6.256 -0.0998 -0.0046 -0.3184
 1895TIP3    H127176   2.231   1.069   6.281 -0.1008 -1.4592 -0.4235
 1895TIP3    H227177   2.117   1.165   6.258  0.9239  0.2349  1.3236
 1896TIP3   OH227178   4.986   6.558  15.598  0.0546 -0.0319  0.2003
 1896TIP3    H127179   4.959   6.594  15.514 -0.8366 -3.1952 -1.0190
 1896TIP3    H227180   4.906   6.555  15.650  0.2291  0.2588  0.4844
 1897TIP3   OH227181   1.069   6.758   5.083 -0.1011  0.3255 -0.5139
 1897TIP3    H127182   1.078   6.825   5.014 -0.3264  1.4147  0.4841
 1897TIP3    H227183   1.044   6.679   5.036 -0.4473  1.0948 -1.6761
 1898TIP3   OH227184   3.583   2.354   3.244 -0.3397  0.2614 -0.2941
 1898TIP3    H127185   3.579   2.384   3.154 -1.9010 -2.4897 -1.2899
 1898TIP3    H227186   3.547   2.265   3.241 -1.0589  0.2735  3.1349
 1899TIP3   OH227187   3.629   0.227  11.523 -0.0902  0.3847 -0.4188
 1899TIP3    H127188   3.638   0.206  11.616 -0.2772  1.8350 -0.0409
 1899TIP3    H227189   3.679   0.160  11.477 -0.3240 -0.5766  0.7032
 1900TIP3   OH227190   1.418   5.590   2.538  0.3021  0.6759 -0.2847
 1900TIP3    H127191   1.505   5.608   2.501  0.5002 -1.1512 -0.8290
 1900TIP3    H227192   1.433   5.516   2.597 -0.8741  0.3688 -0.3547
 1901TIP3   OH227193   5.956   1.535   2.676 -0.9218 -0.6245  0.3287
 1901TIP3    H127194   6.035   1.517   2.625 -0.5801 -0.8428  0.9314
 1901TIP3    H227195   5.903   1.456   2.666 -1.0636 -0.4855 -0.0604
 1902TIP3   OH227196   2.142   2.323   1.623 -0.0908  0.3628  0.1518
 1902TIP3    H127197   2.167   2.294   1.710  3.3579 -1.1177 -1.1541
 1902TIP3    H227198   2.157   2.417   1.624 -1.3428  0.5788  1.4700
 1903TIP3   OH227199   2.072   4.742   0.313  0.2595  0.0217 -0.4285
 1903TIP3    H127200   2.009   4.747   0.385  0.0125  1.2143 -0.7075
 1903TIP3    H227201   2.146   4.693   0.349 -1.0739 -2.0681 -0.3118
 1904TIP3   OH227202   3.926   0.880  11.095 -0.0469 -0.0357 -0.1693
 1904TIP3    H127203   3.967   0.804  11.137 -2.5587 -1.9925 -0.9721
 1904TIP3    H227204   3.928   0.948  11.163  0.7872 -1.3560  1.2017
 1905TIP3   OH227205   2.151   0.264  12.135  0.0925  0.4089  0.3936
 1905TIP3    H127206   2.188   0.185  12.096 -1.2626 -0.2247  0.3292
 1905TIP3    H227207   2.100   0.304  12.064 -0.8853  0.2402  0.9834
 1906TIP3   OH227208   1.146   2.136   1.600  0.0402 -0.0504  0.0905
 1906TIP3    H127209   1.190   2.064   1.555 -0.1658  0.2972 -0.6863
 1906TIP3    H227210   1.127   2.102   1.688  0.6989 -0.6418  0.0082
 1907TIP3   OH227211   6.624   5.843   2.850 -0.0293 -0.8957  0.1970
 1907TIP3    H127212   6.546   5.894   2.830 -0.1541 -1.4561 -0.8175
 1907TIP3    H227213   6.697   5.898   2.823  0.0598  0.2715  2.5307
 1908TIP3   OH227214   6.542   2.232  16.899 -0.2310 -0.4608  0.0243
 1908TIP3    H127215   6.595   2.258  16.823  2.9722 -0.8307  1.9423
 1908TIP3    H227216   6.514   2.315  16.938  1.8700 -0.0295  0.7844
 1909TIP3   OH227217   4.996   3.948  11.986 -0.4211 -0.7704  0.2350
 1909TIP3    H127218   5.055   4.023  11.997  0.0003 -0.9964 -0.3975
 1909TIP3    H227219   4.909   3.983  12.003 -0.4995  0.4278 -2.1218
 1910TIP3   OH227220   1.226   0.655   0.335  0.1687  0.5614 -0.2623
 1910TIP3    H127221   1.315   0.651   0.369  0.0282 -1.3096  0.0100
 1910TIP3    H227222   1.231   0.612   0.250 -0.3882  0.9011 -0.4731
 1911TIP3   OH227223   2.551   6.423  14.890  0.3707  0.5925  0.4674
 1911TIP3    H127224   2.617   6.355  14.881  1.9240  2.0855 -0.0406
 1911TIP3    H227225   2.525   6.421  14.982  1.2388  0.0645  0.7053
 1912TIP3   OH227226   3.461   0.009  14.889 -0.2944  0.7728 -0.5519
 1912TIP3    H127227   3.448   0.104  14.895  0.0574  0.7548  0.7119
 1912TIP3    H227228   3.399  -0.028  14.952  0.1229  0.2134 -0.4586
 1913TIP3   OH227229   3.103   4.327   4.342  0.2552 -0.1806  0.9351
 1913TIP3    H127230   3.104   4.270   4.419  0.4605 -0.3501  0.8081
 1913TIP3    H227231   3.030   4.294   4.289  3.1434 -3.4669 -1.4646
 1914TIP3   OH227232   3.245   4.757  10.988 -0.1611  0.1374 -0.0631
 1914TIP3    H127233   3.174   4.816  10.960  0.8990  1.3006 -0.3826
 1914TIP3    H227234   3.322   4.787  10.940  0.7065 -0.6874  0.7655
 1915TIP3   OH227235   6.455   4.516  11.096 -0.5841 -0.3498  0.1754
 1915TIP3    H127236   6.409   4.539  11.177  1.4884  0.3416  1.2419
 1915TIP3    H227237   6.433   4.587  11.035 -0.4070  0.3256  0.8793
 1916TIP3   OH227238   4.133   0.958   2.170 -0.0189  0.3011 -0.4249
 1916TIP3    H127239   4.042   0.968   2.197  0.3491 -1.2933  1.5843
 1916TIP3    H227240   4.175   0.911   2.242  2.8215  2.4802 -0.4642
 1917TIP3   OH227241   5.921   6.514   0.687  0.0909 -0.0901  0.1502
 1917TIP3    H127242   6.015   6.508   0.706 -0.3767  0.2884  2.9040
 1917TIP3    H227243   5.907   6.451   0.616  2.1412 -1.3169  0.7552
 1918TIP3   OH227244   2.760   1.616  15.332 -0.7928 -0.8760 -0.0967
 1918TIP3    H127245   2.729   1.648  15.247 -1.1988 -1.0496 -0.0160
 1918TIP3    H227246   2.753   1.692  15.390  1.4261 -0.1546 -0.6789
 1919TIP3   OH227247   0.324   1.064   3.040  0.6154 -0.1128 -0.0995
 1919TIP3    H127248   0.308   1.053   3.133  0.9761 -1.3692 -0.1692
 1919TIP3    H227249   0.400   1.122   3.035 -0.0211  0.7766  0.3552
 1920TIP3   OH227250   6.369   1.396   2.120  0.0956 -0.2187 -0.1985
 1920TIP3    H127251   6.417   1.479   2.116  0.4304 -0.4132 -4.3149
 1920TIP3    H227252   6.432   1.333   2.153  0.6230  0.6749  0.5526
 1921TIP3   OH227253   5.389   0.358   3.362 -0.4231  0.0386  0.3132
 1921TIP3    H127254   5.321   0.342   3.426  0.5589 -0.0889  1.3550
 1921TIP3    H227255   5.406   0.452   3.367  1.8570 -0.3837  2.6182
 1922TIP3   OH227256   3.854   3.017  11.012  0.5825 -0.3231  0.1291
 1922TIP3    H127257   3.908   2.963  10.955 -0.2309 -2.2949  1.1319
 1922TIP3    H227258   3.785   3.052  10.954  1.9628  0.9454 -0.8287
 1923TIP3   OH227259   3.808   0.376  14.774  0.5451 -0.4148  0.4630
 1923TIP3    H127260   3.853   0.440  14.719  3.8374 -1.6428  1.4968
 1923TIP3    H227261   3.762   0.429  14.839  0.3689  0.9191 -0.6901
 1924TIP3   OH227262   4.452   5.141   3.489 -0.4661  0.0927 -0.3052
 1924TIP3    H127263   4.372   5.116   3.442 -2.9272  5.2980  0.4133
 1924TIP3    H227264   4.518   5.149   3.420 -0.9664 -2.4991 -1.1986
 1925TIP3   OH227265   1.888   3.433   4.424  0.4408  0.6647 -0.1394
 1925TIP3    H127266   1.924   3.364   4.478 -0.3070  0.4710  0.1311
 1925TIP3    H227267   1.846   3.493   4.486  1.0580  1.3560 -0.3701
 1926TIP3   OH227268   5.302   6.009   3.787 -0.3756  0.0882 -0.6653
 1926TIP3    H127269   5.340   5.945   3.847  0.7385  0.5586 -0.8470
 1926TIP3    H227270   5.247   5.958   3.728  1.3655 -0.8658 -1.5162
 1927TIP3   OH227271   2.687   3.943  13.657  0.2723 -0.3441  0.2273
 1927TIP3    H127272   2.660   3.886  13.585  1.2017 -0.2976 -0.1833
 1927TIP3    H227273   2.655   3.899  13.736 -0.8515 -0.3443 -0.2128
 1928TIP3   OH227274   1.562   1.658  13.889  0.1329  0.6976 -0.4080
 1928TIP3    H127275   1.643   1.700  13.920  0.8259 -2.2349  2.2701
 1928TIP3    H227276   1.493   1.696  13.943  0.1854  0.9516 -0.5168
 1929TIP3   OH227277   5.671   6.780   1.982  0.3165 -0.5012  0.5996
 1929TIP3    H127278   5.739   6.821   2.035 -0.3358  0.1629  0.9416
 1929TIP3    H227279   5.702   6.791   1.892  1.6186 -1.9861  0.8257
 1930TIP3   OH227280   4.495   4.241   5.351  0.0906 -0.1364  0.2281
 1930TIP3    H127281   4.517   4.215   5.262  3.2069 -0.8392  1.0780
 1930TIP3    H227282   4.401   4.227   5.358 -0.2925  0.0955 -2.9545
 1931TIP3   OH227283   3.143   2.743  16.284  0.0615  0.4552  0.0472
 1931TIP3    H127284   3.069   2.693  16.318  0.2717  0.6885  0.8588
 1931TIP3    H227285   3.148   2.821  16.339  2.4492 -0.7396  1.7090
 1932TIP3   OH227286   1.290   3.596   3.078  0.9345  0.2797 -0.3831
 1932TIP3    H127287   1.335   3.531   3.024  0.9922  1.1697 -1.4331
 1932TIP3    H227288   1.347   3.607   3.154 -0.1755 -2.5840  1.0561
 1933TIP3   OH227289   3.773   0.697  10.787  0.5485 -0.5042  0.1502
 1933TIP3    H127290   3.828   0.758  10.738  1.0333 -1.3020 -0.3126
 1933TIP3    H227291   3.821   0.615  10.786 -0.0208 -0.8573  0.9133
 1934TIP3   OH227292   4.424   4.719   2.500 -0.5840 -0.2212  0.2175
 1934TIP3    H127293   4.485   4.665   2.550  0.1719 -1.2741 -1.7299
 1934TIP3    H227294   4.439   4.808   2.532  1.0668 -0.6286  0.6773
 1935TIP3   OH227295   3.505   2.234   1.136  0.2408  0.0108  0.1889
 1935TIP3    H127296   3.420   2.193   1.125 -0.2838  1.1326 -0.0574
 1935TIP3    H227297   3.561   2.191   1.070 -1.4898  2.8595 -3.5304
 1936TIP3   OH227298   1.537   0.009  16.056  0.6190 -0.4192 -0.1215
 1936TIP3    H127299   1.608  -0.023  16.110  0.9974  1.5184  0.5861
 1936TIP3    H227300   1.473   0.044  16.118 -0.6250 -1.4039 -0.7837
 1937TIP3   OH227301   0.167   3.336   1.245 -0.0206  0.4059  0.1394
 1937TIP3    H127302   0.213   3.323   1.328 -0.3749 -0.1024  0.2658
 1937TIP3    H227303   0.212   3.277   1.183 -1.0844 -0.8444  0.4998
 1938TIP3   OH227304   5.090   1.691   0.887 -0.4094 -0.9792 -0.4591
 1938TIP3    H127305   5.110   1.597   0.886  0.9372 -0.7371  0.8788
 1938TIP3    H227306   5.109   1.718   0.977  0.5518  0.8606 -1.1813
 1939TIP3   OH227307   0.005   2.232   5.415 -0.5698 -0.1157  0.1809
 1939TIP3    H127308  -0.004   2.260   5.506  0.6849  0.3263  0.1884
 1939TIP3    H227309  -0.084   2.215   5.386 -1.1182  1.1623  1.0457
 1940TIP3   OH227310   4.608   4.900   4.943 -0.2382 -0.0783  0.1902
 1940TIP3    H127311   4.577   4.912   5.033  0.7741  1.6950  0.3490
 1940TIP3    H227312   4.536   4.932   4.889 -0.7353 -0.8805  0.3597
 1941TIP3   OH227313   2.492   5.337  13.116  0.0482 -0.3053 -0.1892
 1941TIP3    H127314   2.515   5.359  13.026  0.8593 -0.8997 -0.1448
 1941TIP3    H227315   2.399   5.314  13.113  0.1082 -0.4746 -0.9058
 1942TIP3   OH227316   4.453   4.934   4.302  0.0767 -1.0176 -0.0281
 1942TIP3    H127317   4.431   4.928   4.209 -0.3480 -1.9605  0.1336
 1942TIP3    H227318   4.471   5.027   4.315  0.7074 -0.9524 -1.1789
 1943TIP3   OH227319   4.184   1.351   0.017  0.2483  0.1638 -0.6982
 1943TIP3    H127320   4.173   1.443  -0.004  0.5351  0.2249 -0.5931
 1943TIP3    H227321   4.279   1.338   0.019  0.2161 -0.0258 -0.2571
 1944TIP3   OH227322   1.627   1.633   3.766  0.1143 -0.1161  0.1424
 1944TIP3    H127323   1.610   1.544   3.797  0.3484  0.1218  0.9716
 1944TIP3    H227324   1.721   1.635   3.750  0.4817  0.5535  2.0787
 1945TIP3   OH227325   6.574   6.029   2.481 -0.3278 -0.1959  0.1295
 1945TIP3    H127326   6.593   5.936   2.471  0.7205  0.1645 -1.6804
 1945TIP3    H227327   6.480   6.036   2.464 -0.8087 -1.1131  2.1129
 1946TIP3   OH227328   1.175   0.973  16.500  0.1355  0.4599 -0.3377
 1946TIP3    H127329   1.173   0.960  16.594 -2.4076 -0.7257 -0.4666
 1946TIP3    H227330   1.126   1.054  16.485 -1.9704 -0.8021 -0.7219
 1947TIP3   OH227331   3.629   6.214   2.442  0.4833  0.3562 -0.3958
 1947TIP3    H127332   3.606   6.127   2.475 -1.6032  0.9035 -0.3243
 1947TIP3    H227333   3.638   6.202   2.347  1.8548 -0.2396 -0.2212
 1948TIP3   OH227334   2.903   2.827  15.842  0.2310 -0.6233  0.0022
 1948TIP3    H127335   2.821   2.867  15.870  0.2290 -0.3468 -0.3831
 1948TIP3    H227336   2.944   2.797  15.923 -0.7475 -1.7528  0.1168
 1949TIP3   OH227337   1.796   1.071  16.928  0.1370  0.3022 -0.6498
 1949TIP3    H127338   1.805   1.063  17.023 -0.1098 -1.5314 -0.7598
 1949TIP3    H227339   1.701   1.066  16.912  0.2965 -3.9725 -1.2710
 1950TIP3   OH227340   5.382   1.428   1.087  0.0649 -0.3090 -0.7303
 1950TIP3    H127341   5.427   1.512   1.095 -1.0737  0.5350 -2.4540
 1950TIP3    H227342   5.452   1.363   1.088  1.2344  0.8496 -1.9617
 1951TIP3   OH227343   0.105   6.735  12.574 -0.4900  0.1769 -0.2164
 1951TIP3    H127344   0.200   6.731  12.568 -0.4977  0.0298 -0.2392
 1951TIP3    H227345   0.087   6.820  12.616 -0.2321 -0.8261  2.0966
 1952TIP3   OH227346   5.577   4.895   1.569 -0.3645 -0.2188  0.2880
 1952TIP3    H127347   5.595   4.907   1.475 -0.3553 -1.3996  0.1262
 1952TIP3    H227348   5.492   4.937   1.582 -0.1243  0.4183 -0.1344
 1953TIP3   OH227349   0.825   4.354   5.697  0.2659  0.3646 -0.6544
 1953TIP3    H127350   0.887   4.418   5.662 -0.5457  0.3809 -2.1081
 1953TIP3    H227351   0.793   4.307   5.620 -0.4925 -0.5934  0.2181
 1954TIP3   OH227352   4.416   1.796   3.488  0.3981 -0.2748 -0.6333
 1954TIP3    H127353   4.427   1.708   3.452  0.9746 -0.7556  0.6755
 1954TIP3    H227354   4.418   1.854   3.411  0.8920 -1.3182 -1.4258
 1955TIP3   OH227355   3.250   1.122  16.546 -0.5966 -0.0666 -0.1936
 1955TIP3    H127356   3.263   1.115  16.641  0.4891 -0.0613 -0.3339
 1955TIP3    H227357   3.186   1.193  16.536  0.9943  1.5132  0.4430
 1956TIP3   OH227358   2.512   4.571  14.391  0.0361  0.2887  0.4757
 1956TIP3    H127359   2.564   4.638  14.346  0.2601 -0.0878  0.1568
 1956TIP3    H227360   2.452   4.539  14.324  0.6971 -0.6168  0.2887
 1957TIP3   OH227361   0.136   4.424   6.048  0.5926  0.0446  0.3576
 1957TIP3    H127362   0.057   4.460   6.007  0.4202 -0.5485  0.1446
 1957TIP3    H227363   0.162   4.489   6.113 -1.1290 -0.5527  1.7244
 1958TIP3   OH227364   0.061   3.699   6.519 -0.4097  0.0705 -0.2941
 1958TIP3    H127365   0.109   3.616   6.524 -0.6545 -0.0565 -0.0339
 1958TIP3    H227366   0.109   3.757   6.578 -0.9945 -0.2685  0.5211
 1959TIP3   OH227367   4.089   2.474  17.109  0.0375  0.1211 -0.5512
 1959TIP3    H127368   4.022   2.520  17.160  0.2552 -1.1775  0.9881
 1959TIP3    H227369   4.041   2.428  17.041 -0.7140 -1.0235  0.7099
 1960TIP3   OH227370   1.976   5.520   1.963 -0.0380 -0.1642 -0.0449
 1960TIP3    H127371   2.013   5.489   1.880 -1.0857 -1.5950 -0.0133
 1960TIP3    H227372   1.890   5.555   1.940 -0.3841 -0.6764  0.4412
 1961TIP3   OH227373   2.758   1.768   0.251  0.0417 -0.1671  0.2808
 1961TIP3    H127374   2.741   1.855   0.214  0.1775  1.1969  3.1303
 1961TIP3    H227375   2.678   1.719   0.235 -1.3299  1.5856  1.4068
 1962TIP3   OH227376   6.686   2.305  13.699 -0.0061  0.0890  0.5570
 1962TIP3    H127377   6.689   2.250  13.777  2.6028 -0.7822 -0.0600
 1962TIP3    H227378   6.629   2.256  13.638  1.5332 -1.5683  0.3540
 1963TIP3   OH227379   0.970   0.902   6.189 -0.0673  0.1786 -0.1375
 1963TIP3    H127380   1.022   0.923   6.111  0.1749 -1.0285 -0.3134
 1963TIP3    H227381   1.027   0.848   6.243 -1.0109 -0.9131 -0.1881
 1964TIP3   OH227382   2.734   6.231   1.054 -0.0801 -0.3207 -0.0059
 1964TIP3    H127383   2.751   6.239   1.148 -0.6804  0.5815  0.0255
 1964TIP3    H227384   2.649   6.187   1.048  0.3414 -1.1496 -0.1469
 1965TIP3   OH227385   1.373   4.182  13.925 -0.2097 -0.6366  0.2994
 1965TIP3    H127386   1.341   4.273  13.926 -0.2773 -0.5513 -2.4661
 1965TIP3    H227387   1.296   4.130  13.950 -0.5275 -0.0172  0.6563
 1966TIP3   OH227388   5.768   0.982   4.678  0.0418 -0.4981  0.1302
 1966TIP3    H127389   5.702   1.048   4.658  1.5411  0.9528 -0.2206
 1966TIP3    H227390   5.807   0.960   4.593 -1.7820 -3.4449 -0.1012
 1967TIP3   OH227391   1.574   4.567   2.050 -0.0488  0.0918 -0.0494
 1967TIP3    H127392   1.562   4.544   1.958 -0.5698  0.4715 -0.0801
 1967TIP3    H227393   1.492   4.608   2.076  0.4306  0.8460  0.3276
 1968TIP3   OH227394   2.701   5.255   4.607  0.3651 -0.5560 -0.0403
 1968TIP3    H127395   2.659   5.226   4.688 -1.3925  0.7821 -0.4284
 1968TIP3    H227396   2.648   5.215   4.538  2.6033 -2.7627 -0.6219
 1969TIP3   OH227397   6.737   4.755  16.960 -0.1151  0.4181  0.2086
 1969TIP3    H127398   6.818   4.803  16.975 -0.5637  0.7625  1.6406
 1969TIP3    H227399   6.675   4.822  16.932  0.0132  0.1863 -0.6820
 1970TIP3   OH227400   2.337   4.252   3.919 -0.2239  0.4957 -0.0646
 1970TIP3    H127401   2.364   4.254   3.827 -0.2430 -1.4921 -0.1519
 1970TIP3    H227402   2.339   4.160   3.942 -0.3827  0.9545  1.9045
 1971TIP3   OH227403   2.766   2.311   1.647  0.5164  0.7770  0.4680
 1971TIP3    H127404   2.676   2.313   1.681 -0.2868 -1.9916 -1.1635
 1971TIP3    H227405   2.770   2.384   1.586 -0.8934  0.5550  0.0680
 1972TIP3   OH227406   5.826   4.230   1.534  0.0407 -0.2285  0.2527
 1972TIP3    H127407   5.752   4.218   1.474  0.7319  0.7518 -0.8475
 1972TIP3    H227408   5.902   4.241   1.477  1.2046 -2.0030  1.3677
 1973TIP3   OH227409   1.305   6.195  16.004  0.5466  0.1487  0.2218
 1973TIP3    H127410   1.288   6.117  15.952  0.3963  0.7989 -0.7246
 1973TIP3    H227411   1.246   6.261  15.969 -0.5419  0.2534  2.0989
 1974TIP3   OH227412   0.089   4.575   3.181 -0.0193 -0.0817 -0.0766
 1974TIP3    H127413   0.055   4.517   3.250 -2.0625 -0.2933 -1.1821
 1974TIP3    H227414   0.159   4.525   3.141  0.0254 -0.6789  0.7097
 1975TIP3   OH227415   1.279   4.120  16.027 -0.5515  0.4958 -0.4126
 1975TIP3    H127416   1.319   4.103  15.941  0.6764  1.7906 -0.1325
 1975TIP3    H227417   1.203   4.062  16.030 -0.5306  0.3125 -2.3100
 1976TIP3   OH227418   0.545   2.310   0.224 -0.4506 -0.3525  0.4560
 1976TIP3    H127419   0.465   2.305   0.171 -2.5941 -1.7173  3.5200
 1976TIP3    H227420   0.600   2.239   0.191 -0.6890  0.2138 -1.3122
 1977TIP3   OH227421   6.140   2.841   2.736  0.0341 -0.0817  0.1446
 1977TIP3    H127422   6.226   2.827   2.775  0.0060  0.8442  0.5723
 1977TIP3    H227423   6.082   2.781   2.783  0.3378 -0.2694  0.2791
 1978TIP3   OH227424   4.371   5.590  16.560 -0.2791 -0.6056  0.2792
 1978TIP3    H127425   4.427   5.625  16.629 -0.4768 -0.6153  0.4451
 1978TIP3    H227426   4.407   5.503  16.541 -1.3578 -1.4018  1.7030
 1979TIP3   OH227427   1.244   3.541  16.199  0.0287  0.5181 -0.4051
 1979TIP3    H127428   1.241   3.471  16.264  0.4089  0.0573 -0.8738
 1979TIP3    H227429   1.282   3.616  16.245 -1.5262  0.8305  0.4633
 1980TIP3   OH227430   5.585   4.578   0.655  0.5530 -0.5210 -0.1872
 1980TIP3    H127431   5.562   4.664   0.619  0.6631 -1.2367 -2.0887
 1980TIP3    H227432   5.504   4.546   0.694  0.1455 -0.1175 -0.6903
 1981TIP3   OH227433   1.260   3.199   3.969 -0.8432  0.2724 -0.1378
 1981TIP3    H127434   1.344   3.173   3.930 -1.5524  0.1809 -1.6976
 1981TIP3    H227435   1.200   3.129   3.944 -0.9299 -0.9700  3.0524
 1982TIP3   OH227436   3.898   0.659   1.850  0.1404  0.0133  0.9649
 1982TIP3    H127437   3.860   0.588   1.902  1.3618 -0.3228  1.4350
 1982TIP3    H227438   3.854   0.653   1.765 -1.3070  0.0640  1.6750
 1983TIP3   OH227439   1.421   0.666  13.528 -0.5895 -0.0553  0.0931
 1983TIP3    H127440   1.348   0.708  13.483  0.0775  0.9506 -0.0697
 1983TIP3    H227441   1.436   0.721  13.605  0.6093  0.2995 -0.3790
 1984TIP3   OH227442   1.755   5.154   4.384  0.0790  0.6143 -0.1633
 1984TIP3    H127443   1.811   5.077   4.376 -1.2019 -0.1898 -2.5475
 1984TIP3    H227444   1.681   5.125   4.438  0.5814  0.8329  0.6587
 1985TIP3   OH227445   4.039   0.983   3.625 -1.0761  0.0801  1.0621
 1985TIP3    H127446   4.105   0.937   3.574  1.4882  1.5890  2.7792
 1985TIP3    H227447   4.081   1.066   3.650 -4.1774  1.7999  1.0633
 1986TIP3   OH227448   1.906   4.768  12.496 -0.2422 -0.0250  0.2827
 1986TIP3    H127449   1.944   4.686  12.466 -1.4948 -0.8591  0.9208
 1986TIP3    H227450   1.911   4.826  12.420  0.4119 -0.7643 -0.2512
 1987TIP3   OH227451   2.249   1.154  14.760 -0.3650  0.5631 -0.4941
 1987TIP3    H127452   2.163   1.127  14.790  0.4353  0.0751  1.5146
 1987TIP3    H227453   2.309   1.127  14.830  1.2573  2.0604 -1.2218
 1988TIP3   OH227454   4.843   1.995  11.230  0.1616 -0.3950  0.0180
 1988TIP3    H127455   4.781   2.067  11.218 -0.6108 -1.0093  0.2102
 1988TIP3    H227456   4.880   2.009  11.317  0.3418  0.0080 -0.1217
 1989TIP3   OH227457   0.696   4.954  14.842  0.4612  0.2423 -0.2875
 1989TIP3    H127458   0.650   5.038  14.855 -2.3449 -0.8566 -2.0688
 1989TIP3    H227459   0.661   4.897  14.911 -0.5400 -0.4475 -1.3224
 1990TIP3   OH227460   6.261   2.712  14.780  0.0713  0.6651 -0.0445
 1990TIP3    H127461   6.278   2.634  14.833 -1.5934  1.3102  1.5139
 1990TIP3    H227462   6.319   2.701  14.704 -1.1252 -2.8351 -0.6610
 1991TIP3   OH227463   0.907   5.643   0.024 -0.1073 -0.0942  0.1401
 1991TIP3    H127464   0.980   5.670  -0.032 -1.1897  1.4903 -0.6060
 1991TIP3    H227465   0.838   5.707   0.005 -1.4242 -1.0793  1.3831
 1992TIP3   OH227466   1.350   0.593   4.685  0.2697 -0.0089 -0.1974
 1992TIP3    H127467   1.406   0.538   4.628  0.1487 -0.4873  0.1403
 1992TIP3    H227468   1.410   0.625   4.752  0.7827  1.9097 -1.5011
 1993TIP3   OH227469   5.358   2.781  12.108  0.3111 -0.2468 -0.0305
 1993TIP3    H127470   5.377   2.731  12.187  0.3107  0.2119  0.2623
 1993TIP3    H227471   5.263   2.776  12.099  0.3891 -1.0586 -0.5135
 1994TIP3   OH227472   2.566   2.926  13.250 -0.0807  0.5206  0.2968
 1994TIP3    H127473   2.652   2.915  13.291 -0.0535  1.7067  0.6092
 1994TIP3    H227474   2.504   2.908  13.320 -0.0751  0.3505  0.2581
 1995TIP3   OH227475   5.119   2.214  14.178  0.6042  0.6233  0.7010
 1995TIP3    H127476   5.205   2.173  14.171  0.4938  0.5618 -0.5672
 1995TIP3    H227477   5.116   2.275  14.104 -0.6263  0.2563  0.4347
 1996TIP3   OH227478   6.728   5.109   4.367 -0.1407  0.1357 -0.5879
 1996TIP3    H127479   6.820   5.118   4.394 -0.5706  0.1101  0.9663
 1996TIP3    H227480   6.724   5.151   4.281  1.0089  1.5037 -0.0109
 1997TIP3   OH227481   1.957   2.092   3.761 -0.1817  0.7316  0.4574
 1997TIP3    H127482   1.940   2.073   3.669  0.0191  2.1852  0.0954
 1997TIP3    H227483   1.873   2.075   3.805 -0.8658  1.9469 -0.3283
 1998TIP3   OH227484   1.243   5.789  12.177 -0.4871 -0.7328 -0.5944
 1998TIP3    H127485   1.323   5.838  12.198 -1.9097  1.7404 -0.5562
 1998TIP3    H227486   1.213   5.755  12.261 -1.5322  1.7226  0.0855
 1999TIP3   OH227487   1.632   1.496  14.254 -0.6211 -0.0413  0.1904
 1999TIP3    H127488   1.699   1.491  14.322 -1.8288 -1.5245  1.3505
 1999TIP3    H227489   1.663   1.564  14.194  2.0268 -0.8556  0.5277
 2000TIP3   OH227490   5.914   4.161   2.151  0.0998 -0.3513 -0.0043
 2000TIP3    H127491   5.983   4.176   2.087 -0.6209 -1.3053 -1.0395
 2000TIP3    H227492   5.949   4.198   2.233  1.7969 -0.7453 -0.5072
 2001TIP3   OH227493   3.891   4.625  11.008  0.3246 -0.0713 -0.4116
 2001TIP3    H127494   3.892   4.603  11.101 -0.9169 -0.9504 -0.5802
 2001TIP3    H227495   3.906   4.542  10.963 -2.2612 -0.3203 -1.0174
 2002TIP3   OH227496   2.845   5.571   0.697 -0.0265 -0.6423  0.6457
 2002TIP3    H127497   2.827   5.539   0.785 -0.2052  0.1317  0.8961
 2002TIP3    H227498   2.759   5.579   0.656  0.0524 -0.9549  0.4161
 2003TIP3   OH227499   2.934   2.572  11.432  0.2059 -0.0004  0.0159
 2003TIP3    H127500   2.941   2.554  11.339 -2.0553 -2.7612  0.2341
 2003TIP3    H227501   2.841   2.590  11.447  0.3671 -0.4121  1.8232
 2004TIP3   OH227502   5.209   5.982  11.915  0.4090  0.5481 -0.9717
 2004TIP3    H127503   5.299   5.967  11.945 -0.4260 -2.6038  0.4283
 2004TIP3    H227504   5.200   5.926  11.837 -1.4684 -3.0694  1.5429
 2005TIP3   OH227505   1.839   5.769  15.954 -0.0899 -0.0643 -0.0329
 2005TIP3    H127506   1.872   5.730  15.873 -0.2460 -0.2870  0.0118
 2005TIP3    H227507   1.839   5.697  16.017 -0.5059 -0.0283  0.0120
 2006TIP3   OH227508   2.283   4.410  15.710  0.0919 -0.0643  0.4757
 2006TIP3    H127509   2.350   4.468  15.674  0.1513 -0.6291 -0.3450
 2006TIP3    H227510   2.204   4.430  15.660  0.0147 -0.4118  0.4555
 2007TIP3   OH227511   1.860   2.965  10.470 -0.0160  0.7143  0.7348
 2007TIP3    H127512   1.877   2.930  10.558  0.8193 -2.5193 -0.5774
 2007TIP3    H227513   1.946   2.968  10.429 -0.7170 -0.8338 -0.9510
 2008TIP3   OH227514   6.417   6.617   0.776 -0.3454 -0.5406 -0.0309
 2008TIP3    H127515   6.391   6.709   0.774 -1.1277 -0.7455  0.2992
 2008TIP3    H227516   6.498   6.613   0.724 -0.3657  0.3088 -0.1324
 2009TIP3   OH227517   4.069   4.491   1.961 -0.2025  0.0796 -0.0686
 2009TIP3    H127518   4.150   4.460   2.001 -0.7858  0.6724  1.6779
 2009TIP3    H227519   4.096   4.531   1.879  1.3573  0.8702  0.7915
 2010TIP3   OH227520   4.840   0.051   2.159 -0.2091  0.2636  0.3524
 2010TIP3    H127521   4.835   0.120   2.093  0.8043 -0.9340 -1.0509
 2010TIP3    H227522   4.932   0.045   2.182 -0.3629 -0.2359  0.8670
 2011TIP3   OH227523   1.071   2.656   2.071  0.1753 -0.1211 -0.3441
 2011TIP3    H127524   1.025   2.628   1.992 -0.2317  0.0718 -0.1781
 2011TIP3    H227525   1.038   2.744   2.088 -0.0900 -0.3454  0.3066
 2012TIP3   OH227526   2.924   5.429  11.109  0.6274 -0.0574 -0.1884
 2012TIP3    H127527   2.951   5.401  11.197 -0.7608  0.6897  0.5175
 2012TIP3    H227528   2.857   5.366  11.084 -0.9758  1.2960  0.5054
 2013TIP3   OH227529   5.270   0.605   3.325 -0.4373  0.0044 -0.3417
 2013TIP3    H127530   5.239   0.658   3.252 -2.0826  0.2696  0.4966
 2013TIP3    H227531   5.319   0.665   3.380 -0.5753  0.1826 -0.4139
 2014TIP3   OH227532   0.580   5.635  12.164  1.0028  0.4454 -0.4028
 2014TIP3    H127533   0.548   5.722  12.142  1.3224  0.5440 -0.4878
 2014TIP3    H227534   0.674   5.647  12.181  0.9952  0.1682 -0.1381
 2015TIP3   OH227535   1.364   2.420   5.385  0.1177  0.1818  0.0670
 2015TIP3    H127536   1.285   2.428   5.331  2.1388  1.4684 -2.9094
 2015TIP3    H227537   1.401   2.508   5.388  2.1345 -0.6247  0.3144
 2016TIP3   OH227538   4.378   3.341   2.476  0.0556  0.3145  0.6629
 2016TIP3    H127539   4.295   3.309   2.511  0.5995  0.5077  2.2160
 2016TIP3    H227540   4.431   3.263   2.464 -0.7795  0.0227 -1.7086
 2017TIP3   OH227541   4.818   0.894   4.322  0.0358 -0.7103 -0.1213
 2017TIP3    H127542   4.857   0.982   4.324 -0.1841 -0.3888 -3.7470
 2017TIP3    H227543   4.740   0.902   4.377  0.4911  1.0903  0.3449
 2018TIP3   OH227544   2.319   4.037   4.428  0.4743  0.0186  0.2239
 2018TIP3    H127545   2.293   4.052   4.337  0.4081 -0.6916  0.1238
 2018TIP3    H227546   2.249   4.076   4.480 -0.0995 -0.6425 -0.0369
 2019TIP3   OH227547   3.813   1.387  13.172  0.0306  0.4543 -0.1174
 2019TIP3    H127548   3.878   1.369  13.105 -0.3671  2.6189 -1.1547
 2019TIP3    H227549   3.836   1.474  13.205 -0.7174  0.0878  1.4806
 2020TIP3   OH227550   4.285   6.120  16.394  1.1823 -0.0657  1.1075
 2020TIP3    H127551   4.315   6.163  16.474  3.4930  2.0663 -0.7410
 2020TIP3    H227552   4.281   6.190  16.329 -2.6697 -1.2846 -0.2768
 2021TIP3   OH227553   1.102   4.387   2.146  0.1110  0.5168 -0.2532
 2021TIP3    H127554   1.155   4.356   2.220  0.7693 -3.2905 -2.0692
 2021TIP3    H227555   1.152   4.461   2.110  0.4487  1.5708  2.2011
 2022TIP3   OH227556   2.424   2.432  15.893  0.1079 -0.3565  0.2482
 2022TIP3    H127557   2.413   2.466  15.804 -1.4293  1.2520  1.0031
 2022TIP3    H227558   2.339   2.396  15.915  1.0857 -2.7804  0.3214
 2023TIP3   OH227559   0.547   1.693  11.556 -0.0651  0.1925  0.1433
 2023TIP3    H127560   0.576   1.784  11.570  1.3706  0.3574 -3.1146
 2023TIP3    H227561   0.458   1.702  11.521 -0.0952  0.3207  0.2515
 2024TIP3   OH227562   2.207   5.598  15.585  1.0547  0.0859  0.1943
 2024TIP3    H127563   2.245   5.511  15.575 -0.9434 -1.3023  3.2136
 2024TIP3    H227564   2.154   5.611  15.507  1.8525 -1.0888 -0.5756
 2025TIP3   OH227565   5.956   6.718   4.489  0.5412 -0.5907 -0.6592
 2025TIP3    H127566   6.015   6.789   4.467  1.5121 -1.3490 -0.5618
 2025TIP3    H227567   5.909   6.748   4.567 -1.1987  1.1297 -2.2465
 2026TIP3   OH227568   4.083   4.472   5.584  0.1036 -0.0759  0.1174
 2026TIP3    H127569   4.074   4.479   5.679 -0.2486  1.0743  0.0234
 2026TIP3    H227570   4.025   4.401   5.559 -0.6339  0.3228  0.6590
 2027TIP3   OH227571   4.878   2.845  16.240  1.0156 -0.8129  0.0265
 2027TIP3    H127572   4.835   2.778  16.293  0.2953 -2.7455 -2.7497
 2027TIP3    H227573   4.964   2.808  16.219  1.0774 -0.3566 -0.5693
 2028TIP3   OH227574   4.203   0.101   0.846  0.1997  0.3379  0.3078
 2028TIP3    H127575   4.162   0.142   0.770  0.1935 -0.1710  0.0261
 2028TIP3    H227576   4.141   0.115   0.917  0.8980  2.1350  0.5841
 2029TIP3   OH227577   6.571   5.486   1.841  0.2832 -0.4395 -0.4119
 2029TIP3    H127578   6.547   5.399   1.810  0.2548 -0.7084  0.3495
 2029TIP3    H227579   6.611   5.471   1.926  1.2436  0.1946 -0.7314
 2030TIP3   OH227580   1.607   4.942  17.051 -0.1871  0.8130 -0.0622
 2030TIP3    H127581   1.660   5.021  17.061 -0.2073  0.6549  1.8103
 2030TIP3    H227582   1.553   4.959  16.974  0.7733  2.0357 -0.5172
 2031TIP3   OH227583   1.877   2.568   0.426  0.5097  0.5547 -0.1239
 2031TIP3    H127584   1.827   2.490   0.447  2.8011 -1.0810 -0.3601
 2031TIP3    H227585   1.819   2.620   0.371 -0.9641 -1.1163 -0.2374
 2032TIP3   OH227586   5.285   4.166   3.568  0.0856 -0.0426  0.0653
 2032TIP3    H127587   5.207   4.151   3.622  1.5030 -0.4422  2.1079
 2032TIP3    H227588   5.299   4.261   3.572  0.2549 -0.0845  0.5223
 2033TIP3   OH227589   1.362   5.304  14.122  0.1891  0.0466  0.0910
 2033TIP3    H127590   1.342   5.291  14.215 -1.9865  0.9090 -0.1947
 2033TIP3    H227591   1.420   5.380  14.121  1.4060 -0.8309  0.7980
 2034TIP3   OH227592   1.360   0.974  16.103  0.0128  0.1405  0.3235
 2034TIP3    H127593   1.353   0.961  16.197  0.9975 -2.6123  0.0953
 2034TIP3    H227594   1.451   1.000  16.088  0.5388 -1.7378 -0.0087
 2035TIP3   OH227595   1.671   4.222   4.140 -0.2606  0.2427  0.2705
 2035TIP3    H127596   1.764   4.210   4.122  0.1085  2.0843  0.7233
 2035TIP3    H227597   1.666   4.229   4.236 -0.8240  0.4014  0.2346
 2036TIP3   OH227598   3.494   6.436  13.059  0.2555  0.4339 -0.1932
 2036TIP3    H127599   3.456   6.412  12.974 -0.8267  1.1480  0.0776
 2036TIP3    H227600   3.577   6.388  13.062 -0.5335 -1.0424 -0.8628
 2037TIP3   OH227601   5.193   5.551   0.682  0.6398  0.0791 -0.4069
 2037TIP3    H127602   5.160   5.575   0.769 -0.4188  1.0985 -1.0717
 2037TIP3    H227603   5.271   5.606   0.670  1.1541 -0.5092  0.1285
 2038TIP3   OH227604   3.497   1.520  15.822  0.0188  0.1708  0.2160
 2038TIP3    H127605   3.534   1.527  15.734  0.0320  2.9019  0.3494
 2038TIP3    H227606   3.425   1.584  15.822 -0.7533 -0.6584  1.8215
 2039TIP3   OH227607   0.135   5.437  12.840  0.4058  0.8301 -0.1956
 2039TIP3    H127608   0.109   5.480  12.759 -0.2237 -0.1082 -0.5185
 2039TIP3    H227609   0.191   5.365  12.812 -0.6419 -0.1345  0.0896
 2040TIP3   OH227610   3.534   3.461   5.750 -0.7076  0.2272  0.4890
 2040TIP3    H127611   3.456   3.414   5.777 -1.7209  0.9046 -1.1073
 2040TIP3    H227612   3.579   3.401   5.690 -0.8059  0.4238  0.2181
 2041TIP3   OH227613   0.849   1.374   2.056  0.5298 -0.1399 -0.4356
 2041TIP3    H127614   0.938   1.408   2.060  1.4446 -2.4122  0.3991
 2041TIP3    H227615   0.795   1.444   2.091  2.1894  0.6891  0.6054
 2042TIP3   OH227616   5.794   4.419   0.761  0.6876 -0.0799  0.3275
 2042TIP3    H127617   5.720   4.479   0.751  0.4136 -0.3659  0.6255
 2042TIP3    H227618   5.825   4.434   0.850 -0.7842 -1.9465  1.2251
 2043TIP3   OH227619   0.788   2.960   4.457  0.8351 -0.1672  0.0817
 2043TIP3    H127620   0.808   3.048   4.426  0.0406 -0.3016 -0.8531
 2043TIP3    H227621   0.776   2.908   4.377  0.7539 -1.0023  0.6186
 2044TIP3   OH227622   2.540   1.999   6.178  0.0930  0.2009 -0.3803
 2044TIP3    H127623   2.550   1.932   6.245  1.2211 -0.8049 -1.4945
 2044TIP3    H227624   2.486   1.958   6.111 -0.5700  1.0007 -0.3552
 2045TIP3   OH227625   5.120   0.448   0.606  0.2020 -0.0972 -0.2217
 2045TIP3    H127626   5.059   0.482   0.540  0.9185  0.9770 -0.3590
 2045TIP3    H227627   5.066   0.392   0.662 -0.1886 -2.1958 -2.4883
 2046TIP3   OH227628   4.324   1.057   4.680  0.7379 -0.9720 -0.2483
 2046TIP3    H127629   4.299   1.146   4.704  1.4958 -0.2109 -2.1222
 2046TIP3    H227630   4.242   1.007   4.683 -0.2950  0.5010 -2.1729
 2047TIP3   OH227631   4.144   2.190   1.606  0.0480  0.1305 -0.4582
 2047TIP3    H127632   4.187   2.251   1.667  0.1023 -0.3962  0.0396
 2047TIP3    H227633   4.216   2.138   1.570 -0.0573 -0.0188 -0.4538
 2048TIP3   OH227634   1.012   0.761   0.502 -0.1260 -0.4369  0.4099
 2048TIP3    H127635   1.059   0.823   0.557  0.2818 -0.2697 -0.1236
 2048TIP3    H227636   1.078   0.726   0.441 -0.7927  0.2906 -0.7805
 2049TIP3   OH227637   1.125   5.411  16.303  0.1091 -0.6158 -0.2697
 2049TIP3    H127638   1.206   5.359  16.304  0.2996 -0.3192  0.2618
 2049TIP3    H227639   1.085   5.393  16.388 -1.2886 -2.1305 -1.1860
 2050TIP3   OH227640   2.343   5.544   2.677 -0.4978  0.0301  0.4143
 2050TIP3    H127641   2.398   5.513   2.749  0.6061 -0.2365 -0.5207
 2050TIP3    H227642   2.324   5.635   2.699 -0.3963 -0.1249  1.1654
 2051TIP3   OH227643   0.241   1.663   3.799 -0.0007  0.7515 -0.1822
 2051TIP3    H127644   0.251   1.735   3.861 -2.3166 -0.9064  2.3290
 2051TIP3    H227645   0.149   1.638   3.805 -0.2185  0.0355 -3.9159
 2052TIP3   OH227646   1.875   2.314  13.608 -0.5241 -0.3487 -0.3811
 2052TIP3    H127647   1.910   2.317  13.697 -0.2061  2.1544 -0.5333
 2052TIP3    H227648   1.925   2.244  13.565  1.9393  0.8377  0.3923
 2053TIP3   OH227649   6.319   2.344  11.163 -0.1925  0.9114 -0.2323
 2053TIP3    H127650   6.319   2.420  11.222 -1.6653  0.9016 -0.1706
 2053TIP3    H227651   6.278   2.377  11.082  1.1293  0.7285 -0.9974
 2054TIP3   OH227652   3.773   4.330   4.144  0.3236  0.1212  0.0969
 2054TIP3    H127653   3.792   4.242   4.178 -1.2034 -0.4116 -0.3179
 2054TIP3    H227654   3.794   4.388   4.217  0.5928 -0.6631  0.6671
 2055TIP3   OH227655   1.483   6.409  16.690 -0.7027 -0.2542  0.1062
 2055TIP3    H127656   1.570   6.416  16.728 -0.3920 -1.7617 -0.2855
 2055TIP3    H227657   1.480   6.479  16.625 -1.4127  2.7208  3.0559
 2056TIP3   OH227658   4.480   1.041   5.638 -0.1762  0.0867 -0.2511
 2056TIP3    H127659   4.419   0.989   5.585  0.7736  0.6063 -1.9193
 2056TIP3    H227660   4.434   1.054   5.721 -1.4817 -1.2479 -0.7215
 2057TIP3   OH227661   3.879   0.008   0.751  0.4842 -0.0476  0.0910
 2057TIP3    H127662   3.843   0.033   0.836  0.8595 -0.6633  0.4383
 2057TIP3    H227663   3.886   0.091   0.703 -1.4652  0.0887 -0.0418
 2058TIP3   OH227664   6.574   4.252  15.857  0.1977 -0.0600 -0.2580
 2058TIP3    H127665   6.601   4.275  15.946  0.0451  0.3246 -0.3109
 2058TIP3    H227666   6.479   4.242  15.863  0.2039 -0.1738 -0.3485
 2059TIP3   OH227667   5.369   4.858   1.001 -0.2456 -0.0503  0.3755
 2059TIP3    H127668   5.382   4.863   0.907 -1.0352  1.5317  0.3221
 2059TIP3    H227669   5.295   4.916   1.019  0.2729  0.1679  2.0378
 2060TIP3   OH227670   1.578   2.757   3.344 -0.4664 -0.7593  0.1841
 2060TIP3    H127671   1.658   2.774   3.394 -1.2589  0.2372  1.1517
 2060TIP3    H227672   1.515   2.727   3.409 -0.6836 -2.3282 -0.6935
 2061TIP3   OH227673   0.472   3.395  11.751  0.4547 -0.2158  0.4336
 2061TIP3    H127674   0.510   3.395  11.663  2.3843 -0.3652  1.2123
 2061TIP3    H227675   0.424   3.478  11.757  1.0730  0.2201 -0.4504
 2062TIP3   OH227676   3.825   5.294  17.018  0.5370  0.0854 -0.8759
 2062TIP3    H127677   3.784   5.357  17.077  0.3876 -0.9128  0.1142
 2062TIP3    H227678   3.903   5.338  16.986  0.1443  0.9784 -0.6410
 2063TIP3   OH227679   0.855   3.643  14.191  0.0537  0.4728 -0.3796
 2063TIP3    H127680   0.920   3.686  14.247  0.2573  0.1357 -0.3561
 2063TIP3    H227681   0.810   3.581  14.249 -1.2797  1.7051 -0.0273
 2064TIP3   OH227682   5.872   3.907   5.736  0.0518 -0.3848  0.3565
 2064TIP3    H127683   5.927   3.984   5.731 -0.8963  0.4035  1.4344
 2064TIP3    H227684   5.897   3.854   5.661 -1.0838  2.1796 -2.0020
 2065TIP3   OH227685   5.124   2.098   5.118 -0.1637  0.3741  0.1115
 2065TIP3    H127686   5.200   2.143   5.157  0.8324 -0.3658 -0.9183
 2065TIP3    H227687   5.161   2.020   5.078 -1.2409  0.7605 -1.7542
 2066TIP3   OH227688   5.995   1.283   4.065  0.9526 -0.3054 -0.0171
 2066TIP3    H127689   5.909   1.260   4.100  0.3677  1.6615 -0.0285
 2066TIP3    H227690   6.057   1.257   4.133 -0.0113  1.8018  1.7915
 2067TIP3   OH227691   4.786   5.088  15.244 -0.2356 -0.4120  0.6072
 2067TIP3    H127692   4.871   5.066  15.283 -0.0332  1.0239  1.0573
 2067TIP3    H227693   4.773   5.022  15.176  2.1058  0.3166 -0.6962
 2068TIP3   OH227694   4.170   0.308   3.784 -0.5746  0.5020  0.2365
 2068TIP3    H127695   4.192   0.235   3.843 -1.5092  0.0283  0.0009
 2068TIP3    H227696   4.089   0.282   3.741 -0.6713  1.4799 -0.2062
 2069TIP3   OH227697   4.742   1.015  16.430 -0.3590 -0.3503 -0.0834
 2069TIP3    H127698   4.653   0.991  16.453 -0.4445 -1.0256 -1.0604
 2069TIP3    H227699   4.783   0.933  16.401  0.2862  0.1109 -0.5309
 2070TIP3   OH227700   4.124   0.241   0.473 -0.3407 -0.1296 -0.4156
 2070TIP3    H127701   4.173   0.269   0.550 -2.4020 -1.7758  1.6510
 2070TIP3    H227702   4.155   0.297   0.402  1.6655  1.4581  1.5934
 2071TIP3   OH227703   6.061   6.154   3.937 -0.3674 -0.2618  0.4903
 2071TIP3    H127704   6.152   6.180   3.922  0.1186 -0.8436  2.2406
 2071TIP3    H227705   6.017   6.173   3.854  0.8989  1.9688  0.2496
 2072TIP3   OH227706   5.855   4.563  15.413 -0.1076  0.4144  0.2714
 2072TIP3    H127707   5.923   4.630  15.409 -0.2275  0.5519  0.4975
 2072TIP3    H227708   5.879   4.509  15.488  0.5885 -0.4565 -0.5594
 2073TIP3   OH227709   6.501   2.911  11.824 -0.1427 -0.2680  0.1970
 2073TIP3    H127710   6.530   2.858  11.750  2.7100 -1.6016  2.0534
 2073TIP3    H227711   6.489   2.999  11.788  0.1166 -1.0843 -2.0217
 2074TIP3   OH227712   2.159   5.780   5.442 -0.2094  0.3549 -0.3184
 2074TIP3    H127713   2.140   5.825   5.524 -0.4310  0.6544 -0.5312
 2074TIP3    H227714   2.093   5.711   5.437  1.0619 -1.0095  0.7575
 2075TIP3   OH227715   5.812   6.826   1.237 -0.0909 -0.0110 -0.3311
 2075TIP3    H127716   5.885   6.844   1.178  0.0204  1.7284  0.2763
 2075TIP3    H227717   5.735   6.823   1.180  0.3334 -1.0481 -0.8739
 2076TIP3   OH227718   6.636   0.041  13.094  0.4800  0.2911 -0.0631
 2076TIP3    H127719   6.564   0.093  13.059  1.0392  1.9195  1.1102
 2076TIP3    H227720   6.707   0.054  13.031  0.8491  1.5931  0.5896
 2077TIP3   OH227721   4.734   4.576   3.102  0.2600 -0.3687  0.1730
 2077TIP3    H127722   4.705   4.498   3.054  0.6980  1.2373 -2.9352
 2077TIP3    H227723   4.829   4.575   3.095  0.2758  0.4063  0.1587
 2078TIP3   OH227724   3.008   0.019  11.588  0.0564  0.7804 -0.3528
 2078TIP3    H127725   3.002  -0.013  11.498 -0.9428  2.7905 -1.0565
 2078TIP3    H227726   2.940  -0.030  11.634 -0.8328  1.1938 -1.1878
 2079TIP3   OH227727   1.959   3.115   0.639  0.0184  0.4355  0.5607
 2079TIP3    H127728   1.921   3.184   0.584  0.9130  1.0224  0.6577
 2079TIP3    H227729   1.972   3.042   0.579  0.4683  0.8798  0.1113
 2080TIP3   OH227730   4.175   5.891  14.459 -0.2097 -0.4920 -0.1300
 2080TIP3    H127731   4.124   5.957  14.412  1.1850  0.3772 -0.4989
 2080TIP3    H227732   4.117   5.859  14.527 -1.2281  0.4660 -0.5204
 2081TIP3   OH227733   1.221   0.123   3.491  0.2846 -0.0146  0.3250
 2081TIP3    H127734   1.234   0.206   3.535  0.4105 -0.2808  0.7957
 2081TIP3    H227735   1.306   0.078   3.499 -0.5321 -1.3450  2.5210
 2082TIP3   OH227736   5.696   1.213  12.832  1.4456 -0.1586  0.2516
 2082TIP3    H127737   5.755   1.139  12.819  1.4136 -0.5811  2.2274
 2082TIP3    H227738   5.745   1.273  12.889  1.2712  1.1307 -0.8824
 2083TIP3   OH227739   3.704   2.595   1.962  0.1868  0.2113 -0.1914
 2083TIP3    H127740   3.697   2.687   1.936 -0.8378  0.1273 -0.2413
 2083TIP3    H227741   3.763   2.557   1.897  2.5648  1.3177  1.1824
 2084TIP3   OH227742   5.103   5.176  15.706 -0.4225 -0.0557 -0.1316
 2084TIP3    H127743   5.112   5.087  15.671  0.0056  0.3140 -0.9931
 2084TIP3    H227744   5.009   5.189  15.717 -0.5499 -0.2598 -0.9463
 2085TIP3   OH227745   2.236   1.158  12.840  0.7298  0.5515 -0.0768
 2085TIP3    H127746   2.292   1.123  12.910  0.7094  3.2644  1.4042
 2085TIP3    H227747   2.220   1.249  12.864 -1.9755  0.7078 -1.9780
 2086TIP3   OH227748   3.966   0.150  14.430  0.2927  0.5062  0.0485
 2086TIP3    H127749   3.886   0.111  14.394 -0.8561 -0.1976  3.1166
 2086TIP3    H227750   4.037   0.106  14.383 -0.8860  3.0838 -4.7950
 2087TIP3   OH227751   1.342   4.093   4.462  1.1089  0.4668  0.1426
 2087TIP3    H127752   1.371   4.183   4.443 -0.3426  0.8373 -0.4828
 2087TIP3    H227753   1.354   4.047   4.379  1.2058  0.2653  0.2694
 2088TIP3   OH227754   0.753   0.686  14.447  0.2873 -0.1028  0.5897
 2088TIP3    H127755   0.769   0.762  14.391 -1.4465 -0.6232 -0.7107
 2088TIP3    H227756   0.839   0.647  14.461  0.8499  0.3739 -1.2884
 2089TIP3   OH227757   5.003   3.610  15.435 -0.3619 -0.1548  0.1756
 2089TIP3    H127758   4.995   3.529  15.486 -1.5933 -2.1304 -2.9393
 2089TIP3    H227759   4.914   3.630  15.407  0.3486  0.4302 -1.7780
 2090TIP3   OH227760   1.712   2.426   4.514  0.2355  0.3160  0.2342
 2090TIP3    H127761   1.796   2.461   4.543  1.4802 -0.1423 -2.5251
 2090TIP3    H227762   1.721   2.331   4.522 -0.3470  0.2892  0.6762
 2091TIP3   OH227763   5.210   4.738  14.883 -0.1133 -0.0213  0.0672
 2091TIP3    H127764   5.240   4.650  14.907  0.0936  0.2875  0.9947
 2091TIP3    H227765   5.176   4.774  14.965  2.4937  1.8559  0.4369
 2092TIP3   OH227766   1.113   3.011   1.829 -0.0372  0.6000  0.4030
 2092TIP3    H127767   1.181   3.052   1.776 -0.2436  1.2423  0.6156
 2092TIP3    H227768   1.032   3.051   1.798 -0.2556  0.2730  0.5499
 2093TIP3   OH227769   5.032   4.491  13.953  0.6787 -0.1802 -0.2969
 2093TIP3    H127770   5.058   4.583  13.960  0.9160 -0.2532 -0.1897
 2093TIP3    H227771   4.980   4.475  14.031  0.1651  0.0115 -0.5945
 2094TIP3   OH227772   2.362   3.065   0.030  0.3567  0.1921 -0.2343
 2094TIP3    H127773   2.361   3.159   0.012  0.1730  0.0264 -1.1292
 2094TIP3    H227774   2.429   3.054   0.098 -0.9468  1.1975  1.2923
 2095TIP3   OH227775   6.560   2.161   0.825 -0.0790  0.2742  0.2388
 2095TIP3    H127776   6.532   2.243   0.866  0.4504  0.0864  1.0033
 2095TIP3    H227777   6.621   2.122   0.888  0.6516 -0.1016 -0.6708
 2096TIP3   OH227778   1.787   4.104   2.756 -0.1378  0.0796 -0.0234
 2096TIP3    H127779   1.795   4.137   2.846  0.4535  0.0958 -0.0811
 2096TIP3    H227780   1.692   4.094   2.743 -0.2215 -0.1071  0.6689
 2097TIP3   OH227781   3.956   2.244   2.912 -0.7997  0.4418 -0.0313
 2097TIP3    H127782   3.860   2.241   2.916 -0.8159  0.0211 -0.5646
 2097TIP3    H227783   3.984   2.208   2.996 -1.1125 -0.1334 -0.1639
 2098TIP3   OH227784   0.938   0.731   5.737  0.4424  0.5500 -0.0214
 2098TIP3    H127785   1.025   0.716   5.773  0.5538  1.8728  0.3374
 2098TIP3    H227786   0.947   0.717   5.643  1.0553  0.7136  0.0105
 2099TIP3   OH227787   3.329   5.572   3.394  0.2290 -0.6869 -0.2070
 2099TIP3    H127788   3.397   5.560   3.328 -0.0443 -0.9549 -0.4371
 2099TIP3    H227789   3.247   5.552   3.350 -0.1421  0.9214 -0.2930
 2100TIP3   OH227790   5.427   3.266  11.687 -0.1783  0.0426 -0.0522
 2100TIP3    H127791   5.448   3.304  11.602 -0.7167  2.6010  0.8459
 2100TIP3    H227792   5.364   3.327  11.725 -1.5347 -2.1189  1.3730
 2101TIP3   OH227793   3.637   3.233   3.659 -0.0596 -0.4955  0.3991
 2101TIP3    H127794   3.732   3.236   3.650 -0.1750 -0.8092 -1.4187
 2101TIP3    H227795   3.614   3.316   3.701  0.9602 -0.0844  0.1606
 2102TIP3   OH227796   1.407   3.031  15.335 -0.0214  0.2565 -0.0214
 2102TIP3    H127797   1.419   3.075  15.420  0.7287  2.4962 -1.2195
 2102TIP3    H227798   1.494   3.025  15.298 -0.5522  0.9842 -1.4334
 2103TIP3   OH227799   0.317   4.545  11.883 -0.0781  0.4393 -0.2773
 2103TIP3    H127800   0.302   4.453  11.862 -0.3225  0.2702  0.5911
 2103TIP3    H227801   0.284   4.555  11.972  0.8731  1.1286  0.0142
 2104TIP3   OH227802   6.359   6.747  15.949  0.3058 -0.0200  0.6763
 2104TIP3    H127803   6.289   6.811  15.961  0.1476 -0.0572 -0.0561
 2104TIP3    H227804   6.361   6.730  15.855  1.6734  0.4112  0.6079
 2105TIP3   OH227805   0.069   5.700   1.839  0.1235  0.2034  0.6026
 2105TIP3    H127806   0.065   5.618   1.790  2.2152 -0.4528  1.4037
 2105TIP3    H227807   0.068   5.768   1.773  1.1632 -0.5946 -0.2732
 2106TIP3   OH227808   5.169   1.535  14.398 -0.4101 -0.2048  0.1185
 2106TIP3    H127809   5.178   1.444  14.428 -1.6467 -0.3638  0.0847
 2106TIP3    H227810   5.137   1.583  14.474  1.1360  0.4159  0.3998
 2107TIP3   OH227811   0.389   1.899   4.600 -0.0220 -0.5402 -0.5103
 2107TIP3    H127812   0.480   1.927   4.606 -0.1518 -0.1532 -0.3349
 2107TIP3    H227813   0.357   1.941   4.520  0.1621 -1.2809 -0.9823
 2108TIP3   OH227814   2.912   3.009   1.990  0.2100  0.3564  0.0279
 2108TIP3    H127815   2.952   3.060   2.060  0.2755  2.2681 -1.3181
 2108TIP3    H227816   2.977   2.940   1.971  0.3163 -0.0163  1.5849
 2109TIP3   OH227817   2.191   5.076   0.323  0.1214 -0.0473  0.0919
 2109TIP3    H127818   2.110   5.074   0.374 -0.6501  2.4118 -0.8823
 2109TIP3    H227819   2.238   5.153   0.355  0.9657 -0.0917 -0.9560
 2110TIP3   OH227820   4.310   6.326  15.142 -0.0028 -0.8396  0.3721
 2110TIP3    H127821   4.321   6.232  15.159  0.7288 -0.2609  3.6689
 2110TIP3    H227822   4.384   6.348  15.084  1.1822 -1.8944  1.4292
 2111TIP3   OH227823   3.675   1.789   0.782 -0.0259 -0.2656  0.3247
 2111TIP3    H127824   3.713   1.873   0.757 -0.3188 -0.1720  0.1867
 2111TIP3    H227825   3.727   1.724   0.736 -1.0601 -0.0650 -1.2097
 2112TIP3   OH227826   3.046   1.373  15.650 -0.0707 -0.4754 -0.1070
 2112TIP3    H127827   3.136   1.378  15.681 -0.2613  0.7942  0.3279
 2112TIP3    H227828   3.010   1.295  15.691  0.6928 -0.7279  0.0964
 2113TIP3   OH227829   1.317   2.820   4.736 -0.0222  0.2230  0.9306
 2113TIP3    H127830   1.288   2.750   4.676  0.5231 -0.7383  1.7565
 2113TIP3    H227831   1.266   2.806   4.816  0.1236  0.7556  1.1217
 2114TIP3   OH227832   5.833   5.967   5.931 -0.0665  0.1995 -0.1705
 2114TIP3    H127833   5.786   6.021   5.868  1.5282  0.2091 -1.4096
 2114TIP3    H227834   5.907   6.020   5.959 -0.0638 -0.2818  0.7866
 2115TIP3   OH227835   5.357   2.902   1.354  0.2172  0.6498 -0.3486
 2115TIP3    H127836   5.380   2.818   1.316 -0.2328  1.0865 -1.6499
 2115TIP3    H227837   5.288   2.936   1.297 -0.1807  1.5333  0.6297
 2116TIP3   OH227838   4.988   4.940  13.320  0.1435 -0.2417  0.5072
 2116TIP3    H127839   5.067   4.989  13.342  1.6225 -1.5073 -1.5927
 2116TIP3    H227840   4.990   4.864  13.378 -0.6106  0.6784  1.7808
 2117TIP3   OH227841   0.178   4.623  15.981 -0.1305  0.4805 -0.1488
 2117TIP3    H127842   0.222   4.707  15.995 -0.5627  0.5178  1.1066
 2117TIP3    H227843   0.122   4.638  15.905  1.5108  0.6141 -1.3858
 2118TIP3   OH227844   0.857   6.586  14.151  0.2986 -0.1271  0.1990
 2118TIP3    H127845   0.781   6.615  14.201  0.9639  0.2117  1.0294
 2118TIP3    H227846   0.887   6.507  14.196  0.8125  0.0950  0.2572
 2119TIP3   OH227847   5.319   5.930  17.078  0.3885 -0.0691  0.7520
 2119TIP3    H127848   5.308   5.873  17.002 -0.6884 -0.2796  1.0491
 2119TIP3    H227849   5.373   5.878  17.138 -0.1048 -0.5488  0.7899
 2120TIP3   OH227850   5.370   5.326  11.852  0.2363  0.0614 -0.1935
 2120TIP3    H127851   5.334   5.328  11.941 -1.6565  0.5090 -0.9177
 2120TIP3    H227852   5.400   5.415  11.836 -0.3711  0.2436 -0.3491
 2121TIP3   OH227853   1.489   3.530  15.609 -0.1706  0.1614  0.2004
 2121TIP3    H127854   1.418   3.479  15.649  1.1546 -1.3844  0.6813
 2121TIP3    H227855   1.533   3.469  15.551  1.8556  0.5283  1.2497
 2122TIP3   OH227856   6.585   5.233   0.371 -0.1729 -0.3946  0.0183
 2122TIP3    H127857   6.583   5.146   0.411 -0.8701 -0.2489  0.3188
 2122TIP3    H227858   6.531   5.224   0.293 -0.8307 -0.0643  0.4243
 2123TIP3   OH227859   2.052   6.358   6.038 -0.0209 -0.0124  0.2715
 2123TIP3    H127860   2.010   6.404   5.965  1.2494 -0.0552 -0.5190
 2123TIP3    H227861   1.986   6.357   6.107 -0.2688  2.6556  0.1831
 2124TIP3   OH227862   3.517   0.162  13.663  0.4077 -0.3654 -0.1762
 2124TIP3    H127863   3.432   0.206  13.654  0.7875  0.3520 -0.3334
 2124TIP3    H227864   3.555   0.200  13.742  0.4284 -0.9538  0.1015
 2125TIP3   OH227865   2.313   3.789  15.014  0.0779 -0.3044  0.1225
 2125TIP3    H127866   2.399   3.762  14.979  0.5771 -0.8821  1.7240
 2125TIP3    H227867   2.253   3.774  14.941  1.1718 -0.8727 -0.7054
 2126TIP3   OH227868   1.470   1.729  12.831  0.3800 -0.4097 -0.1085
 2126TIP3    H127869   1.381   1.747  12.859  0.0580  0.1369 -1.4199
 2126TIP3    H227870   1.518   1.713  12.912 -0.9551 -0.9711  0.5931
 2127TIP3   OH227871   4.150   3.684   2.116  0.3833  0.5701 -0.3306
 2127TIP3    H127872   4.199   3.766   2.110 -1.4400  1.7772  0.4325
 2127TIP3    H227873   4.168   3.652   2.205  0.9252  0.2375 -0.5550
 2128TIP3   OH227874   0.607   3.055  15.311 -0.3076  0.0023  0.5953
 2128TIP3    H127875   0.530   3.090  15.265 -0.1206 -0.4609 -0.0754
 2128TIP3    H227876   0.570   3.005  15.384 -0.7388 -1.5529 -0.6232
 2129TIP3   OH227877   5.836   3.217   6.151  0.2506  0.0701 -0.0775
 2129TIP3    H127878   5.855   3.165   6.229  4.1006  2.4402  0.8522
 2129TIP3    H227879   5.899   3.186   6.086 -0.4113  0.5902 -0.9809
 2130TIP3   OH227880   5.830   3.925   2.283  0.2711  0.0673 -0.3312
 2130TIP3    H127881   5.861   3.925   2.373 -1.8152  0.7986  0.4485
 2130TIP3    H227882   5.895   3.978   2.236 -0.4667  2.8669  1.5209
 2131TIP3   OH227883   0.571   4.944   2.616 -0.1628 -0.7169  0.4944
 2131TIP3    H127884   0.539   4.961   2.528  0.5567  0.2502  0.3969
 2131TIP3    H227885   0.559   4.850   2.629 -2.2622 -0.5209  0.1796
 2132TIP3   OH227886   0.059   2.100  14.242  0.2324 -0.0166  0.0047
 2132TIP3    H127887   0.130   2.137  14.293  0.6249 -1.2272  0.3614
 2132TIP3    H227888   0.012   2.176  14.207  1.2143  0.7941  0.4225
 2133TIP3   OH227889   6.428   2.970  15.828  0.4330 -0.0033  1.0663
 2133TIP3    H127890   6.436   2.989  15.922  1.8670 -1.3638  1.2581
 2133TIP3    H227891   6.438   3.055  15.786  1.2569  0.4265  2.0909
 2134TIP3   OH227892   6.219   6.483   2.151  0.1837 -0.3833  0.1883
 2134TIP3    H127893   6.200   6.528   2.069 -0.7584 -1.8959 -0.4755
 2134TIP3    H227894   6.273   6.408   2.125  0.0067 -0.7891  0.9506
 2135TIP3   OH227895   4.394   3.682  14.886 -0.3605 -0.0324 -0.0470
 2135TIP3    H127896   4.382   3.642  14.972  0.5715  0.1220  0.1714
 2135TIP3    H227897   4.489   3.685  14.875 -0.4248  1.3748 -0.3959
 2136TIP3   OH227898   0.048   6.206   2.046 -0.3144  0.0006  0.0927
 2136TIP3    H127899   0.062   6.171   2.133  0.4825 -1.8853 -0.7476
 2136TIP3    H227900   0.114   6.163   1.991 -0.5243  1.4366 -1.3756
 2137TIP3   OH227901   1.841   2.264   3.200 -0.1555 -0.0622 -0.9551
 2137TIP3    H127902   1.839   2.170   3.218  2.1778 -0.0057 -0.1259
 2137TIP3    H227903   1.762   2.279   3.148 -0.6871 -2.4382 -0.9847
 2138TIP3   OH227904   1.704   6.732   2.124 -0.3307 -0.2186  0.3947
 2138TIP3    H127905   1.793   6.751   2.096 -0.9133  0.8553 -0.8681
 2138TIP3    H227906   1.650   6.748   2.046 -1.4587 -2.6157  0.5866
 2139TIP3   OH227907   0.803   1.342  16.254 -0.0490 -0.7213 -0.0691
 2139TIP3    H127908   0.761   1.265  16.215 -0.3573 -1.0038  0.8066
 2139TIP3    H227909   0.877   1.360  16.197  0.0505 -1.6903 -0.2649
 2140TIP3   OH227910   1.960   2.050  16.998  0.1648  0.2886  0.0878
 2140TIP3    H127911   1.865   2.056  16.986  0.1160 -0.9498 -0.2616
 2140TIP3    H227912   1.984   2.132  17.040 -0.8693  1.2243 -1.0532
 2141TIP3   OH227913   3.810   6.632  11.281 -0.6832 -0.9511  0.7578
 2141TIP3    H127914   3.813   6.564  11.349 -1.6019  0.4240  2.2466
 2141TIP3    H227915   3.718   6.660  11.279 -0.6435 -0.8504 -0.9763
 2142TIP3   OH227916   6.481   5.090   5.460  0.1021  0.1108  0.1776
 2142TIP3    H127917   6.458   5.183   5.464 -1.2103 -0.0976 -1.1750
 2142TIP3    H227918   6.521   5.080   5.374  2.5764 -0.1590  1.2864
 2143TIP3   OH227919   4.771   5.049  13.197 -0.1010 -0.4575  0.1965
 2143TIP3    H127920   4.849   5.036  13.250  1.6494 -0.0047 -2.1216
 2143TIP3    H227921   4.740   4.961  13.178 -0.7392 -0.6245  1.8666
 2144TIP3   OH227922   6.167   5.528  14.742  0.0751 -0.5115  0.4028
 2144TIP3    H127923   6.159   5.604  14.684 -2.6251  0.7732  2.2848
 2144TIP3    H227924   6.092   5.473  14.720  0.5231 -1.3386  0.8820
 2145TIP3   OH227925   5.289   2.590   5.145  0.0172  0.3027 -0.0494
 2145TIP3    H127926   5.312   2.672   5.101 -0.0851  0.5811  0.4026
 2145TIP3    H227927   5.233   2.544   5.083 -1.0193  1.1777  0.2088
 2146TIP3   OH227928   2.859   3.541   2.264 -0.0126  0.0087 -0.4741
 2146TIP3    H127929   2.895   3.605   2.202 -1.6556 -0.4445 -1.9728
 2146TIP3    H227930   2.802   3.593   2.321  1.5994  0.4483  0.8212
 2147TIP3   OH227931   2.922   1.922  17.152  0.1011 -0.2920  0.5389
 2147TIP3    H127932   2.835   1.887  17.134 -0.5257  0.3703  2.0451
 2147TIP3    H227933   2.960   1.863  17.217  1.7618 -1.8825 -1.7251
 2148TIP3   OH227934   1.230   0.945  15.454 -0.1958 -0.6536  0.1328
 2148TIP3    H127935   1.319   0.972  15.476 -0.4118 -0.5628  0.9407
 2148TIP3    H227936   1.198   1.013  15.395 -0.1662 -0.0114  0.8455
 2149TIP3   OH227937   0.278   0.033  13.768 -0.0436 -0.2786  0.1634
 2149TIP3    H127938   0.261  -0.013  13.686 -0.1059  0.7216 -0.3975
 2149TIP3    H227939   0.193   0.070  13.793  0.2089  0.3791  0.0696
 2150TIP3   OH227940   4.220   1.767  14.767 -0.4158 -0.4785 -0.6061
 2150TIP3    H127941   4.307   1.765  14.727  0.6567  4.0116  0.9372
 2150TIP3    H227942   4.235   1.742  14.858 -1.1723 -1.6540 -0.7862
 2151TIP3   OH227943   2.940   1.323  11.962  0.0524  0.3822  0.5851
 2151TIP3    H127944   3.015   1.268  11.985 -1.1896 -1.6341  0.0389
 2151TIP3    H227945   2.953   1.403  12.013  0.1982 -1.7123  4.1694
 2152TIP3   OH227946   4.966   5.406   4.440 -0.1409  0.4523 -0.0235
 2152TIP3    H127947   5.014   5.324   4.446 -0.3112  0.2351 -1.3411
 2152TIP3    H227948   4.886   5.384   4.391  0.1553  1.5367 -1.0284
 2153TIP3   OH227949   4.713   1.437  14.014 -0.5080 -0.0956  0.2932
 2153TIP3    H127950   4.647   1.374  14.044 -0.3529 -0.7364 -0.6853
 2153TIP3    H227951   4.713   1.504  14.082 -0.8511 -1.0234  1.2494
 2154TIP3   OH227952   4.051   2.684  11.790 -0.0694 -0.3758  0.0474
 2154TIP3    H127953   4.085   2.752  11.732  1.5408 -0.7592  0.5008
 2154TIP3    H227954   4.014   2.731  11.864  0.8271  0.0307  0.2466
 2155TIP3   OH227955   5.125   1.383   4.641 -0.0844 -0.1702  0.1703
 2155TIP3    H127956   5.097   1.322   4.710  1.0382 -0.1480  0.6560
 2155TIP3    H227957   5.219   1.394   4.655 -0.3700  2.2651  0.5610
 2156TIP3   OH227958   0.944   2.816   5.712 -0.4531  0.1429 -0.0737
 2156TIP3    H127959   0.945   2.758   5.636  0.5734  1.5457 -1.1832
 2156TIP3    H227960   0.915   2.760   5.785  1.7109 -2.0665 -0.7981
 2157TIP3   OH227961   1.461   6.038   3.562 -0.1262  0.4681  0.0708
 2157TIP3    H127962   1.488   6.050   3.471  0.1910  1.1889  0.2588
 2157TIP3    H227963   1.425   6.122   3.589 -0.4634  0.1825  0.5328
 2158TIP3   OH227964   0.750   4.317  11.671  0.2525  0.7460  0.2659
 2158TIP3    H127965   0.657   4.319  11.650 -0.2127 -1.6050  1.8615
 2158TIP3    H227966   0.757   4.261  11.747  3.0069  0.8427  0.1784
 2159TIP3   OH227967   3.186   4.799  11.518  0.6693 -0.1887 -0.0002
 2159TIP3    H127968   3.120   4.851  11.471 -1.2034 -1.9576  0.5435
 2159TIP3    H227969   3.253   4.863  11.542 -0.0769  1.4216 -1.8899
 2160TIP3   OH227970   3.149   3.423  16.581  0.1164  0.1412 -0.0822
 2160TIP3    H127971   3.062   3.442  16.547 -0.1776  0.5458  0.8413
 2160TIP3    H227972   3.183   3.355  16.524 -0.9540 -0.2963 -0.2260
 2161TIP3   OH227973   6.707   2.721   0.176  0.3146  0.4223 -0.0390
 2161TIP3    H127974   6.767   2.669   0.122 -1.2799 -1.2407 -0.3379
 2161TIP3    H227975   6.641   2.753   0.114 -0.9480 -0.6155  0.7124
 2162TIP3   OH227976   1.356   2.023  13.693 -0.0097 -0.2835  0.0385
 2162TIP3    H127977   1.305   2.099  13.665 -0.7124 -0.8649 -0.3004
 2162TIP3    H227978   1.402   2.053  13.771 -0.9044  0.2574  0.3788
 2163TIP3   OH227979   0.020   0.386  14.736  0.5824 -0.6371 -0.4216
 2163TIP3    H127980   0.012   0.429  14.821 -1.2022 -0.2665 -0.7411
 2163TIP3    H227981   0.064   0.450  14.680 -0.8696  0.2865 -0.5422
 2164TIP3   OH227982   2.929   2.533   2.688  0.0139  0.0362 -0.0837
 2164TIP3    H127983   2.850   2.568   2.731 -1.1531 -1.3139 -1.0172
 2164TIP3    H227984   2.911   2.543   2.595  0.4587 -1.2736 -0.3300
 2165TIP3   OH227985   3.555   4.290  12.141 -0.2095  0.1533 -0.2303
 2165TIP3    H127986   3.487   4.269  12.077 -1.1128  0.9866  0.4374
 2165TIP3    H227987   3.507   4.309  12.222  0.8588  0.0575  0.4435
 2166TIP3   OH227988   4.886   0.897   0.310 -0.1225  0.3674  0.3906
 2166TIP3    H127989   4.883   0.961   0.239  0.0487 -2.5837 -2.5026
 2166TIP3    H227990   4.976   0.902   0.342  0.3266  0.5502 -0.8344
 2167TIP3   OH227991   6.819   3.805   5.240  0.8832 -0.3010  0.1366
 2167TIP3    H127992   6.809   3.814   5.335  1.7757 -0.4323  0.2545
 2167TIP3    H227993   6.880   3.873   5.215  1.2883 -0.7837 -0.2187
 2168TIP3   OH227994   1.897   5.078   3.443 -0.6017  0.0872  0.1077
 2168TIP3    H127995   1.836   5.133   3.392  0.4527  1.8289  0.6480
 2168TIP3    H227996   1.894   4.993   3.399 -1.4015  0.8934 -1.5148
 2169TIP3   OH227997   5.897   3.093   5.696  0.3511  0.1667  0.3900
 2169TIP3    H127998   5.860   3.014   5.735 -1.8474  0.9224  0.0218
 2169TIP3    H227999   5.842   3.164   5.730 -0.7515  1.0152 -2.8263
 2170TIP3   OH228000   6.222   0.802   2.838  0.4222 -0.4593 -0.1331
 2170TIP3    H128001   6.160   0.867   2.870  1.5087  0.8254 -0.5499
 2170TIP3    H228002   6.259   0.840   2.758  3.4884 -0.0438  1.3344
 2171TIP3   OH228003   2.137   4.587   6.391  0.3231  0.0961 -1.0558
 2171TIP3    H128004   2.061   4.543   6.428 -0.2614  0.4525 -1.7943
 2171TIP3    H228005   2.180   4.520   6.338  0.8946 -0.2826 -0.1303
 2172TIP3   OH228006   4.384   2.480   4.949 -0.1129 -0.2431  0.0882
 2172TIP3    H128007   4.361   2.572   4.965  0.2715 -0.1223 -0.0357
 2172TIP3    H228008   4.306   2.431   4.974 -0.6795  0.1948 -0.7784
 2173TIP3   OH228009   6.817   2.338  15.330  0.7366  0.7243  0.4999
 2173TIP3    H128010   6.794   2.260  15.381  0.1201  1.2685  1.0933
 2173TIP3    H228011   6.759   2.335  15.254  0.7922  0.5418  0.4657
 2174TIP3   OH228012   0.540   6.317   2.997 -0.2423  0.3818  0.3392
 2174TIP3    H128013   0.470   6.372   2.961  0.1538  0.1630 -0.7954
 2174TIP3    H228014   0.495   6.241   3.033 -0.6492  0.6025  0.2976
 2175TIP3   OH228015   1.859   6.016   1.053  0.2938  0.3005 -0.0537
 2175TIP3    H128016   1.890   6.067   0.977  1.6822 -1.1923 -0.5371
 2175TIP3    H228017   1.802   5.949   1.015  1.1693 -0.5887  0.1790
 2176TIP3   OH228018   0.020   2.378   3.566 -0.3359 -0.0124  0.6291
 2176TIP3    H128019   0.050   2.348   3.652  0.9265 -0.5135  0.0379
 2176TIP3    H228020   0.088   2.439   3.537 -0.3441 -0.4444 -0.3454
 2177TIP3   OH228021   0.802   4.722   3.345  0.2946 -0.0165 -0.3905
 2177TIP3    H128022   0.722   4.670   3.336  0.5362 -0.2556 -1.3107
 2177TIP3    H228023   0.847   4.710   3.262  1.7469 -0.6375  0.4535
 2178TIP3   OH228024   2.011   3.715   5.196  0.0910  1.0623 -0.4938
 2178TIP3    H128025   2.094   3.707   5.243  0.8127  1.9142 -1.5522
 2178TIP3    H228026   1.991   3.809   5.198 -1.6950  0.6927  1.1039
 2179TIP3   OH228027   6.061   2.395   3.373  0.3265 -0.0942  0.2869
 2179TIP3    H128028   5.982   2.434   3.336  0.2168 -0.6304 -0.0579
 2179TIP3    H228029   6.041   2.381   3.465 -0.0244 -0.3290  0.1752
 2180TIP3   OH228030   6.553   5.131   3.176  0.0183 -0.7731  0.1889
 2180TIP3    H128031   6.469   5.164   3.146  0.3430  1.0963  1.1337
 2180TIP3    H228032   6.577   5.189   3.249  1.3847 -2.2345  0.9822
 2181TIP3   OH228033   3.478   6.040  14.937 -0.0199  0.4371 -0.2701
 2181TIP3    H128034   3.428   5.959  14.947  0.5948  0.0060 -0.5681
 2181TIP3    H228035   3.436   6.085  14.864  1.6428 -1.2315 -2.3948
 2182TIP3   OH228036   3.608   5.604   3.231  0.3438  0.2480 -0.4429
 2182TIP3    H128037   3.564   5.674   3.182 -0.6550 -0.1499 -0.1368
 2182TIP3    H228038   3.659   5.558   3.165  0.1584  0.6033 -0.8437
 2183TIP3   OH228039   6.684   2.608  15.234  0.4695 -0.0850 -0.1666
 2183TIP3    H128040   6.773   2.575  15.228  0.7430  0.7190 -0.6204
 2183TIP3    H228041   6.673   2.629  15.327  0.7743 -0.1084 -0.1239
 2184TIP3   OH228042   0.832   5.127   0.281  0.4036  0.2983 -0.2707
 2184TIP3    H128043   0.796   5.176   0.207  2.4848  1.1756 -0.7753
 2184TIP3    H228044   0.814   5.183   0.357  0.5151  0.6166 -0.4749
 2185TIP3   OH228045   0.542   4.344   3.278 -0.2211  0.0180  0.3643
 2185TIP3    H128046   0.525   4.411   3.344 -1.1118  0.4041 -0.2292
 2185TIP3    H228047   0.558   4.264   3.329 -1.4784  0.1717  1.0519
 2186TIP3   OH228048   3.953   1.869  10.964 -0.0212 -0.5734  0.3237
 2186TIP3    H128049   3.989   1.957  10.969 -2.7986  0.6093  2.3663
 2186TIP3    H228050   3.902   1.869  10.882  0.1165 -0.3507  0.2379
 2187TIP3   OH228051   6.261   5.471  15.309 -0.5430 -0.6862  0.3099
 2187TIP3    H128052   6.342   5.522  15.303  0.4980 -1.9221  2.5452
 2187TIP3    H228053   6.193   5.529  15.274  1.3448  0.1863 -2.1313
 2188TIP3   OH228054   5.787   3.677   4.031 -0.3943  0.3583 -0.2163
 2188TIP3    H128055   5.791   3.696   4.124 -0.2562 -0.6113 -0.0141
 2188TIP3    H228056   5.774   3.763   3.989 -0.4285  0.7999  0.6812
 2189TIP3   OH228057   1.374   1.564  13.517 -0.0180 -0.1529 -0.5633
 2189TIP3    H128058   1.406   1.646  13.555 -0.3738 -0.2192 -0.1145
 2189TIP3    H228059   1.453   1.518  13.491  0.2543 -0.2248  0.3511
 2190TIP3   OH228060   4.720   4.851   3.109 -0.8907  0.1713 -0.1302
 2190TIP3    H128061   4.747   4.770   3.066  0.1448 -0.4991  1.6632
 2190TIP3    H228062   4.785   4.864   3.178 -0.4995  3.0492 -0.9344
 2191TIP3   OH228063   0.296   2.070   3.015  0.0460 -0.2256 -0.5324
 2191TIP3    H128064   0.308   2.010   3.088  1.7810 -2.5412 -2.5599
 2191TIP3    H228065   0.254   2.147   3.054  0.6206 -1.4259  2.7951
 2192TIP3   OH228066   2.305   3.411   5.568 -0.2465 -0.1161 -0.2360
 2192TIP3    H128067   2.343   3.371   5.645  0.1509 -0.6215 -0.6934
 2192TIP3    H228068   2.377   3.457   5.526 -0.2238 -0.7094 -0.8645
 2193TIP3   OH228069   0.106   5.162  16.933 -0.7321  0.2570  0.3134
 2193TIP3    H128070   0.039   5.205  16.985  0.0705  0.1473  1.4738
 2193TIP3    H228071   0.172   5.230  16.917 -2.2390  1.1805 -3.1232
 2194TIP3   OH228072   5.693   4.449  15.026 -0.0178 -1.0136  0.4035
 2194TIP3    H128073   5.625   4.443  15.094 -1.6148  0.9206 -0.8908
 2194TIP3    H228074   5.644   4.447  14.944  1.4663  0.4847 -0.5815
 2195TIP3   OH228075   3.189   6.395  11.629 -0.6173 -0.3395 -0.4493
 2195TIP3    H128076   3.140   6.449  11.691 -0.3673  0.8573 -1.2442
 2195TIP3    H228077   3.234   6.458  11.573  0.6628 -1.4045 -0.6726
 2196TIP3   OH228078   2.720   2.324  16.790 -0.1072 -0.1532  0.6275
 2196TIP3    H128079   2.778   2.399  16.800 -1.3151  0.7240  1.3463
 2196TIP3    H228080   2.695   2.300  16.879  0.1396 -1.3217  0.4001
 2197TIP3   OH228081   2.524   6.510   3.987 -0.1246  0.0468  0.6284
 2197TIP3    H128082   2.453   6.483   4.046 -0.5471 -1.4218 -0.4896
 2197TIP3    H228083   2.594   6.447   4.004  0.3183  0.5370  0.6196
 2198TIP3   OH228084   6.192   4.773  14.597 -0.7054  0.2593  0.2166
 2198TIP3    H128085   6.111   4.824  14.591 -1.2423 -0.4479  1.1659
 2198TIP3    H228086   6.244   4.821  14.662 -0.8026  0.1472  0.3793
 2199TIP3   OH228087   6.810   3.688   1.162 -0.1112 -0.3347 -0.0505
 2199TIP3    H128088   6.756   3.729   1.230  1.3018 -0.9628  1.5343
 2199TIP3    H228089   6.752   3.626   1.118 -1.4138  1.0408 -0.3488
 2200TIP3   OH228090   0.297   6.603   3.224 -0.2796 -0.1539 -0.1177
 2200TIP3    H128091   0.281   6.628   3.315 -0.4351 -0.7346  0.0244
 2200TIP3    H228092   0.381   6.557   3.226  0.9412  1.9437 -0.6847
 2201TIP3   OH228093   1.169   3.098   3.266  0.0536 -0.5457  0.2961
 2201TIP3    H128094   1.238   3.039   3.236  0.2536  0.1564 -0.6619
 2201TIP3    H228095   1.146   3.150   3.189 -0.7037  0.0529  0.9068
 2202TIP3   OH228096   6.069   1.919  11.665 -0.1882  0.5118  0.1085
 2202TIP3    H128097   6.056   1.895  11.757  0.8800 -1.7761 -0.2662
 2202TIP3    H228098   6.151   1.968  11.664  0.1645 -0.0691  0.3030
 2203TIP3   OH228099   5.715   5.128  12.348  0.0954  0.2691  0.1457
 2203TIP3    H128100   5.705   5.207  12.401  2.2830  0.1947  0.7684
 2203TIP3    H228101   5.729   5.058  12.412  0.6297 -0.1794 -0.4463
 2204TIP3   OH228102   3.209   2.590  13.571  0.2105  0.0592 -0.0586
 2204TIP3    H128103   3.124   2.597  13.614  0.4331  1.0728  0.2478
 2204TIP3    H228104   3.189   2.600  13.478  0.0150  0.5455  0.0328
 2205TIP3   OH228105   3.790   1.321  17.162 -0.4398  0.0965 -0.0307
 2205TIP3    H128106   3.782   1.333  17.256 -0.8628 -2.7711  0.3803
 2205TIP3    H228107   3.796   1.410  17.127 -1.8012  1.3063  2.5342
 2206TIP3   OH228108   1.469   1.889   4.314 -0.1706  0.2494  0.0605
 2206TIP3    H128109   1.561   1.865   4.317 -0.3877 -0.6262 -0.0487
 2206TIP3    H228110   1.424   1.819   4.361 -0.6195  1.5441  1.6445
 2207TIP3   OH228111   3.075   4.177  12.001  0.6377  0.2641  0.1795
 2207TIP3    H128112   2.988   4.218  12.001  0.2607 -0.4531 -1.5106
 2207TIP3    H228113   3.064   4.099  12.056 -0.0913 -0.3368 -0.7669
 2208TIP3   OH228114   6.372   4.475   5.717 -0.0874 -0.1202  0.0384
 2208TIP3    H128115   6.413   4.558   5.692  0.5498 -0.2625  0.5595
 2208TIP3    H228116   6.441   4.429   5.765  0.2180 -1.7891 -1.9077
 2209TIP3   OH228117   4.883   0.480   1.043  0.0534 -0.0366  0.2378
 2209TIP3    H128118   4.847   0.504   0.958 -0.5787 -1.2806  0.1266
 2209TIP3    H228119   4.972   0.451   1.024  0.3960  1.0078  0.2069
 2210TIP3   OH228120   1.503   4.755  14.377 -0.8382 -0.3321  0.0177
 2210TIP3    H128121   1.442   4.828  14.391 -0.2526 -0.0923  1.5307
 2210TIP3    H228122   1.523   4.758  14.284 -2.0882  0.4299 -0.2427
 2211TIP3   OH228123   2.055   0.088   5.011  0.1416  0.1936 -0.6103
 2211TIP3    H128124   2.124   0.145   5.047 -0.1642 -0.8709  1.9094
 2211TIP3    H228125   1.976   0.115   5.057 -0.5233 -0.5243 -1.3204
 2212TIP3   OH228126   6.570   3.759   3.617  0.0216 -0.2313  0.0907
 2212TIP3    H128127   6.512   3.707   3.673 -2.4718  0.3002 -1.8325
 2212TIP3    H228128   6.607   3.695   3.556  0.2830 -0.3445  0.3642
 2213TIP3   OH228129   6.755   0.392   4.486 -0.2649 -0.1238  0.5713
 2213TIP3    H128130   6.833   0.438   4.456  0.6438 -1.3231  1.0367
 2213TIP3    H228131   6.691   0.404   4.415  1.0068 -0.8025 -0.7310
 2214TIP3   OH228132   2.700   5.265  14.301  0.2345 -1.0040 -0.1128
 2214TIP3    H128133   2.613   5.224  14.300  0.1042 -0.7846  1.0333
 2214TIP3    H228134   2.743   5.228  14.378  0.2417  0.7311  0.7615
 2215TIP3   OH228135   4.616   2.822   5.510  0.1962 -0.0661 -0.0466
 2215TIP3    H128136   4.610   2.768   5.431 -0.7255 -1.5332  0.9810
 2215TIP3    H228137   4.604   2.912   5.478  0.7576 -0.5276 -1.6701
 2216TIP3   OH228138   1.023   4.920   1.473  0.4001  0.0637  0.2586
 2216TIP3    H128139   0.960   4.949   1.407  1.6401 -0.8940 -1.4122
 2216TIP3    H228140   0.975   4.928   1.556 -1.1431  1.4938 -0.6853
 2217TIP3   OH228141   3.903   2.678  15.354  0.0975  0.3040  0.2144
 2217TIP3    H128142   3.897   2.773  15.364  2.2207  0.4892  0.2482
 2217TIP3    H228143   3.819   2.645  15.386 -0.1295  2.0809  1.6212
 2218TIP3   OH228144   4.146   6.237  11.099 -0.9473 -0.0176  0.8370
 2218TIP3    H128145   4.080   6.269  11.037  0.8674 -0.8057 -1.6612
 2218TIP3    H228146   4.094   6.201  11.172 -3.2263  0.5208 -0.4119
 2219TIP3   OH228147   6.012   3.330   5.926  0.0402 -0.1933 -0.0136
 2219TIP3    H128148   6.086   3.334   5.864  0.4459  0.4955  0.5062
 2219TIP3    H228149   6.006   3.237   5.949  0.2654 -0.3702 -0.6254
 2220TIP3   OH228150   3.205   6.516  12.023  0.7746  0.5021 -0.1732
 2220TIP3    H128151   3.170   6.568  11.951  3.8634  1.5590 -1.0771
 2220TIP3    H228152   3.262   6.452  11.981 -0.1276 -1.2722  1.1701
 2221TIP3   OH228153   0.236   2.701  16.997 -0.1955 -0.0971 -0.0648
 2221TIP3    H128154   0.241   2.776  17.057  1.8582 -0.9636  0.9244
 2221TIP3    H228155   0.309   2.646  17.021 -2.0545 -2.8430 -0.2572
 2222TIP3   OH228156   1.188   4.871  13.620  0.4179  0.2608  0.0010
 2222TIP3    H128157   1.169   4.943  13.679 -0.9638  0.3433 -0.5171
 2222TIP3    H228158   1.217   4.913  13.539 -0.8502  0.2854 -0.4652
 2223TIP3   OH228159   5.673   6.720   2.411 -0.3875 -0.2178 -0.3727
 2223TIP3    H128160   5.607   6.784   2.382  0.6128  0.3931 -1.3611
 2223TIP3    H228161   5.638   6.686   2.494 -1.1072  1.3526  0.0038
 2224TIP3   OH228162   5.948   4.766   5.596  0.4189 -0.2767  0.9704
 2224TIP3    H128163   5.948   4.682   5.642 -1.7718 -0.0040  1.5969
 2224TIP3    H228164   5.885   4.819   5.644 -0.6810  0.6094 -1.3314
 2225TIP3   OH228165   0.336   6.179   1.363  0.3165 -0.0577 -0.5183
 2225TIP3    H128166   0.338   6.145   1.453  1.3243  0.8590 -0.1739
 2225TIP3    H228167   0.247   6.160   1.333  0.0943 -0.7736  0.5182
 2226TIP3   OH228168   1.940   3.311   1.141  0.8513  0.3467 -0.7032
 2226TIP3    H128169   1.887   3.378   1.185 -0.0836 -0.5409 -0.4555
 2226TIP3    H228170   1.900   3.300   1.055  1.5004  0.6779 -1.0573
 2227TIP3   OH228171   1.898   3.977   0.744  0.0064 -0.4611  0.2914
 2227TIP3    H128172   1.918   3.951   0.654  0.1194 -2.7008  0.9098
 2227TIP3    H228173   1.983   3.973   0.789  0.0583  1.2147  0.4266
 2228TIP3   OH228174   0.636   1.776   5.181  0.3732 -0.1498  0.2898
 2228TIP3    H128175   0.563   1.814   5.132  1.3787  2.5500  0.6779
 2228TIP3    H228176   0.606   1.774   5.272  0.6250  0.6466  0.4007
 2229TIP3   OH228177   4.223   6.553   5.504  0.0131 -0.2693  0.3887
 2229TIP3    H128178   4.224   6.625   5.440  1.7029 -1.1559 -0.6394
 2229TIP3    H228179   4.244   6.475   5.453 -0.6171 -1.3325  1.6954
 2230TIP3   OH228180   6.260   1.352   4.746  0.0578  0.0696  0.1018
 2230TIP3    H128181   6.180   1.358   4.694  0.7799 -2.1631 -1.4501
 2230TIP3    H228182   6.230   1.346   4.836 -1.4505  0.3925 -0.3478
 2231TIP3   OH228183   6.466   2.023  16.686  0.1415 -0.5799 -0.4601
 2231TIP3    H128184   6.560   2.030  16.670  0.2926 -0.6513  0.3490
 2231TIP3    H228185   6.437   2.114  16.700  0.5156 -0.7195  1.4952
 2232TIP3   OH228186   6.378   0.441  11.046 -0.1247  0.0910  0.3428
 2232TIP3    H128187   6.408   0.462  10.958  1.0058 -0.6769  0.5182
 2232TIP3    H228188   6.342   0.523  11.080  1.6805  1.0649  0.0488
 2233TIP3   OH228189   0.481   4.614  16.580 -0.0985 -0.1113  0.2385
 2233TIP3    H128190   0.521   4.651  16.659 -1.1658 -0.7028  1.0817
 2233TIP3    H228191   0.424   4.544  16.612 -1.3638  0.3218 -0.9431
 2234TIP3   OH228192   2.428   5.649   6.032 -0.1370  0.4101 -0.2964
 2234TIP3    H128193   2.452   5.560   6.057 -0.8048  0.3959  0.3381
 2234TIP3    H228194   2.381   5.639   5.949 -0.5558  0.1218 -0.0291
 2235TIP3   OH228195   5.785   0.518   0.723 -0.1728  0.0390  0.1347
 2235TIP3    H128196   5.790   0.542   0.630  0.9284  1.3293  0.5008
 2235TIP3    H228197   5.695   0.489   0.735 -0.1400 -0.8724 -1.5026
 2236TIP3   OH228198   1.915   4.375  11.232  0.0124 -0.0995 -0.4954
 2236TIP3    H128199   1.885   4.463  11.257 -1.0467 -0.4843 -0.3556
 2236TIP3    H228200   1.957   4.341  11.311 -0.7247 -0.2002 -0.1385
 2237TIP3   OH228201   4.406   4.931   2.241  0.0871  0.3216  0.3530
 2237TIP3    H128202   4.463   4.860   2.271  0.2017  0.9249  1.6151
 2237TIP3    H228203   4.456   5.011   2.259 -0.8862  0.8272  0.8867
 2238TIP3   OH228204   4.353   2.897   5.384  0.4695 -0.0250  0.2872
 2238TIP3    H128205   4.358   2.992   5.384  0.7475 -0.0274  1.1817
 2238TIP3    H228206   4.335   2.874   5.476  1.0404 -0.8607  0.2059
 2239TIP3   OH228207   6.459   2.582  16.202  0.3971  0.4406  0.0659
 2239TIP3    H128208   6.477   2.515  16.135 -1.0326 -0.0988  0.1925
 2239TIP3    H228209   6.369   2.566  16.229  1.1688  0.0477  2.7966
 2240TIP3   OH228210   1.602   6.053  13.657 -0.3852 -0.4969 -0.1846
 2240TIP3    H128211   1.600   6.092  13.745  2.9336 -0.8264  0.1805
 2240TIP3    H228212   1.584   6.126  13.598 -1.2213  0.0428  0.7109
 2241TIP3   OH228213   6.814   1.703  14.682  0.3452 -0.3463  0.1379
 2241TIP3    H128214   6.899   1.672  14.713 -0.6081 -2.8514  0.5381
 2241TIP3    H228215   6.750   1.657  14.737 -1.2961  1.2357 -0.3317
 2242TIP3   OH228216   1.208   1.814   2.268 -0.2167 -0.1722  0.9251
 2242TIP3    H128217   1.209   1.893   2.323 -1.8686  1.4659 -1.2255
 2242TIP3    H228218   1.118   1.807   2.237 -0.2062 -3.1805  1.2871
 2243TIP3   OH228219   4.830   6.024   3.001  0.2545  0.0341  0.1947
 2243TIP3    H128220   4.853   6.050   3.090  0.6216 -2.5748  0.9640
 2243TIP3    H228221   4.752   6.075   2.980  0.3390  0.9358  1.8819
 2244TIP3   OH228222   6.291   0.534   2.913 -0.2039  0.6970 -0.3440
 2244TIP3    H128223   6.317   0.572   2.997  1.9431  0.9306 -1.0496
 2244TIP3    H228224   6.273   0.609   2.857 -0.9421  0.5585 -0.2958
 2245TIP3   OH228225   3.267   6.350   4.177  0.4401 -0.2589 -0.4271
 2245TIP3    H128226   3.323   6.289   4.225 -1.4656 -1.5439  0.3352
 2245TIP3    H228227   3.194   6.366   4.236 -0.2087  0.9964 -1.5303
 2246TIP3   OH228228   0.739   4.150  14.484  0.7275 -0.0807 -0.0208
 2246TIP3    H128229   0.708   4.179  14.569  0.1170  2.4529 -1.0244
 2246TIP3    H228230   0.828   4.184  14.477  0.3997  0.6477 -0.7934
 2247TIP3   OH228231   6.203   6.270   6.377  0.6306 -0.5523 -0.2101
 2247TIP3    H128232   6.262   6.215   6.430  0.5632 -0.3899  0.0345
 2247TIP3    H228233   6.231   6.359   6.397  0.6402 -0.4919 -0.4931
 2248TIP3   OH228234   1.957   1.912   3.179 -1.0281 -0.2327 -0.1554
 2248TIP3    H128235   1.985   1.820   3.186 -1.5260 -0.4550 -0.9601
 2248TIP3    H228236   1.911   1.930   3.261 -1.4148 -0.8757 -0.2254
 2249TIP3   OH228237   5.096   4.076  13.946  0.0885  0.5140  0.1667
 2249TIP3    H128238   5.098   4.045  14.036  2.5277  1.2204  0.4309
 2249TIP3    H228239   5.007   4.056  13.915 -0.4290 -0.7981  2.3210
 2250TIP3   OH228240   1.681   4.053   5.001  0.0703 -0.1793 -0.3226
 2250TIP3    H128241   1.691   4.060   5.096 -0.9091 -0.1700 -0.2100
 2250TIP3    H228242   1.590   4.078   4.985 -0.0186 -0.9932 -1.1751
 2251TIP3   OH228243   6.081   5.477  13.534  0.3848  0.7977 -0.1784
 2251TIP3    H128244   6.041   5.518  13.610 -0.0626  0.5836 -0.2978
 2251TIP3    H228245   6.101   5.549  13.475  1.9045  1.1160  0.6693
 2252TIP3   OH228246   4.140   4.920   4.161  0.2908 -0.3294 -0.2406
 2252TIP3    H128247   4.221   4.937   4.112  0.6988 -1.8394 -0.1168
 2252TIP3    H228248   4.104   4.841   4.121 -1.5546  0.7284 -0.8018
 2253TIP3   OH228249   6.335   3.769  11.276 -0.1027  0.7948 -0.1953
 2253TIP3    H128250   6.304   3.736  11.192 -0.9398  0.9137  0.0610
 2253TIP3    H228251   6.259   3.813  11.315 -0.0366 -0.1570  1.0874
 2254TIP3   OH228252   2.542   1.855  13.503  0.2019 -0.3145 -0.2130
 2254TIP3    H128253   2.577   1.943  13.491 -0.1320 -0.0923  0.3979
 2254TIP3    H228254   2.614   1.806  13.543  0.8609 -0.7035 -1.8108
 2255TIP3   OH228255   0.855   6.470  13.852 -0.4499 -0.3285 -0.4737
 2255TIP3    H128256   0.946   6.480  13.825  0.2125 -1.4109  1.1782
 2255TIP3    H228257   0.854   6.498  13.944 -2.1393  1.1947 -0.8932
 2256TIP3   OH228258   5.692   4.719   0.982 -0.4001  0.8967 -0.2854
 2256TIP3    H128259   5.680   4.742   0.890  2.0998 -0.1489 -0.9404
 2256TIP3    H228260   5.693   4.803   1.028 -0.3321  1.5090 -1.3806
 2257TIP3   OH228261   5.952   0.719   5.336 -0.0133 -0.0208 -0.2681
 2257TIP3    H128262   6.012   0.763   5.396  0.6424 -0.1131 -0.8449
 2257TIP3    H228263   5.953   0.774   5.257  1.5593 -1.5035 -1.3723
 2258TIP3   OH228264   6.099   4.317   5.698  0.2485 -0.2563 -0.2998
 2258TIP3    H128265   6.174   4.377   5.704  0.1197  0.1098 -1.9230
 2258TIP3    H228266   6.022   4.374   5.701  0.0145 -0.6154  1.1462
 2259TIP3   OH228267   0.036   6.388   4.784 -0.0802 -0.3644  0.5530
 2259TIP3    H128268   0.043   6.363   4.692 -1.1444 -3.2671  1.1587
 2259TIP3    H228269   0.115   6.440   4.800 -0.2779  0.9377 -2.1615
 2260TIP3   OH228270   0.132   3.720  15.190 -0.4214 -0.0645  0.1379
 2260TIP3    H128271   0.197   3.782  15.223  1.2244 -0.8605 -1.3925
 2260TIP3    H228272   0.052   3.771  15.181 -0.1413  0.8650  2.4361
 2261TIP3   OH228273   2.013   6.797  12.140  0.5164  0.0053  0.7198
 2261TIP3    H128274   2.048   6.721  12.187 -0.8314 -0.0442  1.7086
 2261TIP3    H228275   2.086   6.828  12.086  2.2858  0.2988  3.1186
 2262TIP3   OH228276   6.679   3.556  11.668 -0.2249 -0.4631  0.7853
 2262TIP3    H128277   6.636   3.532  11.751  0.3215  1.6725  1.7482
 2262TIP3    H228278   6.609   3.595  11.615 -0.5261 -1.6269  0.3026
 2263TIP3   OH228279   6.637   2.133   0.553  0.4540 -0.0769 -0.2913
 2263TIP3    H128280   6.618   2.048   0.513  1.4137 -0.5978  0.3327
 2263TIP3    H228281   6.617   2.120   0.646 -0.6049  0.7658 -0.3856
 2264TIP3   OH228282   6.207   1.135  12.107  0.2315  0.3392 -0.7496
 2264TIP3    H128283   6.163   1.108  12.187  2.9239  0.4883  0.8963
 2264TIP3    H228284   6.211   1.055  12.054  0.3563 -0.3168  0.2222
 2265TIP3   OH228285   2.085   5.680  12.218  0.0075 -0.1661 -0.0627
 2265TIP3    H128286   2.119   5.690  12.129  0.5381  0.4009  0.1964
 2265TIP3    H228287   2.117   5.756  12.265 -2.3352  0.8777 -0.0061
 2266TIP3   OH228288   3.606   2.814  13.722 -0.5435 -0.3462  0.0791
 2266TIP3    H128289   3.537   2.808  13.788 -0.1438 -1.0882  0.4453
 2266TIP3    H228290   3.646   2.899  13.737 -0.4096 -0.5384  0.8455
 2267TIP3   OH228291   2.774   1.682   0.554  0.3558  0.0381  0.4266
 2267TIP3    H128292   2.737   1.748   0.494  2.2452  2.1840  1.4411
 2267TIP3    H228293   2.857   1.657   0.512  0.3063 -0.6732  0.7435
 2268TIP3   OH228294   2.024   1.600  16.314 -0.0916  0.4719  0.2248
 2268TIP3    H128295   2.110   1.606  16.356 -0.4407 -0.7007  1.1676
 2268TIP3    H228296   2.028   1.519  16.264 -0.2479  1.0358 -0.7264
 2269TIP3   OH228297   0.743   5.727  16.200  0.0840  0.1143  0.1022
 2269TIP3    H128298   0.666   5.671  16.189 -1.3053  1.8046  0.7770
 2269TIP3    H228299   0.780   5.701  16.285  1.6757 -2.2417 -1.1837
 2270TIP3   OH228300   4.168   0.764  16.828  0.0281 -0.4388  0.5127
 2270TIP3    H128301   4.145   0.673  16.847  0.1204 -0.3026  1.3539
 2270TIP3    H228302   4.089   0.813  16.853 -0.3857 -0.3687 -0.8759
 2271TIP3   OH228303   2.308   4.155  14.672 -0.2030 -0.3028  0.3666
 2271TIP3    H128304   2.338   4.193  14.589 -1.0233 -0.1632  0.1188
 2271TIP3    H228305   2.340   4.065  14.670  1.3858  0.2236  0.7575
 2272TIP3   OH228306   4.650   4.731   0.163  0.3453  0.2690 -0.1073
 2272TIP3    H128307   4.619   4.812   0.205  0.4153 -0.2114  0.8852
 2272TIP3    H228308   4.739   4.721   0.194  0.2587 -0.3198 -0.0486
 2273TIP3   OH228309   1.200   2.795   5.003  0.0192  0.1042  0.4512
 2273TIP3    H128310   1.122   2.843   5.032 -0.0879 -0.1406  0.5761
 2273TIP3    H228311   1.174   2.703   5.010 -0.0467  0.0314 -0.4946
 2274TIP3   OH228312   1.233   3.184   1.248  0.4709 -0.6263 -0.0809
 2274TIP3    H128313   1.276   3.258   1.204 -2.5665  1.7026  0.4964
 2274TIP3    H228314   1.202   3.128   1.177  0.9167 -0.1698 -0.6472
 2275TIP3   OH228315   6.550   6.519  15.440 -0.2107  0.6279 -0.4504
 2275TIP3    H128316   6.554   6.489  15.349 -0.5951 -0.0365 -0.2545
 2275TIP3    H228317   6.512   6.607  15.434 -0.8551  0.3301 -0.8828
 2276TIP3   OH228318   0.976   5.310   4.508  0.0895 -0.1171 -0.5517
 2276TIP3    H128319   0.964   5.340   4.598  2.7783 -0.4875 -0.0046
 2276TIP3    H228320   0.910   5.242   4.497 -0.8641  0.5297  0.8175
 2277TIP3   OH228321   4.432   5.903   4.876  0.4588 -0.1404  0.4479
 2277TIP3    H128322   4.357   5.914   4.935  0.4548 -1.1777  0.6598
 2277TIP3    H228323   4.508   5.925   4.930  0.2337  4.4074 -0.6798
 2278TIP3   OH228324   6.833   2.900   1.316  0.5878  0.5226 -0.1245
 2278TIP3    H128325   6.754   2.948   1.342  0.8502  1.0910 -0.3571
 2278TIP3    H228326   6.868   2.866   1.398 -0.6396 -0.9267 -0.1554
 2279TIP3   OH228327   3.261   5.619   2.960 -0.2930  0.0306  0.7410
 2279TIP3    H128328   3.269   5.524   2.968  1.0100  0.2306  2.2470
 2279TIP3    H228329   3.171   5.633   2.930  0.2445 -1.7603 -2.1290
 2280TIP3   OH228330   2.967   4.345  12.640 -0.2269 -0.1944  0.7252
 2280TIP3    H128331   2.890   4.398  12.620  1.3770  1.9768 -0.0694
 2280TIP3    H228332   3.004   4.384  12.718  1.5401  0.5575 -0.4358
 2281TIP3   OH228333   3.925   4.757   0.225 -0.4499 -0.3717  0.1003
 2281TIP3    H128334   3.946   4.833   0.171 -1.3035 -0.3521 -0.2187
 2281TIP3    H228335   3.936   4.788   0.315  3.4860 -1.0876  0.0563
 2282TIP3   OH228336   0.188   1.677  12.187 -0.6051  0.3617  0.3666
 2282TIP3    H128337   0.149   1.763  12.169 -0.9761  0.0706 -0.2174
 2282TIP3    H228338   0.271   1.698  12.232 -0.1457  1.0660 -0.7571
 2283TIP3   OH228339   5.502   6.612  15.970 -0.1784  0.2774 -0.6935
 2283TIP3    H128340   5.510   6.699  16.010 -1.3718 -0.0163  0.2443
 2283TIP3    H228341   5.531   6.551  16.038 -0.3203 -0.1125 -0.9789
 2284TIP3   OH228342   3.999   1.720  14.612  0.1535  0.3175 -0.2007
 2284TIP3    H128343   3.924   1.753  14.661  0.0631  1.2751 -0.9486
 2284TIP3    H228344   4.071   1.717  14.676 -0.0112  1.3529  0.0563
 2285TIP3   OH228345   2.615   2.892  14.645  0.0518 -0.5751  0.0993
 2285TIP3    H128346   2.690   2.859  14.694  0.0805 -0.1990  0.3092
 2285TIP3    H228347   2.652   2.936  14.569  0.0983  0.5594  0.7662
 2286TIP3   OH228348   5.299   4.146  14.962 -0.7239  0.2929 -0.3205
 2286TIP3    H128349   5.288   4.169  15.054 -0.4432  2.1724 -0.7193
 2286TIP3    H228350   5.373   4.086  14.961 -1.5965 -0.8565  0.8063
 2287TIP3   OH228351   2.804   5.954  12.459 -0.1878  0.1667  0.4111
 2287TIP3    H128352   2.759   5.937  12.376 -1.3171  1.2764  0.7665
 2287TIP3    H228353   2.838   6.043  12.449  1.5364 -0.4731  0.3435
 2288TIP3   OH228354   0.463   4.781  14.037  0.8489 -0.0082  0.0338
 2288TIP3    H128355   0.498   4.692  14.027  1.4622  0.2242  0.0814
 2288TIP3    H228356   0.371   4.773  14.014  1.0031 -0.5714 -0.4099
 2289TIP3   OH228357   1.155   2.423   1.623  0.1192 -0.1414 -0.4047
 2289TIP3    H128358   1.187   2.443   1.711 -1.0856 -1.4507  0.3657
 2289TIP3    H228359   1.087   2.357   1.636  0.1461 -0.6182 -2.3538
 2290TIP3   OH228360   5.367   3.079   2.988 -0.1838 -0.0225 -0.3481
 2290TIP3    H128361   5.426   3.143   3.028 -1.2861  0.4714  0.5660
 2290TIP3    H228362   5.301   3.132   2.943 -2.5483 -0.3082  2.4516
 2291TIP3   OH228363   5.645   1.256  13.464  0.0288  0.3427  0.4933
 2291TIP3    H128364   5.699   1.258  13.543  0.6325  0.1040  0.0907
 2291TIP3    H228365   5.690   1.313  13.402  0.3902 -0.6585 -0.1948
 2292TIP3   OH228366   1.014   1.252   1.064  0.4272  0.2523 -0.1714
 2292TIP3    H128367   0.919   1.248   1.064  0.4419 -2.9542 -0.6953
 2292TIP3    H228368   1.037   1.289   0.979 -0.3308  1.1076 -0.0180
 2293TIP3   OH228369   6.455   0.475   4.905  0.0516  0.4911  0.1550
 2293TIP3    H128370   6.523   0.452   4.841  0.5921  1.2874  0.4252
 2293TIP3    H228371   6.421   0.391   4.935  1.5741  0.0223  0.7009
 2294TIP3   OH228372   1.512   2.880  12.226  0.1413  0.2112 -0.1299
 2294TIP3    H128373   1.433   2.843  12.264 -0.6285  1.8121 -0.0801
 2294TIP3    H228374   1.550   2.809  12.175 -1.5156 -0.4921 -0.4436
 2295TIP3   OH228375   5.259   3.483   2.463 -0.5076 -0.4719  0.1248
 2295TIP3    H128376   5.256   3.388   2.452 -0.8530 -0.3175 -1.3335
 2295TIP3    H228377   5.167   3.511   2.455 -0.6339 -0.1389  2.1531
 2296TIP3   OH228378   4.814   0.168  10.961 -0.2640 -0.0081  0.0659
 2296TIP3    H128379   4.831   0.222  10.884  0.9583  0.3503  0.5613
 2296TIP3    H228380   4.724   0.188  10.985 -0.3416  0.6016 -0.6980
 2297TIP3   OH228381   4.302   4.251   0.966 -0.5968 -0.1181  0.9892
 2297TIP3    H128382   4.210   4.241   0.992 -0.8840  0.6690  0.3211
 2297TIP3    H228383   4.315   4.345   0.960 -0.5682 -0.2200 -1.6855
 2298TIP3   OH228384   2.638   4.502   1.841  0.1574 -0.6211  0.2731
 2298TIP3    H128385   2.625   4.407   1.850  1.7069 -1.1714 -2.4035
 2298TIP3    H228386   2.696   4.525   1.915  0.6328 -1.9669  0.3424
 2299TIP3   OH228387   6.087   5.329  12.975  0.0410  0.0501 -0.0473
 2299TIP3    H128388   6.146   5.272  13.023 -0.2393  0.2267  0.5173
 2299TIP3    H228389   6.143   5.375  12.913  0.3091 -0.6485 -0.3407
 2300TIP3   OH228390   1.006   2.488   3.162 -0.2059  0.9114 -0.5813
 2300TIP3    H128391   1.044   2.421   3.105 -3.7009 -2.1668  0.2551
 2300TIP3    H228392   1.056   2.482   3.243  0.1731 -0.0496 -0.8707
 2301TIP3   OH228393   5.756   2.519   2.135  0.0693  0.2655  0.2577
 2301TIP3    H128394   5.670   2.478   2.142 -0.2314  0.5850 -1.1819
 2301TIP3    H228395   5.817   2.454   2.169 -0.5179 -0.8753 -0.7851
 2302TIP3   OH228396   4.116   5.773  11.355  0.1838  0.5325  0.1710
 2302TIP3    H128397   4.124   5.682  11.324  1.8314  0.6383  0.2133
 2302TIP3    H228398   4.089   5.822  11.277 -1.6777 -0.0876  0.3545
 2303TIP3   OH228399   1.861   0.163   3.427 -0.2124 -0.4146  0.0321
 2303TIP3    H128400   1.944   0.180   3.382 -0.4906  1.5353  0.1921
 2303TIP3    H228401   1.886   0.144   3.517  0.1644 -1.6758 -0.3192
 2304TIP3   OH228402   3.576   1.648  16.592 -0.2542  0.5825 -0.3191
 2304TIP3    H128403   3.546   1.703  16.664 -0.5410 -0.7491  0.6168
 2304TIP3    H228404   3.590   1.562  16.632  0.4501  0.0367 -1.6773
 2305TIP3   OH228405   5.778   0.720   0.519 -0.3648 -0.1665  0.4571
 2305TIP3    H128406   5.699   0.769   0.540 -0.2257  1.2542 -1.9752
 2305TIP3    H228407   5.771   0.701   0.426  1.9829 -0.3346  0.2569
 2306TIP3   OH228408   0.800   2.551  16.341  0.1946 -0.0026 -0.1141
 2306TIP3    H128409   0.742   2.475  16.346 -0.1680  0.1591 -1.4118
 2306TIP3    H228410   0.767   2.601  16.266  1.0332  0.9287  0.1194
 2307TIP3   OH228411   3.366   4.358   3.984 -0.3736  0.2609  0.2712
 2307TIP3    H128412   3.403   4.415   4.052  0.1089  2.5909 -1.7967
 2307TIP3    H228413   3.443   4.321   3.940 -0.6450  0.0864 -0.0608
 2308TIP3   OH228414   0.369   3.384  12.371 -0.2608 -0.2702  0.2606
 2308TIP3    H128415   0.282   3.416  12.349 -0.5615 -2.0177 -1.2783
 2308TIP3    H228416   0.420   3.394  12.291  1.6092  2.4809  1.6154
 2309TIP3   OH228417   5.053   2.181  12.645 -0.2147 -0.0211 -0.1776
 2309TIP3    H128418   5.000   2.103  12.662  0.5287 -0.4412  0.2642
 2309TIP3    H228419   4.998   2.234  12.587 -0.9946 -0.5738  0.0271
 2310TIP3   OH228420   3.724   2.410  14.615  0.0364 -0.2268 -0.5577
 2310TIP3    H128421   3.716   2.463  14.536 -1.1595  0.2218 -0.1438
 2310TIP3    H228422   3.653   2.346  14.609 -0.3941  0.1372  0.3862
 2311TIP3   OH228423   3.565   6.328  10.035  0.2926  0.0705  0.3454
 2311TIP3    H128424   3.550   6.246  10.082  0.4024 -0.7417 -0.9854
 2311TIP3    H228425   3.658   6.324  10.009  0.5500  1.0557  1.0845
 2312TIP3   OH228426   0.645   0.142   5.161  0.0952 -0.0379 -0.1369
 2312TIP3    H128427   0.643   0.233   5.133 -0.8274  0.3906  1.2024
 2312TIP3    H228428   0.571   0.134   5.221  0.7576 -1.3990  0.5442
 2313TIP3   OH228429   5.300   2.228  12.734  0.4267 -0.2421  0.4214
 2313TIP3    H128430   5.208   2.213  12.710  0.4688 -1.7268  1.0687
 2313TIP3    H228431   5.346   2.152  12.698  1.0345 -0.6524  1.9950
 2314TIP3   OH228432   2.652   6.259  13.630  0.5697 -0.2669  0.1023
 2314TIP3    H128433   2.685   6.348  13.643  1.2160 -0.6176  1.0179
 2314TIP3    H228434   2.593   6.266  13.556 -1.4164  1.4621  1.7047
 2315TIP3   OH228435   3.016   4.952  11.394  0.2755 -0.1087  0.2342
 2315TIP3    H128436   2.923   4.931  11.405 -0.0011  0.8510 -0.0885
 2315TIP3    H228437   3.020   4.995  11.308  0.6081  1.9193  1.1902
 2316TIP3   OH228438   0.285   2.001   4.870 -0.0750 -0.1909 -0.5949
 2316TIP3    H128439   0.281   1.948   4.790 -0.5734 -0.4623 -0.3949
 2316TIP3    H228440   0.196   1.997   4.905  0.4082 -1.0143  0.5756
 2317TIP3   OH228441   6.160   0.054  13.727  0.1204 -0.1969  0.1173
 2317TIP3    H128442   6.154   0.091  13.815  1.1808 -1.8463  0.9243
 2317TIP3    H228443   6.070   0.028  13.706 -0.7764  3.1878 -0.7184
 2318TIP3   OH228444   0.496   1.331   3.567  0.7012 -0.3802 -0.4825
 2318TIP3    H128445   0.588   1.321   3.542  0.5533 -0.8951 -0.8150
 2318TIP3    H228446   0.498   1.338   3.663  1.2409  1.3196 -0.5764
 2319TIP3   OH228447   4.744   3.777  16.610  0.8620 -0.0527 -0.0362
 2319TIP3    H128448   4.703   3.730  16.538  0.6009  0.5505 -0.2870
 2319TIP3    H228449   4.805   3.837  16.568  1.9602 -0.8626  0.3218
 2320TIP3   OH228450   4.308   3.009  16.788 -0.4886  1.2356 -0.3796
 2320TIP3    H128451   4.345   2.933  16.744 -0.1549  1.2619 -0.1451
 2320TIP3    H228452   4.325   3.082  16.728 -0.2835  1.2246 -0.3344
 2321TIP3   OH228453   0.647   5.348   3.958  0.1093 -0.1245 -0.2765
 2321TIP3    H128454   0.666   5.323   4.049  0.0709  0.6717 -0.0458
 2321TIP3    H228455   0.623   5.266   3.916 -0.6688 -0.3873  0.6389
 2322TIP3   OH228456   4.254   5.833  16.941  0.0724 -0.1414 -0.1608
 2322TIP3    H128457   4.325   5.879  16.897 -0.3003  1.0375  0.4477
 2322TIP3    H228458   4.236   5.758  16.885  0.0938  0.9269 -1.6420
 2323TIP3   OH228459   0.636   2.585  12.331  0.3825 -0.1007  0.6683
 2323TIP3    H128460   0.652   2.494  12.306 -2.1793 -0.1125 -1.3608
 2323TIP3    H228461   0.597   2.579  12.418 -1.2942 -1.1226 -0.1160
 2324TIP3   OH228462   3.428   1.325  16.438  0.0401  0.1411  0.1614
 2324TIP3    H128463   3.511   1.297  16.477  0.4702 -0.6236 -1.2381
 2324TIP3    H228464   3.366   1.257  16.463 -0.4714  1.2484  2.1081
 2325TIP3   OH228465   6.617   6.467  15.177 -0.5671  0.2287  0.5089
 2325TIP3    H128466   6.709   6.458  15.200 -0.8931 -0.4273  1.6737
 2325TIP3    H228467   6.606   6.559  15.157  0.5690  0.1157 -0.7375
 2326TIP3   OH228468   5.011   5.323  12.270 -0.0612  0.2636 -0.1017
 2326TIP3    H128469   5.061   5.286  12.343  2.1650  0.8220 -1.2503
 2326TIP3    H228470   4.932   5.359  12.311  0.3911 -0.7701  1.7904
 2327TIP3   OH228471   2.692   5.117  14.657  0.3054 -0.0558  0.2066
 2327TIP3    H128472   2.622   5.064  14.696 -0.1525 -1.8143 -2.6941
 2327TIP3    H228473   2.655   5.205  14.649 -1.1938 -0.7038 -0.2714
 2328TIP3   OH228474   6.444   6.211   0.056 -0.3073  0.3560  0.5534
 2328TIP3    H128475   6.361   6.232   0.099 -0.8499  0.7243 -0.6607
 2328TIP3    H228476   6.511   6.237   0.120 -1.1004 -2.2960  2.6601
 2329TIP3   OH228477   0.148   6.397  16.303  0.0825 -0.1525  0.3879
 2329TIP3    H128478   0.115   6.391  16.213 -0.6886  1.3938  0.5354
 2329TIP3    H228479   0.088   6.343  16.354 -0.7160  0.6069  0.2668
 2330TIP3   OH228480   4.225   4.355  11.794 -0.2635 -0.2656 -0.1941
 2330TIP3    H128481   4.129   4.356  11.793 -0.3526  0.3175  2.6945
 2330TIP3    H228482   4.248   4.263  11.780 -1.1983 -0.4071 -0.9498
 2331TIP3   OH228483   3.759   1.428   1.327  0.0236  0.3278 -0.3752
 2331TIP3    H128484   3.686   1.403   1.383  0.6037  0.3459  0.4089
 2331TIP3    H228485   3.832   1.372   1.355  0.7874  1.4806  0.0351
 2332TIP3   OH228486   4.520   2.699   4.675  0.3224  0.2602 -0.2598
 2332TIP3    H128487   4.557   2.732   4.757  0.4519  2.6082 -1.1676
 2332TIP3    H228488   4.435   2.741   4.669  1.1232  1.7634 -2.2063
 2333TIP3   OH228489   2.958   0.117  16.685 -0.3536 -0.3655 -0.7311
 2333TIP3    H128490   3.044   0.112  16.645 -0.0665  0.7699 -0.2990
 2333TIP3    H228491   2.971   0.169  16.764 -1.5118  0.2000 -0.8884
 2334TIP3   OH228492   4.490   3.894   1.960 -1.0316  0.6371  0.6619
 2334TIP3    H128493   4.574   3.890   2.005 -1.7962  2.4227  2.3646
 2334TIP3    H228494   4.490   3.817   1.903  0.9934 -0.3987  1.9449
 2335TIP3   OH228495   3.464   6.748  12.885 -0.1188 -0.6123 -0.4110
 2335TIP3    H128496   3.378   6.717  12.856 -1.4256  0.6969  1.7529
 2335TIP3    H228497   3.446   6.833  12.925  2.2656 -0.1592 -0.1528
 2336TIP3   OH228498   1.409   6.732   1.348  0.0912 -0.4546  0.2024
 2336TIP3    H128499   1.393   6.664   1.282 -0.7217 -0.6570  0.5924
 2336TIP3    H228500   1.462   6.797   1.302  1.5742 -1.7057  0.0541
 2337TIP3   OH228501   1.190   3.354  14.998  0.5292 -0.2321 -0.1957
 2337TIP3    H128502   1.176   3.449  15.002 -0.6454 -0.3348 -1.2565
 2337TIP3    H228503   1.256   3.337  15.066  2.4280  1.6211 -1.4485
 2338TIP3   OH228504   1.751   1.849  13.903 -0.1745  0.5408  0.2833
 2338TIP3    H128505   1.833   1.888  13.872 -0.5319  1.9274  1.0483
 2338TIP3    H228506   1.696   1.923  13.929 -1.6196 -0.3693 -0.0353
 2339TIP3   OH228507   0.879   5.110  12.255  0.7106  0.4880  0.7360
 2339TIP3    H128508   0.823   5.125  12.180  2.2561  1.1377 -0.3458
 2339TIP3    H228509   0.835   5.155  12.328 -0.7485 -0.0581  0.2192
 2340TIP3   OH228510   1.416   4.533  15.874 -0.0844  0.3621  0.4175
 2340TIP3    H128511   1.472   4.466  15.835 -0.8749 -0.3168  0.4215
 2340TIP3    H228512   1.396   4.500  15.961  0.9517  1.4541  1.0975
 2341TIP3   OH228513   4.233   3.979  16.085 -0.4529 -0.8983 -0.2092
 2341TIP3    H128514   4.263   4.037  16.155 -0.3643 -1.9713  0.6630
 2341TIP3    H228515   4.310   3.925  16.064 -0.4673 -0.5729 -1.1667
 2342TIP3   OH228516   6.676   0.076   4.905 -0.5998  0.3683  0.4788
 2342TIP3    H128517   6.697  -0.006   4.948  1.1052  0.7077  0.3449
 2342TIP3    H228518   6.759   0.122   4.897 -1.4503  1.9399  0.1829
 2343TIP3   OH228519   2.140   5.706  13.509 -0.8043 -0.3687  0.1232
 2343TIP3    H128520   2.191   5.665  13.579 -0.0995 -0.3467 -0.3605
 2343TIP3    H228521   2.099   5.633  13.463  0.9904 -0.6458 -1.1578
 2344TIP3   OH228522   3.569   0.982  15.199 -0.3781  0.0514  0.1521
 2344TIP3    H128523   3.553   0.922  15.271 -0.7546 -0.5755 -0.4404
 2344TIP3    H228524   3.663   1.002  15.204 -0.2309 -0.6560  0.3024
 2345TIP3   OH228525   2.084   0.826  13.057 -0.1577  0.7014  0.2443
 2345TIP3    H128526   2.098   0.827  13.151 -1.2411  0.2032  0.4355
 2345TIP3    H228527   2.149   0.886  13.021  0.0329  1.1580  1.3361
 2346TIP3   OH228528   4.274   5.149   4.559  0.2415 -0.0292  0.0133
 2346TIP3    H128529   4.228   5.225   4.524  0.3882  1.0615  2.0539
 2346TIP3    H228530   4.242   5.075   4.506 -0.1442  1.3558 -1.7986
 2347TIP3   OH228531   6.453   2.236  10.890 -0.0964  0.1848 -0.0268
 2347TIP3    H128532   6.465   2.199  10.802  1.2099  0.8277 -0.1397
 2347TIP3    H228533   6.359   2.249  10.898 -0.4173 -1.4110 -0.6935
 2348TIP3   OH228534   3.432   0.483   1.261  0.4897  0.4689  0.2148
 2348TIP3    H128535   3.525   0.469   1.279  0.3713  1.1916  1.4398
 2348TIP3    H228536   3.394   0.395   1.263  0.5484  0.4049  3.3125
 2349TIP3   OH228537   3.891   4.135  10.869 -0.4960  0.2422 -0.1387
 2349TIP3    H128538   3.825   4.083  10.913  0.3510  0.2338  1.1649
 2349TIP3    H228539   3.850   4.220  10.854 -0.9641  0.0726  0.1793
 2350TIP3   OH228540   4.287   2.952  16.152 -0.0156  0.9060  0.1885
 2350TIP3    H128541   4.352   2.887  16.178 -1.0278  0.2116  1.0192
 2350TIP3    H228542   4.306   3.029  16.207  0.0041  0.6514  0.5376
 2351TIP3   OH228543   4.667   4.507   2.021  0.4342  0.1280  0.2460
 2351TIP3    H128544   4.686   4.591   1.980  0.9891 -0.3526 -0.4983
 2351TIP3    H228545   4.581   4.483   1.986 -0.0437  0.7029  0.9971
 2352TIP3   OH228546   5.125   6.558  14.449 -0.0649  0.2432 -0.2437
 2352TIP3    H128547   5.195   6.543  14.386  1.2676  0.9850  0.9925
 2352TIP3    H228548   5.092   6.470  14.469  0.4942 -0.1133 -0.8586
 2353TIP3   OH228549   5.117   5.100  15.286 -0.0829  0.2485  0.4269
 2353TIP3    H128550   5.197   5.123  15.240 -0.0395 -0.8276 -0.0627
 2353TIP3    H228551   5.124   5.006  15.303 -1.1527  0.1678  0.5359
 2354TIP3   OH228552   5.234   2.090   1.031 -1.2397  0.0957  0.0644
 2354TIP3    H128553   5.151   2.139   1.032 -2.0547 -1.2359  0.7209
 2354TIP3    H228554   5.225   2.026   1.102  0.4848  0.1093  0.3451
 2355TIP3   OH228555   0.569   4.001  12.194  0.5834 -0.0329 -0.2569
 2355TIP3    H128556   0.604   3.969  12.277  1.8965 -0.3836 -0.9184
 2355TIP3    H228557   0.494   4.054  12.219 -0.3309 -1.8200  1.0203
 2356TIP3   OH228558   2.262   6.834   5.198 -0.0789 -0.2023  0.1753
 2356TIP3    H128559   2.210   6.889   5.140 -2.8352 -0.4662  2.2117
 2356TIP3    H228560   2.261   6.881   5.282  2.0009 -0.8434  0.6064
 2357TIP3   OH228561   5.769   5.483   0.372  0.3196  0.1690  0.1865
 2357TIP3    H128562   5.843   5.455   0.427 -0.6887 -0.0297  1.5005
 2357TIP3    H228563   5.766   5.578   0.383  0.1598  0.1365  0.4416
 2358TIP3   OH228564   6.259   1.395  10.258 -0.1406 -0.6452 -0.5357
 2358TIP3    H128565   6.292   1.433  10.340  0.3506 -1.9433 -0.1111
 2358TIP3    H228566   6.332   1.403  10.197  0.4793 -2.1507 -0.0320
 2359TIP3   OH228567   6.000   3.575  14.951  0.0442 -0.2146 -0.1281
 2359TIP3    H128568   5.908   3.556  14.967  0.0809  0.5860  1.1497
 2359TIP3    H228569   6.021   3.527  14.870 -1.7557  0.4769 -1.0535
 2360TIP3   OH228570   5.194   4.506   1.410  0.1997 -0.4302 -0.0016
 2360TIP3    H128571   5.120   4.549   1.367  0.4315 -1.1441 -1.1340
 2360TIP3    H228572   5.270   4.531   1.357  0.3401 -2.2376 -0.7335
 2361TIP3   OH228573   3.790   1.946  14.534  0.3647  0.5560 -0.0348
 2361TIP3    H128574   3.764   1.906  14.617 -1.9226  0.2459 -0.8388
 2361TIP3    H228575   3.875   1.987  14.553  0.6469 -0.8306  2.0106
 2362TIP3   OH228576   0.194   0.438  13.825 -0.1988  0.0872  0.0489
 2362TIP3    H128577   0.247   0.452  13.747 -0.0182  0.2173  0.1976
 2362TIP3    H228578   0.161   0.525  13.848 -1.8159 -0.2011 -1.0037
 2363TIP3   OH228579   1.232   1.194   0.759 -0.8256 -0.1456 -0.2944
 2363TIP3    H128580   1.290   1.122   0.781 -0.5043 -0.4672 -2.0103
 2363TIP3    H228581   1.278   1.272   0.791 -1.4083 -0.6845  2.0178
 2364TIP3   OH228582   0.365   3.273   0.772  0.0626 -0.8614 -0.3325
 2364TIP3    H128583   0.353   3.334   0.699  0.0036  0.5959  0.8403
 2364TIP3    H228584   0.457   3.284   0.798  0.5895 -2.6682 -1.2572
 2365TIP3   OH228585   4.933   4.249   4.093  0.0977  0.7227  0.1867
 2365TIP3    H128586   4.849   4.212   4.121  0.9894 -2.2214 -0.5999
 2365TIP3    H228587   4.917   4.343   4.085 -3.1504  0.2646 -0.0570
 2366TIP3   OH228588   5.156   0.482  11.988 -0.1427  0.5943 -0.3583
 2366TIP3    H128589   5.198   0.461  11.905  2.0701  2.9278  0.0311
 2366TIP3    H228590   5.085   0.419  11.996  0.7953 -0.9673 -3.0550
 2367TIP3   OH228591   4.416   1.801   2.302  0.2377 -0.0425  0.1954
 2367TIP3    H128592   4.417   1.720   2.354 -0.0183 -0.0150  0.2421
 2367TIP3    H228593   4.405   1.870   2.367 -0.8720 -0.0591  0.0355
 2368TIP3   OH228594   0.755   5.291   0.491  0.1428  0.3749 -0.7553
 2368TIP3    H128595   0.766   5.385   0.504 -2.5739  0.6892 -0.1403
 2368TIP3    H228596   0.747   5.255   0.580 -1.4260 -0.0173 -1.0293
 2369TIP3   OH228597   1.519   3.265  16.080  0.3697 -0.1830 -0.7130
 2369TIP3    H128598   1.482   3.346  16.045  0.3746  0.4693  0.7216
 2369TIP3    H228599   1.571   3.293  16.155  1.5684 -1.3710 -1.0519
 2370TIP3   OH228600   5.642   3.882   5.920 -0.0426  0.2558  0.2924
 2370TIP3    H128601   5.684   3.917   5.999  0.0750 -2.9225  1.7866
 2370TIP3    H228602   5.714   3.870   5.858  0.3445  0.1290  0.7571
 2371TIP3   OH228603   5.120   1.850  17.042 -0.6482  0.4834  0.2135
 2371TIP3    H128604   5.195   1.866  17.099  0.1340 -0.8226 -0.3862
 2371TIP3    H228605   5.071   1.780  17.085  0.2982 -0.9711 -0.9451
 2372TIP3   OH228606   1.286   1.459  15.069 -0.6784 -0.0414 -0.2912
 2372TIP3    H128607   1.311   1.516  14.997 -1.4321  0.8352  0.1335
 2372TIP3    H228608   1.280   1.516  15.145 -0.3782 -0.8708  0.3772
 2373TIP3   OH228609   2.742   5.146   2.181  0.1477  0.0002  0.3767
 2373TIP3    H128610   2.723   5.176   2.092 -2.2138  1.6742  1.3237
 2373TIP3    H228611   2.824   5.097   2.173 -0.9052 -1.5554 -3.0285
 2374TIP3   OH228612   3.883   5.650  12.543  0.1537 -0.6866  0.0899
 2374TIP3    H128613   3.831   5.686  12.615 -0.9881  0.4328 -1.2302
 2374TIP3    H228614   3.832   5.575  12.512  0.3040 -0.7564  0.0088
 2375TIP3   OH228615   0.659   1.013  11.099  0.5242  0.0592 -0.0182
 2375TIP3    H128616   0.671   0.998  11.193 -0.8671  0.3987  0.2374
 2375TIP3    H228617   0.586   1.075  11.095  0.5864  0.0561 -1.3294
 2376TIP3   OH228618   0.498   1.853   3.544 -0.0521 -0.5619  0.2556
 2376TIP3    H128619   0.545   1.936   3.531  1.1350 -1.3447 -0.6314
 2376TIP3    H228620   0.530   1.820   3.628  2.5836 -2.0438 -1.2188
 2377TIP3   OH228621   3.523   5.143   1.242  0.1092 -0.0863 -0.3255
 2377TIP3    H128622   3.513   5.131   1.337  1.6013  0.3784 -0.0846
 2377TIP3    H228623   3.535   5.054   1.209  0.4421 -0.1916  0.0560
 2378TIP3   OH228624   3.699   0.021   0.976  0.0073  0.0937  0.4710
 2378TIP3    H128625   3.644  -0.030   0.916 -1.7729  0.4750  1.7209
 2378TIP3    H228626   3.668   0.111   0.966  1.4437  0.5859  0.1276
 2379TIP3   OH228627   2.853   5.297   0.387 -0.2616  0.3999  0.3001
 2379TIP3    H128628   2.862   5.391   0.375 -0.6756  0.2548 -1.3391
 2379TIP3    H228629   2.939   5.268   0.416  0.6548  0.9280 -1.7448
 2380TIP3   OH228630   4.867   5.936  14.021  0.1321 -0.3548  0.3529
 2380TIP3    H128631   4.962   5.925  14.022  0.2000  0.1875  0.6225
 2380TIP3    H228632   4.834   5.868  14.079  0.4948  0.5304  1.6475
 2381TIP3   OH228633   6.296   4.020   5.169 -0.2903  0.0155  0.8503
 2381TIP3    H128634   6.226   4.066   5.217 -1.6178 -1.0160 -0.0352
 2381TIP3    H228635   6.376   4.067   5.193 -1.0161  0.1218  3.3429
 2382TIP3   OH228636   4.329   4.685  16.199 -0.0897 -0.7908 -0.2210
 2382TIP3    H128637   4.392   4.703  16.129  0.5177 -1.2704  0.1901
 2382TIP3    H228638   4.383   4.674  16.277 -0.7163 -0.8538  0.2096
 2383TIP3   OH228639   3.777   2.018  11.175 -0.5502 -0.5570  0.3050
 2383TIP3    H128640   3.713   2.077  11.215 -0.5951  1.7106 -2.7272
 2383TIP3    H228641   3.852   2.074  11.156  1.3227 -2.5675  1.2746
 2384TIP3   OH228642   4.365   5.823   0.989 -0.1000 -0.0660 -0.1133
 2384TIP3    H128643   4.366   5.918   0.980  1.0636 -0.0317  0.1814
 2384TIP3    H228644   4.340   5.807   1.080  1.5752  0.0455  0.4025
 2385TIP3   OH228645   2.479   3.509  15.391  0.4566 -0.3836 -0.1925
 2385TIP3    H128646   2.420   3.515  15.316  0.9922 -2.2007 -0.8251
 2385TIP3    H228647   2.427   3.469  15.460  0.2827  0.2433  0.0444
 2386TIP3   OH228648   2.908   2.001  11.679  0.1885  0.0692  0.2438
 2386TIP3    H128649   2.854   2.077  11.701  2.2871  1.1930  1.8312
 2386TIP3    H228650   2.967   2.032  11.610  0.8601 -0.1966  0.6877
 2387TIP3   OH228651   1.224   3.213   4.917 -0.4752  0.2704 -0.4615
 2387TIP3    H128652   1.310   3.209   4.876 -0.1072  0.8185  0.2438
 2387TIP3    H228653   1.184   3.293   4.880  0.1497  1.1883  0.7710
 2388TIP3   OH228654   3.578   4.094   3.490  0.0318  0.2607 -0.3874
 2388TIP3    H128655   3.568   4.026   3.423  0.2406  1.7926 -2.0459
 2388TIP3    H228656   3.489   4.127   3.505  0.1347  0.7841 -0.8824
 2389TIP3   OH228657   5.010   4.511  13.387  0.1652  0.0318 -0.4294
 2389TIP3    H128658   4.989   4.598  13.421 -0.4905 -0.1894 -0.2561
 2389TIP3    H228659   4.926   4.465  13.385  0.5582 -0.7105 -0.1963
 2390TIP3   OH228660   5.804   2.130  14.477  0.0021  0.3569 -0.2053
 2390TIP3    H128661   5.846   2.065  14.533  0.9412  1.2933  0.2180
 2390TIP3    H228662   5.711   2.109  14.481  0.3641 -1.7182 -1.0702
 2391TIP3   OH228663   4.332   1.928   3.261 -0.1611  0.1391 -0.0200
 2391TIP3    H128664   4.386   1.974   3.197 -0.4986  1.1495  0.3915
 2391TIP3    H228665   4.275   1.871   3.209  0.3726  0.0740 -0.5329
 2392TIP3   OH228666   1.328   3.253   0.545 -0.6240  0.0652  0.0197
 2392TIP3    H128667   1.232   3.247   0.543 -0.6465  0.5502 -1.4357
 2392TIP3    H228668   1.349   3.329   0.491  0.6095 -0.3965 -0.1932
 2393TIP3   OH228669   0.908   5.755  11.299 -0.5511 -0.5861 -0.1216
 2393TIP3    H128670   0.918   5.736  11.206 -1.2491 -2.1049  0.0802
 2393TIP3    H228671   0.991   5.797  11.324 -1.4429  2.6368 -2.0088
 2394TIP3   OH228672   5.543   5.585  14.909  0.3031  0.1644  0.2260
 2394TIP3    H128673   5.481   5.657  14.899  0.6478  0.4940  0.4942
 2394TIP3    H228674   5.623   5.625  14.941  1.0051 -0.1119 -1.1301
 2395TIP3   OH228675   6.664   4.519   1.205 -0.1693  0.1085  0.2910
 2395TIP3    H128676   6.715   4.516   1.286 -2.2555 -0.5315  1.6833
 2395TIP3    H228677   6.681   4.435   1.163  0.2193  0.0661  0.5275
 2396TIP3   OH228678   5.595   6.311  11.476  0.1324 -0.6004 -0.0263
 2396TIP3    H128679   5.569   6.333  11.386 -0.0709 -0.4470  0.0693
 2396TIP3    H228680   5.514   6.317  11.526  0.3920  0.1313  0.3247
 2397TIP3   OH228681   5.086   0.880   4.551 -0.0959 -0.7152 -0.2307
 2397TIP3    H128682   5.127   0.856   4.635  0.4292 -0.8429 -0.5203
 2397TIP3    H228683   4.992   0.878   4.569  0.0294  1.5830  0.9899
 2398TIP3   OH228684   0.603   2.162  15.436  0.0730  0.6858 -0.2827
 2398TIP3    H128685   0.545   2.154  15.511  1.0375 -0.5573  0.3686
 2398TIP3    H228686   0.691   2.152  15.472  0.6351  1.3137 -1.4106
 2399TIP3   OH228687   1.837   1.744   4.675  0.1259 -0.6444  0.3157
 2399TIP3    H128688   1.838   1.837   4.654  1.7002 -0.8170 -0.5455
 2399TIP3    H228689   1.754   1.712   4.640  0.4155  0.0824 -1.0844
 2400TIP3   OH228690   3.054   4.020  13.578  0.0079 -0.0213  0.7842
 2400TIP3    H128691   2.996   4.095  13.564 -0.3919 -0.4069  0.3590
 2400TIP3    H228692   3.015   3.949  13.527  0.8430 -0.2927  0.5074
 2401TIP3   OH228693   5.027   6.060  12.492 -0.3176 -0.3190  0.1195
 2401TIP3    H128694   5.078   6.056  12.572  0.4910 -1.9219 -0.4164
 2401TIP3    H228695   4.956   5.996  12.505  0.0690 -0.9071 -0.5781
 2402TIP3   OH228696   1.392   4.022  15.787  0.0657  0.0842  0.1428
 2402TIP3    H128697   1.367   3.931  15.804 -1.5210  0.3427 -0.5839
 2402TIP3    H228698   1.431   4.020  15.700  2.0113 -0.1987  0.9749
 2403TIP3   OH228699   2.850   6.637   4.712 -0.7704  0.1613 -0.3946
 2403TIP3    H128700   2.904   6.681   4.646 -2.4442  2.7214 -0.2119
 2403TIP3    H228701   2.910   6.577   4.755  0.6274 -0.9609 -3.5726
 2404TIP3   OH228702   0.999   4.342   4.499 -0.4048  0.0683 -0.4364
 2404TIP3    H128703   0.976   4.419   4.552 -0.7239  0.8862 -1.7064
 2404TIP3    H228704   1.029   4.379   4.416  1.0342 -1.1503 -0.4948
 2405TIP3   OH228705   2.274   5.491  11.058 -0.1076 -0.0533 -0.0827
 2405TIP3    H128706   2.197   5.493  11.000 -0.4083 -0.9367  0.2835
 2405TIP3    H228707   2.261   5.414  11.112  0.9158 -0.0554  0.1632
 2406TIP3   OH228708   4.864   3.387   5.516  0.1153 -0.0958  0.1460
 2406TIP3    H128709   4.801   3.317   5.507 -0.4400  0.3192  0.6777
 2406TIP3    H228710   4.935   3.349   5.569  0.2788 -0.5398 -0.3904
 2407TIP3   OH228711   6.036   5.050  13.242 -0.0526 -0.0888  0.1796
 2407TIP3    H128712   6.053   5.076  13.333 -0.4550  1.3034 -0.1197
 2407TIP3    H228713   6.109   5.088  13.192 -0.1770 -0.2968 -0.1603
 2408TIP3   OH228714   5.608   2.351   4.819 -0.3436 -0.1501 -0.2623
 2408TIP3    H128715   5.673   2.346   4.750 -0.6955 -0.6622 -0.5626
 2408TIP3    H228716   5.596   2.444   4.835  0.6270 -0.0525 -0.0395
 2409TIP3   OH228717   5.723   5.610  16.901  0.6300  0.5193  0.0526
 2409TIP3    H128718   5.783   5.683  16.913 -0.2036  1.3050 -0.3909
 2409TIP3    H228719   5.736   5.583  16.810 -0.3263  1.3111 -0.3415
 2410TIP3   OH228720   5.418   3.337  11.102  0.3908  0.3918 -0.3949
 2410TIP3    H128721   5.386   3.271  11.163  2.1468  0.9043  1.1627
 2410TIP3    H228722   5.405   3.299  11.015 -1.7206 -0.5618  0.2909
 2411TIP3   OH228723   5.505   3.195   4.895  0.2610 -0.3109  0.1719
 2411TIP3    H128724   5.564   3.188   4.969  0.1669 -2.1508  0.1269
 2411TIP3    H228725   5.421   3.164   4.929 -0.6014  1.7904  0.1027
 2412TIP3   OH228726   6.814   2.919   2.218 -0.0701  0.3622 -0.5606
 2412TIP3    H128727   6.749   2.858   2.183 -0.7958  0.8900 -0.1553
 2412TIP3    H228728   6.771   3.004   2.214  0.6074  0.7213 -0.3028
 2413TIP3   OH228729   1.176   0.017  13.398  0.3511 -0.2929 -0.5473
 2413TIP3    H128730   1.226  -0.064  13.392 -1.3041 -1.5117  1.1574
 2413TIP3    H228731   1.220   0.066  13.468 -0.2428 -0.9525  0.3076
 2414TIP3   OH228732   4.383   0.942   1.119  0.0503  0.5999 -0.2794
 2414TIP3    H128733   4.435   0.886   1.062 -0.9068 -0.6680  0.0460
 2414TIP3    H228734   4.294   0.906   1.114 -0.3198  1.2463  1.0097
 2415TIP3   OH228735   2.753   3.742  10.819  0.4793  0.1375  0.2306
 2415TIP3    H128736   2.727   3.735  10.727  1.2626  0.4922 -0.0249
 2415TIP3    H228737   2.670   3.752  10.866 -0.0599 -1.7821 -0.2415
 2416TIP3   OH228738   1.327   6.096  15.593  0.1555 -0.5977  0.2704
 2416TIP3    H128739   1.420   6.108  15.579  0.1689 -2.0613 -1.2118
 2416TIP3    H228740   1.321   6.042  15.672  0.5440 -0.2654  0.5275
 2417TIP3   OH228741   3.463   3.748   0.024  0.4844 -0.1302  0.4527
 2417TIP3    H128742   3.520   3.765   0.099 -0.1940  1.4050  0.6574
 2417TIP3    H228743   3.515   3.773  -0.052  0.8266 -0.7623  0.4734
 2418TIP3   OH228744   4.671   1.516   5.053 -0.4713 -0.0153  0.6593
 2418TIP3    H128745   4.624   1.572   4.991 -0.6196 -0.8023  0.0466
 2418TIP3    H228746   4.695   1.575   5.125 -1.4336  0.6295  0.4710
 2419TIP3   OH228747   0.570   3.734   4.578 -0.0831  0.0828  0.8672
 2419TIP3    H128748   0.522   3.805   4.622 -0.2982  1.1687 -1.0205
 2419TIP3    H228749   0.632   3.779   4.521 -0.2859 -1.2450 -0.4466
 2420TIP3   OH228750   4.398   4.620   0.185  0.1947 -0.4524  0.2887
 2420TIP3    H128751   4.348   4.687   0.231 -0.6002  0.0022 -1.1553
 2420TIP3    H228752   4.478   4.664   0.156 -0.0961 -0.2391 -0.2199
 2421TIP3   OH228753   5.441   2.568  17.068  0.0268  0.2032  0.2477
 2421TIP3    H128754   5.517   2.626  17.077  0.0421  0.2119  0.0699
 2421TIP3    H228755   5.410   2.583  16.978 -0.1257  0.1250  0.2862
 2422TIP3   OH228756   5.368   2.922   4.542 -0.3688 -0.1856  0.5132
 2422TIP3    H128757   5.366   2.980   4.466  0.5171  0.0884  0.6805
 2422TIP3    H228758   5.410   2.842   4.510  1.6268  0.5702  1.0987
 2423TIP3   OH228759   2.749   4.117   4.717 -0.4408  0.1181 -0.5638
 2423TIP3    H128760   2.684   4.174   4.675  0.3512  0.0334 -1.9901
 2423TIP3    H228761   2.724   4.028   4.691 -1.4049 -0.1768  1.2751
 2424TIP3   OH228762   1.143   6.799  11.354 -0.1733  0.4802  0.2606
 2424TIP3    H128763   1.147   6.893  11.370 -1.3017  0.8082 -1.1816
 2424TIP3    H228764   1.179   6.788  11.267  2.0580 -0.7411  1.2554
 2425TIP3   OH228765   4.638   3.528  13.104 -0.7030 -0.3310  0.2851
 2425TIP3    H128766   4.613   3.600  13.162  0.8906 -0.4441  1.1806
 2425TIP3    H228767   4.734   3.528  13.105 -0.6385 -1.0983 -1.4345
 2426TIP3   OH228768   4.676   1.570   2.223  0.5195 -0.3063  0.0432
 2426TIP3    H128769   4.755   1.524   2.195  0.9127  0.0436  0.5594
 2426TIP3    H228770   4.605   1.511   2.199  0.9702 -0.8739  0.0777
 2427TIP3   OH228771   0.093   1.033   0.035  0.2127  0.1802 -0.2994
 2427TIP3    H128772   0.048   1.016  -0.047  1.0733 -0.3194 -0.6878
 2427TIP3    H228773   0.160   0.964   0.040  0.8725  0.8487  0.2923
 2428TIP3   OH228774   2.374   0.726  13.439 -0.7122 -0.4001  0.1101
 2428TIP3    H128775   2.384   0.786  13.512 -1.8040 -0.7439  0.5517
 2428TIP3    H228776   2.447   0.665  13.447 -1.3545 -1.0199  1.4876
 2429TIP3   OH228777   1.735   0.325  13.235 -0.0072  0.5062 -0.4963
 2429TIP3    H128778   1.665   0.368  13.283  0.2772  1.0935 -0.6078
 2429TIP3    H228779   1.692   0.294  13.154 -0.6131 -0.9658  0.3402
 2430TIP3   OH228780   0.023   0.820   0.591  0.1814  0.4781  0.1201
 2430TIP3    H128781   0.014   0.888   0.658 -0.7161  0.8349 -0.3411
 2430TIP3    H228782   0.011   0.867   0.508  2.9759  0.3615 -0.4364
 2431TIP3   OH228783   5.361   3.739   6.386  0.0524  0.1187 -0.9744
 2431TIP3    H128784   5.269   3.718   6.370  0.6036 -0.6385 -3.7205
 2431TIP3    H228785   5.390   3.674   6.450 -1.0105 -0.4402 -1.0442
 2432TIP3   OH228786   2.698   4.112   2.971 -0.0114 -0.4705 -0.2217
 2432TIP3    H128787   2.617   4.103   2.920 -0.2103 -0.1346  0.0322
 2432TIP3    H228788   2.756   4.043   2.937 -0.6366 -1.1382  0.0400
 2433TIP3   OH228789   6.417   1.288  11.985 -0.4716 -0.0327 -0.0021
 2433TIP3    H128790   6.344   1.240  12.024  0.4429  0.7843  2.9586
 2433TIP3    H228791   6.377   1.368  11.950 -1.2257 -0.3826  0.0376
 2434TIP3   OH228792   3.919   3.208   3.294 -0.5633  0.6219  0.2108
 2434TIP3    H128793   3.903   3.220   3.388  0.7011 -0.5807  0.6203
 2434TIP3    H228794   3.927   3.113   3.284  0.8500  0.8369 -0.8481
 2435TIP3   OH228795   4.335   4.871   0.541  0.1111  0.4094 -0.2484
 2435TIP3    H128796   4.288   4.807   0.487  0.8360  2.2566 -3.3313
 2435TIP3    H228797   4.266   4.930   0.573 -0.4048 -1.0829  1.5706
 2436TIP3   OH228798   0.921   6.001   1.705  0.3757 -0.0101  0.1991
 2436TIP3    H128799   0.917   5.912   1.671 -0.5572  0.1542 -0.1252
 2436TIP3    H228800   0.935   6.056   1.628 -1.7017  0.3585  0.0420
 2437TIP3   OH228801   3.690   2.845  16.139 -0.3361  0.0438  0.4348
 2437TIP3    H128802   3.663   2.791  16.214 -0.0301  2.1118  2.1411
 2437TIP3    H228803   3.698   2.933  16.175  0.7715  0.9622 -1.8601
 2438TIP3   OH228804   0.323   6.740  12.949 -0.3144 -0.4903 -0.0063
 2438TIP3    H128805   0.379   6.777  12.882 -2.6169  3.0340 -0.2239
 2438TIP3    H228806   0.382   6.717  13.020  1.6665  0.3983 -1.2839
 2439TIP3   OH228807   3.812   2.391   1.386  0.4253 -0.3408 -0.3769
 2439TIP3    H128808   3.744   2.367   1.449  0.7205  1.5261  0.7363
 2439TIP3    H228809   3.764   2.419   1.308 -0.2354  2.0933  0.8008
 2440TIP3   OH228810   0.372   0.704  13.861 -0.5405 -0.3998  0.1714
 2440TIP3    H128811   0.397   0.679  13.950  0.0281  1.4339  0.5774
 2440TIP3    H228812   0.326   0.787  13.872  0.4842  0.4182 -1.3131
 2441TIP3   OH228813   3.789   2.900  13.135 -0.0413  0.3205 -0.1495
 2441TIP3    H128814   3.739   2.958  13.193  0.1447  3.5945 -2.9660
 2441TIP3    H228815   3.744   2.906  13.051  1.4368 -1.7808 -1.1654
 2442TIP3   OH228816   2.564   2.490   0.975  0.4538  0.0525  0.0941
 2442TIP3    H128817   2.553   2.395   0.978  0.0128  0.0856 -0.3823
 2442TIP3    H228818   2.483   2.522   0.936  0.5142  0.6427  0.4468
 2443TIP3   OH228819   1.179   0.624   4.375  0.7850  0.9263  0.1303
 2443TIP3    H128820   1.248   0.582   4.427 -0.7621 -0.0625  1.4662
 2443TIP3    H228821   1.226   0.664   4.302  2.7739  0.2907  0.9854
 2444TIP3   OH228822   4.112   5.083  11.584  0.3316  0.3747 -0.6427
 2444TIP3    H128823   4.096   5.054  11.674  0.5816  0.0419 -0.7020
 2444TIP3    H228824   4.157   5.167  11.593  1.0543 -0.0309 -0.4474
 2445TIP3   OH228825   2.023   0.980  11.493 -0.3747 -0.1362  0.3915
 2445TIP3    H128826   2.074   1.051  11.453 -0.0475 -0.8793 -0.5489
 2445TIP3    H228827   1.985   1.019  11.572  1.4153  0.5356  0.9714
 2446TIP3   OH228828   0.915   0.632  15.460  0.4017 -0.1219 -0.0224
 2446TIP3    H128829   0.960   0.557  15.498  1.7154  1.4035  1.6371
 2446TIP3    H228830   0.979   0.670  15.399 -0.0479 -0.0395 -0.4537
 2447TIP3   OH228831   6.285   1.592   3.634  0.4782  0.4675 -0.1409
 2447TIP3    H128832   6.234   1.557   3.707  0.6413  0.7241  0.0980
 2447TIP3    H228833   6.362   1.535   3.629  0.5700  0.5777  0.0209
 2448TIP3   OH228834   3.245   4.113   3.932 -0.2041 -0.5920 -0.3681
 2448TIP3    H128835   3.286   4.199   3.926 -0.4412 -0.5357 -1.3123
 2448TIP3    H228836   3.297   4.066   3.998  0.9390 -0.2904 -1.0330
 2449TIP3   OH228837   3.956   3.723  11.672 -0.5517  0.4474 -0.3229
 2449TIP3    H128838   4.042   3.734  11.630  0.5313  0.3501  1.6975
 2449TIP3    H228839   3.905   3.670  11.611  0.2442  1.8764 -2.3156
 2450TIP3   OH228840   2.302   4.874   4.952  0.0038  0.1635  0.0276
 2450TIP3    H128841   2.306   4.965   4.924 -2.9910  0.3697 -0.0841
 2450TIP3    H228842   2.292   4.879   5.047 -0.5456  0.0045 -0.0158
 2451TIP3   OH228843   4.314   4.794   0.946  0.1679  0.0143  0.3909
 2451TIP3    H128844   4.354   4.713   0.978  0.6541  0.0419 -0.1409
 2451TIP3    H228845   4.321   4.855   1.020  0.5436 -0.1751  0.5111
 2452TIP3   OH228846   5.054   5.588   2.866  0.0196  0.4388 -0.2770
 2452TIP3    H128847   5.047   5.610   2.774 -0.0325  2.3676  0.1545
 2452TIP3    H228848   5.069   5.671   2.910 -0.4380 -0.3752  1.5165
 2453TIP3   OH228849   3.784   2.922  12.076  0.0685 -0.3633 -0.3101
 2453TIP3    H128850   3.877   2.896  12.075 -0.2686 -1.6796  0.4101
 2453TIP3    H228851   3.750   2.890  11.993  0.2229  0.0234 -0.5264
 2454TIP3   OH228852   2.161   6.010  12.761  0.0099 -0.3083  0.5683
 2454TIP3    H128853   2.082   6.034  12.712 -0.4571 -0.3900  1.2600
 2454TIP3    H228854   2.155   6.061  12.842  0.3695 -0.7560  0.8811
 2455TIP3   OH228855   0.323   0.932   2.098 -0.5800 -0.5926 -0.1858
 2455TIP3    H128856   0.239   0.905   2.061 -1.6278  0.0506  1.6024
 2455TIP3    H228857   0.306   0.942   2.192  1.1568  0.8680  0.0314
 2456TIP3   OH228858   3.921   2.245   4.105  0.6336  0.1546  0.4814
 2456TIP3    H128859   3.965   2.214   4.026 -1.0285  0.2699 -0.5349
 2456TIP3    H228860   3.954   2.334   4.118  0.9424  0.1202 -0.0508
 2457TIP3   OH228861   1.710   3.004  10.967  0.4991 -0.4223 -0.0123
 2457TIP3    H128862   1.778   2.946  10.933  1.0265  0.9592 -1.4782
 2457TIP3    H228863   1.758   3.082  10.997 -0.4280  0.9165 -1.7924
 2458TIP3   OH228864   6.743   5.234   0.921 -0.3045  0.2107 -0.3834
 2458TIP3    H128865   6.770   5.171   0.987 -0.6782 -0.6353 -1.0238
 2458TIP3    H228866   6.685   5.185   0.863 -2.5087  1.7304  0.4172
 2459TIP3   OH228867   4.968   1.513  13.629 -0.3369 -0.4854 -0.1099
 2459TIP3    H128868   4.960   1.458  13.707  0.1040 -1.1366 -0.5054
 2459TIP3    H228869   4.880   1.517  13.593 -0.5994  0.0553  0.5707
 2460TIP3   OH228870   5.634   1.524   0.819  0.1899 -0.1470 -0.5863
 2460TIP3    H128871   5.661   1.515   0.728  0.8465  1.7525 -0.6190
 2460TIP3    H228872   5.666   1.444   0.862 -1.1290 -1.6077 -2.2092
 2461TIP3   OH228873   1.005   2.861  14.756 -0.4839 -0.0906 -0.6130
 2461TIP3    H128874   0.957   2.923  14.702 -0.0416 -1.7651 -3.0990
 2461TIP3    H228875   0.973   2.775  14.729  1.6237 -1.1194 -0.0972
 2462TIP3   OH228876   3.612   3.705  14.491 -0.1724 -0.3660 -0.5700
 2462TIP3    H128877   3.674   3.640  14.456  1.8557  1.2091 -0.1128
 2462TIP3    H228878   3.625   3.782  14.435 -1.5554  0.0874 -0.2854
 2463TIP3   OH228879   6.008   2.304   0.359 -0.0951 -0.2981 -0.0362
 2463TIP3    H128880   6.055   2.282   0.279  1.3255  0.6750  0.4847
 2463TIP3    H228881   5.928   2.347   0.329 -0.1750 -1.0289 -0.9294
 2464TIP3   OH228882   1.712   2.218   5.127  0.1165 -0.1261 -0.4104
 2464TIP3    H128883   1.632   2.167   5.140 -0.3086  0.2648 -1.4291
 2464TIP3    H228884   1.684   2.296   5.080  0.8522  0.8192  0.6745
 2465TIP3   OH228885   0.648   3.885   1.804 -0.2600 -0.2986 -0.1426
 2465TIP3    H128886   0.559   3.877   1.838 -1.2579  0.2720 -2.3889
 2465TIP3    H228887   0.665   3.979   1.801  0.0001 -0.3546 -0.6467
 2466TIP3   OH228888   0.863   4.967   3.220 -0.1152 -0.0249  0.3223
 2466TIP3    H128889   0.837   4.905   3.288  1.2685 -2.8697 -1.5314
 2466TIP3    H228890   0.796   4.959   3.152  1.2779 -1.3835 -0.9687
 2467TIP3   OH228891   1.413   2.591  15.063 -0.0641  0.0974 -0.8072
 2467TIP3    H128892   1.495   2.633  15.038 -0.4245 -0.1047 -2.5161
 2467TIP3    H228893   1.436   2.531  15.134  1.2838 -0.0428 -1.3407
 2468TIP3   OH228894   4.632   0.030  12.423  0.1499 -0.0653 -0.2004
 2468TIP3    H128895   4.689   0.038  12.499  0.2532 -0.7229 -0.2019
 2468TIP3    H228896   4.692   0.018  12.349  0.0251 -0.4029 -0.2508
 2469TIP3   OH228897   5.385   6.767  12.468 -0.2350  0.9334  0.1282
 2469TIP3    H128898   5.337   6.695  12.509  0.8211 -0.5278 -1.1114
 2469TIP3    H228899   5.396   6.831  12.539 -0.4674 -0.4827  1.5018
 2470TIP3   OH228900   5.698   1.600   3.984 -0.4306  0.0344 -0.3364
 2470TIP3    H128901   5.745   1.590   3.901 -0.6605  0.7932 -0.5668
 2470TIP3    H228902   5.609   1.571   3.965 -0.4840  0.2102 -0.3599
 2471TIP3   OH228903   6.643   5.107  17.088 -0.2392  0.2816 -0.4298
 2471TIP3    H128904   6.629   5.057  17.008  0.2522  0.1260 -0.4217
 2471TIP3    H228905   6.610   5.051  17.158 -0.7348  0.4474 -0.5249
 2472TIP3   OH228906   2.414   2.789   2.090  0.9284 -0.3113  0.1456
 2472TIP3    H128907   2.334   2.818   2.133  0.2740  0.1224 -1.3011
 2472TIP3    H228908   2.483   2.803   2.155 -0.0105  0.3074  1.0394
 2473TIP3   OH228909   2.407   0.691   1.600  0.0635  0.2302 -0.5439
 2473TIP3    H128910   2.401   0.771   1.547 -2.1570 -0.5719 -1.6742
 2473TIP3    H228911   2.420   0.621   1.535  2.1401 -0.3499  0.4360
 2474TIP3   OH228912   2.481   5.439   3.835  0.0127 -0.3932  0.1064
 2474TIP3    H128913   2.534   5.493   3.894 -0.8871  2.4055 -1.4405
 2474TIP3    H228914   2.405   5.414   3.887  1.0846 -1.3845  1.2606
 2475TIP3   OH228915   0.130   3.905   1.214 -0.2183 -0.2583 -0.5470
 2475TIP3    H128916   0.091   3.826   1.177  1.3840 -0.1837 -2.5851
 2475TIP3    H228917   0.216   3.877   1.245 -0.4426  0.2874  0.6359
 2476TIP3   OH228918   2.884   1.467   1.071  0.0619  0.2736 -1.1297
 2476TIP3    H128919   2.860   1.493   0.982  0.7090 -1.7529 -1.9540
 2476TIP3    H228920   2.808   1.418   1.103  0.3132 -0.0657 -1.0485
 2477TIP3   OH228921   1.338   4.247  10.866  0.3437 -0.4545 -0.0036
 2477TIP3    H128922   1.256   4.289  10.839  0.1451 -0.8493 -0.0133
 2477TIP3    H228923   1.403   4.317  10.859  0.1714 -0.3612 -0.8367
 2478TIP3   OH228924   3.192   0.102  10.757 -0.5084 -0.2918 -0.3827
 2478TIP3    H128925   3.195   0.148  10.673  0.4350  0.1887 -0.0920
 2478TIP3    H228926   3.218   0.012  10.736  1.4924  0.2382 -0.3533
 2479TIP3   OH228927   4.005   6.266  11.641  0.9613 -0.8517 -0.3820
 2479TIP3    H128928   4.047   6.184  11.614  0.4495 -0.7415 -1.5800
 2479TIP3    H228929   3.941   6.240  11.707 -0.3073 -1.6688 -1.8708
 2480TIP3   OH228930   2.018   0.324  10.402 -0.4273 -0.2144  0.2109
 2480TIP3    H128931   2.005   0.373  10.484  0.4871  0.4782 -0.0449
 2480TIP3    H228932   1.941   0.268  10.396 -1.3260  0.9149  0.7204
 2481TIP3   OH228933   5.420   6.356   0.937 -0.1641 -0.2443 -0.1564
 2481TIP3    H128934   5.338   6.315   0.964 -0.4412  0.0620 -0.5165
 2481TIP3    H228935   5.473   6.359   1.016  0.3821 -2.4848 -0.3788
 2482TIP3   OH228936   4.836   4.632   2.215 -0.6346  0.4714 -0.4405
 2482TIP3    H128937   4.853   4.558   2.158  2.4546  0.7423 -0.0176
 2482TIP3    H228938   4.862   4.708   2.164  1.4871  0.7713  0.9982
 2483TIP3   OH228939   5.858   4.726  16.597 -0.2605 -0.1588  0.3656
 2483TIP3    H128940   5.952   4.737  16.613  0.1186 -1.0801 -1.0847
 2483TIP3    H228941   5.817   4.792  16.653  1.3851  2.4170 -1.2345
 2484TIP3   OH228942   3.867   0.763   2.494 -0.2229 -0.7701 -0.1301
 2484TIP3    H128943   3.859   0.834   2.559  0.4102 -0.2221 -0.6381
 2484TIP3    H228944   3.893   0.686   2.545  2.5320  0.1589  0.0392
 2485TIP3   OH228945   6.109   1.626  16.821  0.4086  0.1211  0.7622
 2485TIP3    H128946   6.174   1.684  16.860 -0.4439  1.7378 -0.1077
 2485TIP3    H228947   6.046   1.610  16.891 -0.1625  1.5463  0.6168
 2486TIP3   OH228948   2.330   1.421  11.819 -0.1974  0.3091 -0.3641
 2486TIP3    H128949   2.393   1.427  11.748 -0.1147 -0.0859 -0.3265
 2486TIP3    H228950   2.383   1.415  11.899 -0.2818  0.1709 -0.3164
 2487TIP3   OH228951   3.654   3.279  16.418  0.2890  1.0298  0.3845
 2487TIP3    H128952   3.565   3.244  16.420  0.8613 -0.7064 -0.9736
 2487TIP3    H228953   3.649   3.356  16.361 -0.1145  0.0742 -0.9169
 2488TIP3   OH228954   6.294   0.059  16.685 -0.0992 -0.1855  0.0903
 2488TIP3    H128955   6.220   0.117  16.703 -0.2151 -0.4322  0.4094
 2488TIP3    H228956   6.368   0.102  16.727 -0.2432 -0.4225  0.5850
 2489TIP3   OH228957   5.447   4.777  12.941  0.0192 -0.4883  0.2496
 2489TIP3    H128958   5.369   4.783  12.996 -0.0329 -0.6701  0.1953
 2489TIP3    H228959   5.519   4.766  13.003  0.1731  1.0215  0.3913
 2490TIP3   OH228960   4.540   6.638  14.122 -0.1839  0.3969  0.4785
 2490TIP3    H128961   4.461   6.622  14.173 -0.4876  0.7248  0.1142
 2490TIP3    H228962   4.594   6.560  14.136 -1.0386 -0.3265 -0.1585
 2491TIP3   OH228963   3.460   6.807  14.152  0.1146  0.2537 -0.3128
 2491TIP3    H128964   3.408   6.741  14.198 -2.1161  2.8550  1.1502
 2491TIP3    H228965   3.416   6.890  14.170  2.7724  2.2140 -2.0532
 2492TIP3   OH228966   2.067   1.442   5.163  0.4760  0.5817  0.2244
 2492TIP3    H128967   2.044   1.477   5.249 -0.6413  0.8166 -0.1472
 2492TIP3    H228968   2.061   1.347   5.173  0.3298  0.6091  0.3972
 2493TIP3   OH228969   2.654   3.366   4.749 -0.1385  0.0141 -0.0389
 2493TIP3    H128970   2.740   3.353   4.709  1.3810  0.9225  2.6609
 2493TIP3    H228971   2.671   3.427   4.821 -2.8232 -0.7535  1.3544
 2494TIP3   OH228972   3.417   5.139   3.295 -0.1823 -0.0996  0.3169
 2494TIP3    H128973   3.331   5.149   3.254 -0.7560 -0.0519  1.4859
 2494TIP3    H228974   3.399   5.140   3.389  1.3145  2.1236  0.6635
 2495TIP3   OH228975   4.979   2.469   1.422 -0.0231  0.4680 -0.6573
 2495TIP3    H128976   4.958   2.382   1.388  1.7686 -0.3921  0.3053
 2495TIP3    H228977   5.071   2.482   1.399  0.3247  1.2262  1.0223
 2496TIP3   OH228978   5.410   1.546   5.126 -0.6681  0.7243  0.7112
 2496TIP3    H128979   5.448   1.598   5.056  1.4444  0.7110  1.7688
 2496TIP3    H228980   5.337   1.500   5.085  1.6264 -0.8005 -2.0010
 2497TIP3   OH228981   2.422   6.517   5.640  0.5546  0.4010  0.6454
 2497TIP3    H128982   2.431   6.567   5.721  0.2403  0.3097  0.7400
 2497TIP3    H228983   2.458   6.430   5.662 -0.1576  0.1587  0.9040
 2498TIP3   OH228984   1.402   1.869  16.190 -0.2329 -0.2003  0.0874
 2498TIP3    H128985   1.362   1.818  16.119  1.7560 -1.9288  0.1036
 2498TIP3    H228986   1.480   1.907  16.150 -0.1430  0.4547  0.8695
 2499TIP3   OH228987   0.656   1.658  16.934  0.1823  0.3648  0.1416
 2499TIP3    H128988   0.721   1.688  16.871  1.7327 -0.1942  1.3977
 2499TIP3    H228989   0.703   1.597  16.991 -0.9807  1.2358  2.1765
 2500TIP3   OH228990   4.395   0.379   2.143 -0.4103 -0.0269 -0.3769
 2500TIP3    H128991   4.389   0.459   2.091 -3.1323 -0.0159 -0.1714
 2500TIP3    H228992   4.414   0.409   2.232 -0.2998  0.2925 -0.5088
 2501TIP3   OH228993   3.422   3.975  12.037  0.1704  0.3429 -0.1454
 2501TIP3    H128994   3.399   4.047  11.978 -2.5418  0.0647  0.4161
 2501TIP3    H228995   3.490   3.926  11.990  0.3961  1.9430 -1.5668
 2502TIP3   OH228996   5.241   5.804   2.747 -0.5323  0.0417 -0.4992
 2502TIP3    H128997   5.165   5.838   2.699 -0.1147  0.4304 -0.8854
 2502TIP3    H228998   5.294   5.760   2.681 -0.2339  0.0924 -0.2927
 2503TIP3   OH228999   0.599   3.264   3.918  0.2992  0.5889  1.1554
 2503TIP3    H129000   0.673   3.256   3.978  1.5049  0.7184 -0.2379
 2503TIP3    H229001   0.587   3.175   3.883 -0.1534  0.5874  1.3107
 2504TIP3   OH229002   5.755   4.834  16.835 -0.5559  0.4693  0.0954
 2504TIP3    H129003   5.781   4.790  16.915  0.3822  0.5323 -0.1617
 2504TIP3    H229004   5.664   4.860  16.850 -0.8251 -0.7023  0.6085
 2505TIP3   OH229005   3.173   1.257   0.699 -0.1710 -0.3025 -0.0188
 2505TIP3    H129006   3.138   1.291   0.617  2.1769 -0.1428 -1.0374
 2505TIP3    H229007   3.103   1.200   0.733 -1.6210  0.4746 -1.5499
 2506TIP3   OH229008   3.015   2.720  16.565  0.0513 -0.4291 -0.3598
 2506TIP3    H129009   3.073   2.794  16.580 -0.2717 -0.7235  3.5367
 2506TIP3    H229010   3.072   2.649  16.536  0.7732  0.6050 -1.5323
 2507TIP3   OH229011   5.108   1.443  11.388 -0.2494 -0.0047 -0.6853
 2507TIP3    H129012   5.054   1.366  11.406 -0.6397  0.5341  0.5994
 2507TIP3    H229013   5.046   1.513  11.368  0.0419  0.2661 -0.6508
 2508TIP3   OH229014   5.154   1.561   5.938  0.3067  0.1282 -0.1991
 2508TIP3    H129015   5.195   1.609   6.011  2.7944  1.1543 -2.0957
 2508TIP3    H229016   5.224   1.506   5.903 -1.0474 -0.9554 -1.3303
 2509TIP3   OH229017   5.226   4.853   5.033  0.3309  0.1285 -0.5965
 2509TIP3    H129018   5.161   4.799   4.989  1.0358 -1.1050 -0.1774
 2509TIP3    H229019   5.210   4.837   5.127  0.3120  0.9433 -0.4538
 2510TIP3   OH229020   5.526   0.802  12.341 -0.2140  0.1202 -0.1858
 2510TIP3    H129021   5.580   0.862  12.289  0.1019  0.3943  0.4496
 2510TIP3    H229022   5.524   0.842  12.428 -0.5847 -0.4332  0.0599
 2511TIP3   OH229023   0.547   1.946  16.631  0.9475 -0.2241  0.0758
 2511TIP3    H129024   0.615   1.920  16.694 -0.9286 -0.3788  2.1419
 2511TIP3    H229025   0.531   2.038  16.651 -0.1986 -0.4756  0.3608
 2512TIP3   OH229026   2.470   4.956  13.124 -0.6848 -0.5365 -0.1443
 2512TIP3    H129027   2.391   5.009  13.128 -1.6471 -1.8928 -0.6276
 2512TIP3    H229028   2.476   4.915  13.211  0.0204  0.2670  0.2051
 2513TIP3   OH229029   6.190   2.125   5.422 -0.6637 -0.2539  0.3934
 2513TIP3    H129030   6.119   2.138   5.485  0.3054  0.6694  1.3397
 2513TIP3    H229031   6.256   2.190   5.447  0.0412 -0.3276 -1.1613
 2514TIP3   OH229032   3.693   3.282   5.317  0.0615  0.5679  0.0464
 2514TIP3    H129033   3.641   3.203   5.333 -1.9774  1.3198 -2.2123
 2514TIP3    H229034   3.769   3.252   5.268 -0.2124 -0.1127  0.0307
 2515TIP3   OH229035   6.686   0.779   6.533 -0.2620 -0.3233 -0.3926
 2515TIP3    H129036   6.746   0.853   6.542 -0.7782  0.0699 -0.1425
 2515TIP3    H229037   6.691   0.734   6.618  1.8737 -2.0094 -1.2997
 2516TIP3   OH229038   0.583   4.204  15.512  0.0475  0.5017  0.2560
 2516TIP3    H129039   0.627   4.282  15.478  1.2987  0.0309  0.7655
 2516TIP3    H229040   0.653   4.146  15.538 -0.8676 -0.9308 -0.3557
 2517TIP3   OH229041   3.589   4.128   2.573 -0.3009  0.1140  0.2844
 2517TIP3    H129042   3.604   4.210   2.620 -1.4650 -0.5357  1.9091
 2517TIP3    H229043   3.644   4.064   2.618  0.3728 -0.0844 -0.7828
 2518TIP3   OH229044   1.141   4.606  13.632 -0.2267 -0.2982  0.4312
 2518TIP3    H129045   1.158   4.697  13.659  0.7393 -0.3669  0.1112
 2518TIP3    H229046   1.198   4.593  13.556  1.8799 -2.0431  2.1557
 2519TIP3   OH229047   0.867   5.291  16.631 -0.0007 -0.3629 -0.5239
 2519TIP3    H129048   0.858   5.235  16.554 -1.4148 -0.2110 -0.4962
 2519TIP3    H229049   0.820   5.371  16.608  1.0706  0.3966 -0.1537
 2520TIP3   OH229050   2.964   6.690   3.141 -0.4032  0.6468 -0.0953
 2520TIP3    H129051   2.991   6.781   3.130  0.0604  0.4657 -0.4668
 2520TIP3    H229052   3.023   6.640   3.084 -0.0804  0.0246  0.7612
 2521TIP3   OH229053   6.614   5.449  14.441 -0.0360 -0.2769  0.3441
 2521TIP3    H129054   6.539   5.389  14.441 -1.1679  1.0988  0.5085
 2521TIP3    H229055   6.576   5.535  14.425  1.2741  0.7392  2.3147
 2522TIP3   OH229056   3.888   2.284  16.971 -0.2309  0.2757 -0.4638
 2522TIP3    H129057   3.797   2.273  16.997  0.2022  0.4134  1.2749
 2522TIP3    H229058   3.886   2.293  16.876 -1.9963  0.0766 -0.4699
 2523TIP3   OH229059   2.382   1.512  12.687 -0.2589  0.6330  0.1953
 2523TIP3    H129060   2.291   1.486  12.674 -0.1687  0.3530  0.1296
 2523TIP3    H229061   2.406   1.556  12.605  0.1345 -0.6426 -0.4008
 2524TIP3   OH229062   3.960   2.254  14.449  0.2613  0.1793  0.4327
 2524TIP3    H129063   3.931   2.344  14.463  0.4757  0.2097  0.6866
 2524TIP3    H229064   3.896   2.200  14.496  0.8011  0.2644  1.2907
 2525TIP3   OH229065   5.653   6.299  12.175 -0.3675  0.3270 -0.4522
 2525TIP3    H129066   5.677   6.310  12.082  0.4637  0.2524 -0.2575
 2525TIP3    H229067   5.694   6.373  12.219 -0.6979  0.3208 -0.1311
 2526TIP3   OH229068   5.026   4.018  15.513  0.1130 -0.4514 -0.1020
 2526TIP3    H129069   4.966   3.958  15.469 -1.5612 -0.1392  1.6322
 2526TIP3    H229070   5.113   3.990  15.485 -0.7724 -1.5443 -1.9322
 2527TIP3   OH229071   1.746   2.767   0.094  0.2648 -0.0629 -0.1342
 2527TIP3    H129072   1.814   2.832   0.084  0.0534  0.1203 -0.3770
 2527TIP3    H229073   1.756   2.709   0.019 -0.1700  0.2613 -0.4456
 2528TIP3   OH229074   1.939   1.139   0.620 -0.2672 -0.1464  0.4507
 2528TIP3    H129075   1.956   1.055   0.661 -2.6545 -0.1530  1.5961
 2528TIP3    H229076   1.849   1.161   0.646 -0.5908  1.6088 -1.8076
 2529TIP3   OH229077   2.396   4.385  11.839  0.4195 -0.2109 -0.0431
 2529TIP3    H129078   2.460   4.317  11.863  1.0467 -0.0889 -1.2677
 2529TIP3    H229079   2.428   4.418  11.755 -1.2104 -0.0658 -0.6348
 2530TIP3   OH229080   0.039   5.122   3.851 -0.6635 -0.3153 -0.1657
 2530TIP3    H129081  -0.017   5.085   3.783  0.4923  0.0192 -1.3401
 2530TIP3    H229082  -0.022   5.160   3.915 -1.8747 -3.1795  0.5291
 2531TIP3   OH229083   3.068   2.144  11.459 -0.5142 -0.4072 -1.1526
 2531TIP3    H129084   2.976   2.145  11.431 -0.5353 -0.4358 -1.0847
 2531TIP3    H229085   3.116   2.108  11.384 -0.5483 -0.3131 -1.2201
 2532TIP3   OH229086   5.884   4.226  13.067 -0.3709 -0.1970 -0.8176
 2532TIP3    H129087   5.929   4.245  12.985 -2.1099  1.9017 -1.4078
 2532TIP3    H229088   5.791   4.243  13.047 -0.9666 -0.7483  1.2751
 2533TIP3   OH229089   5.527   5.464   4.918 -0.0554 -0.5952 -0.1213
 2533TIP3    H129090   5.460   5.498   4.859 -1.1330 -2.1371  0.1714
 2533TIP3    H229091   5.546   5.538   4.977 -0.4524  0.2927 -1.0735
 2534TIP3   OH229092   1.541   2.196   0.610  0.0258 -0.1328  0.0998
 2534TIP3    H129093   1.481   2.126   0.634  0.0723 -0.3245 -0.3367
 2534TIP3    H229094   1.536   2.258   0.683 -0.6563 -0.1720  0.0878
 2535TIP3   OH229095   1.942   4.281   4.860  0.3624 -0.2333  0.7314
 2535TIP3    H129096   1.922   4.193   4.828 -1.7037  0.3294  0.3393
 2535TIP3    H229097   1.939   4.336   4.782  0.0125  0.4318  1.2030
 2536TIP3   OH229098   4.774   4.024   1.708 -0.6562  0.5197  0.3294
 2536TIP3    H129099   4.828   4.097   1.677 -0.0890  0.4237  1.0648
 2536TIP3    H229100   4.835   3.966   1.752 -1.5006  0.8909  2.0616
 2537TIP3   OH229101   3.709   4.081   0.006 -0.3473  0.0470  0.4051
 2537TIP3    H129102   3.785   4.138  -0.006  0.1186 -0.9850 -2.6483
 2537TIP3    H229103   3.633   4.139  -0.003  0.1280  0.5417 -0.6572
 2538TIP3   OH229104   0.976   2.496  13.634 -0.0538 -0.1826 -0.0929
 2538TIP3    H129105   1.026   2.539  13.703  0.0200 -1.4543  0.6777
 2538TIP3    H229106   1.039   2.484  13.563  1.3288 -3.2540  1.4693
 2539TIP3   OH229107   3.078   1.374   3.559 -0.1781  0.0626 -0.2087
 2539TIP3    H129108   3.156   1.344   3.512  0.5771  0.1418  0.9536
 2539TIP3    H229109   3.035   1.294   3.588 -0.5918  0.0164 -0.9193
 2540TIP3   OH229110   1.460   2.082  15.215 -0.2386  0.1266 -0.7858
 2540TIP3    H129111   1.541   2.101  15.263 -0.0270  0.7730 -1.3684
 2540TIP3    H229112   1.491   2.054  15.128 -0.6359  0.1370 -0.9303
 2541TIP3   OH229113   3.579   2.634   5.706 -0.2232  0.0797  0.7387
 2541TIP3    H129114   3.640   2.563   5.682  1.0167  1.6156 -0.8783
 2541TIP3    H229115   3.564   2.620   5.800  2.0381 -0.8384  1.0515
 2542TIP3   OH229116   1.543   6.259  12.291  0.6579 -0.0737  0.1367
 2542TIP3    H129117   1.537   6.323  12.220  0.9460 -1.1636 -0.9209
 2542TIP3    H229118   1.617   6.288  12.344  0.7549  0.4892 -0.2991
 2543TIP3   OH229119   5.132   0.418   5.913 -0.7903  0.3511  0.1591
 2543TIP3    H129120   5.156   0.497   5.961  2.0508 -0.5547  0.3827
 2543TIP3    H229121   5.053   0.386   5.957  0.1088  1.0924  2.4534
 2544TIP3   OH229122   3.623   4.291   3.272  0.0215 -0.2862 -0.2179
 2544TIP3    H129123   3.600   4.383   3.287 -0.2406 -0.1986 -1.1007
 2544TIP3    H229124   3.574   4.243   3.337 -0.0857  0.1792  0.0504
 2545TIP3   OH229125   1.985   4.924   4.099 -0.3513 -0.2895  0.1739
 2545TIP3    H129126   1.956   5.015   4.108  0.5274 -0.1709  2.3676
 2545TIP3    H229127   1.904   4.874   4.091 -0.8351  0.6817 -1.3271
 2546TIP3   OH229128   0.913   2.551   0.890  0.2557 -0.4174  0.1380
 2546TIP3    H129129   0.885   2.580   0.803 -0.8727 -0.8152  0.3433
 2546TIP3    H229130   0.992   2.601   0.908 -0.7569  1.4025 -0.1590
 2547TIP3   OH229131   5.945   2.489  15.863 -0.2750 -0.1065 -0.2426
 2547TIP3    H129132   5.918   2.415  15.918  0.5495 -1.2754 -1.3539
 2547TIP3    H229133   5.913   2.566  15.910  0.7041 -0.9994  2.0799
 2548TIP3   OH229134   4.224   5.978  15.843 -0.2483 -0.2870 -0.0079
 2548TIP3    H129135   4.175   6.040  15.897 -0.0079 -0.0385 -0.0700
 2548TIP3    H229136   4.272   5.924  15.907 -0.9057 -0.7982  0.0705
 2549TIP3   OH229137   5.990   4.191  12.221 -0.8579  0.2401 -0.0108
 2549TIP3    H129138   6.044   4.236  12.156 -1.1676 -0.2173 -0.6006
 2549TIP3    H229139   6.045   4.185  12.299 -0.8646  1.7663  0.1269
 2550TIP3   OH229140   5.798   1.550   4.979 -0.1158  0.5716 -0.7913
 2550TIP3    H129141   5.878   1.555   5.031 -0.8779 -0.4308  0.5390
 2550TIP3    H229142   5.777   1.642   4.958 -0.2009  1.1039  1.3924
 2551TIP3   OH229143   0.581   1.325   4.422  0.0642  0.0484  0.1858
 2551TIP3    H129144   0.651   1.282   4.471  0.6118  0.9913  0.2582
 2551TIP3    H229145   0.537   1.254   4.376  0.1564 -0.7340  1.2667
 2552TIP3   OH229146   4.709   5.079  11.628  0.2827  0.5848 -0.0103
 2552TIP3    H129147   4.706   5.169  11.661 -2.6117  0.3372  0.6804
 2552TIP3    H229148   4.700   5.087  11.533 -1.5407  1.0313  0.1695
 2553TIP3   OH229149   3.026   5.184   1.216  0.1972 -0.2117 -0.1187
 2553TIP3    H129150   2.940   5.142   1.227 -0.5361  1.4145  0.6506
 2553TIP3    H229151   3.087   5.110   1.207 -1.2485 -1.4113 -0.6513
 2554TIP3   OH229152   6.349   2.053   4.793  0.3844 -0.1273  0.0819
 2554TIP3    H129153   6.398   2.011   4.723  0.7583 -0.1323  0.3434
 2554TIP3    H229154   6.317   1.980   4.847 -0.2663 -0.1457 -0.3159
 2555TIP3   OH229155   1.273   6.365  16.379 -0.5179  0.4191 -0.8202
 2555TIP3    H129156   1.203   6.427  16.401 -1.9966 -1.9142  1.6835
 2555TIP3    H229157   1.348   6.395  16.431 -0.7680  0.9154 -0.7382
 2556TIP3   OH229158   3.335   0.175  13.880  0.2939 -0.3859 -0.3104
 2556TIP3    H129159   3.272   0.104  13.867  0.4325 -0.3136 -1.4546
 2556TIP3    H229160   3.339   0.186  13.975 -0.8976 -0.8528 -0.1886
 2557TIP3   OH229161   5.391   5.088   0.466 -0.3174 -0.4318  0.2623
 2557TIP3    H129162   5.335   5.155   0.505 -1.0799 -1.4133  0.9181
 2557TIP3    H229163   5.441   5.134   0.399 -1.6315  0.5587 -0.0792
 2558TIP3   OH229164   6.554   3.802  14.961  0.0959 -0.4073 -0.1749
 2558TIP3    H129165   6.578   3.746  14.887 -0.5623  2.2093 -2.5888
 2558TIP3    H229166   6.576   3.891  14.930 -0.7450  0.8581  2.6001
 2559TIP3   OH229167   2.692   1.289   1.176 -0.3729  0.2135 -0.7167
 2559TIP3    H129168   2.612   1.333   1.201 -0.0051  0.6638 -0.3141
 2559TIP3    H229169   2.697   1.213   1.235  0.9284  1.7371  1.2523
 2560TIP3   OH229170   6.554   4.109   5.337 -0.4383  0.1877  0.4380
 2560TIP3    H129171   6.645   4.082   5.324 -0.0746  2.0411 -1.5021
 2560TIP3    H229172   6.560   4.180   5.401 -0.6701 -0.3875  1.1070
 2561TIP3   OH229173   4.415   4.936   6.013  0.5601 -0.3671 -0.4592
 2561TIP3    H129174   4.472   4.955   5.939  1.8042  0.3813  0.6509
 2561TIP3    H229175   4.474   4.908   6.083 -0.4652  0.0187  0.5923
 2562TIP3   OH229176   5.405   5.284   2.525 -0.2049 -0.0282  0.8271
 2562TIP3    H129177   5.496   5.306   2.542  0.0921 -0.7245  0.2420
 2562TIP3    H229178   5.395   5.196   2.561 -0.8977  0.3834  1.6707
 2563TIP3   OH229179   0.977   1.522  11.057 -0.4630  0.4273 -0.6557
 2563TIP3    H129180   1.017   1.520  10.970  1.4014 -1.7448  0.1492
 2563TIP3    H229181   0.910   1.455  11.054 -0.0046 -0.0548 -0.2673
 2564TIP3   OH229182   5.630   5.657   5.051  0.4485 -0.6168 -0.2530
 2564TIP3    H129183   5.599   5.747   5.053  2.6192  0.1691  0.3141
 2564TIP3    H229184   5.615   5.625   5.140 -0.3835 -0.8782 -0.4715
 2565TIP3   OH229185   4.974   6.483  16.643 -0.2647 -0.2506  0.1959
 2565TIP3    H129186   4.906   6.550  16.638 -1.0041 -0.9432  0.6433
 2565TIP3    H229187   4.943   6.414  16.583  1.0331  0.2624 -1.1167
 2566TIP3   OH229188   4.999   6.088   5.425  0.2942 -0.3288 -0.5288
 2566TIP3    H129189   5.057   6.112   5.497 -0.6212 -0.5479  0.3070
 2566TIP3    H229190   4.959   6.170   5.397  2.3024  0.1201 -2.3292
 2567TIP3   OH229191   3.931   5.938  16.418  0.1927 -0.0477  0.3573
 2567TIP3    H129192   3.984   5.947  16.497 -0.4297 -0.9816  0.8933
 2567TIP3    H229193   3.941   5.846  16.393 -1.4633 -0.3455  0.6922
 2568TIP3   OH229194   5.220   3.118   1.127 -0.0451 -0.0841 -0.5236
 2568TIP3    H129195   5.206   3.041   1.072  2.3607 -1.8895  1.1633
 2568TIP3    H229196   5.139   3.126   1.178  0.2094 -2.6199  0.4338
 2569TIP3   OH229197   4.592   5.252  16.599 -0.2165 -0.3266 -0.2326
 2569TIP3    H129198   4.679   5.277  16.567 -0.3216 -0.8066 -0.9054
 2569TIP3    H229199   4.594   5.273  16.693  1.6054 -2.9708  0.4125
 2570TIP3   OH229200   5.813   3.356  14.916  0.6371 -0.3273 -0.2400
 2570TIP3    H129201   5.818   3.356  14.820  2.8473  0.6828 -0.1831
 2570TIP3    H229202   5.864   3.279  14.942  1.5189  0.3719  0.1390
 2571TIP3   OH229203   5.092   0.536   3.737 -0.3965  0.0606 -0.2624
 2571TIP3    H129204   5.052   0.587   3.666  1.0051 -0.2794 -1.3311
 2571TIP3    H229205   5.175   0.579   3.755 -0.1795 -0.5803  0.3369
 2572TIP3   OH229206   1.099   5.522   5.386 -0.1937 -0.7625 -0.3930
 2572TIP3    H129207   1.041   5.503   5.460  0.2903 -2.0122 -0.3013
 2572TIP3    H229208   1.092   5.445   5.330  0.5572 -0.4691 -0.9073
 2573TIP3   OH229209   6.396   6.298   2.076 -0.2779  0.1599  0.6260
 2573TIP3    H129210   6.485   6.314   2.045  0.0773  1.3718  2.1465
 2573TIP3    H229211   6.400   6.214   2.120  0.1297  0.2213  0.7093
 2574TIP3   OH229212   1.157   0.371  10.327 -0.1304 -0.2592 -0.0232
 2574TIP3    H129213   1.078   0.326  10.359  0.2688 -1.3112 -0.4643
 2574TIP3    H229214   1.228   0.336  10.381  0.0663  0.6318  0.3248
 2575TIP3   OH229215   2.927   3.902  14.077  0.3245 -0.0021 -0.8913
 2575TIP3    H129216   2.973   3.966  14.131 -0.1016 -0.4263 -0.0072
 2575TIP3    H229217   2.924   3.942  13.990  0.5816  0.9137 -0.4941
 2576TIP3   OH229218   0.800   6.023  11.292  0.4553  0.1277 -0.2474
 2576TIP3    H129219   0.867   5.957  11.310 -1.5446 -1.9086  0.1788
 2576TIP3    H229220   0.791   6.023  11.197  0.4775 -0.2180 -0.2514
 2577TIP3   OH229221   3.210   1.797  12.472 -0.2777 -0.0351  0.0248
 2577TIP3    H129222   3.295   1.754  12.459 -0.2253 -0.1851  0.8168
 2577TIP3    H229223   3.198   1.798  12.567 -1.3003 -0.2677 -0.0960
 2578TIP3   OH229224   1.430   5.752   2.990 -0.3482 -0.1927 -0.7480
 2578TIP3    H129225   1.509   5.730   2.942 -0.5437  0.9950 -1.6589
 2578TIP3    H229226   1.459   5.809   3.060 -0.1552 -1.3847  0.1831
 2579TIP3   OH229227   3.694   6.765  14.708  0.2103 -0.1852 -0.3623
 2579TIP3    H129228   3.612   6.773  14.757 -1.0178 -1.0744 -2.1540
 2579TIP3    H229229   3.667   6.764  14.617  2.3886  1.0574 -1.0831
 2580TIP3   OH229230   3.239   6.345  15.230 -0.4149 -0.0188 -0.0251
 2580TIP3    H129231   3.265   6.437  15.231 -0.4100 -0.0176 -0.1453
 2580TIP3    H229232   3.321   6.297  15.224 -0.3999 -0.0438  0.4078
 2581TIP3   OH229233   1.191   1.960   3.563 -0.1320  0.3485 -0.2727
 2581TIP3    H129234   1.127   2.026   3.534 -0.9442 -0.4721 -0.4004
 2581TIP3    H229235   1.217   1.915   3.483 -2.0039 -1.5933  0.1164
 2582TIP3   OH229236   6.179   5.946   6.324 -0.4556  0.3475 -0.3265
 2582TIP3    H129237   6.244   5.981   6.264 -0.8145 -1.1814 -1.6663
 2582TIP3    H229238   6.211   5.858   6.345 -2.2055 -0.5677 -1.2686
 2583TIP3   OH229239   3.362   5.534   0.900  0.4061 -0.2568 -0.0244
 2583TIP3    H129240   3.362   5.456   0.956 -2.1465  0.1076  0.5774
 2583TIP3    H229241   3.370   5.499   0.811 -1.9498 -1.3574  0.1282
 2584TIP3   OH229242   5.936   5.551  12.586  0.0500 -0.8066 -0.4767
 2584TIP3    H129243   5.919   5.471  12.637  2.0259 -0.0534  1.5249
 2584TIP3    H229244   5.944   5.620  12.652  1.0515  0.5484 -1.9420
 2585TIP3   OH229245   5.557   2.417  11.885 -0.0194  0.0274  0.0686
 2585TIP3    H129246   5.515   2.501  11.902 -0.5287 -0.5127  1.6607
 2585TIP3    H229247   5.550   2.406  11.790 -2.4005  0.5309  0.1131
 2586TIP3   OH229248   4.757   3.733   4.532  0.2206  0.1209 -0.1449
 2586TIP3    H129249   4.705   3.752   4.610  0.8866  3.0702 -0.2851
 2586TIP3    H229250   4.694   3.701   4.468 -0.8761  0.5983  0.6638
 2587TIP3   OH229251   0.393   3.454  15.419 -0.0783 -0.2807  0.0181
 2587TIP3    H129252   0.477   3.460  15.373  0.4697  1.4010  1.1450
 2587TIP3    H229253   0.417   3.431  15.509 -0.9113 -0.6579  0.1524
 2588TIP3   OH229254   5.989   5.099  11.250  0.0485 -0.0196  0.6150
 2588TIP3    H129255   6.030   5.151  11.320 -0.1857 -1.0838  1.5673
 2588TIP3    H229256   5.948   5.165  11.193  1.5860  0.9685  0.5832
 2589TIP3   OH229257   2.591   5.881  13.199 -0.1157  0.1059 -0.2367
 2589TIP3    H129258   2.627   5.930  13.125  1.3312 -0.4278  0.0855
 2589TIP3    H229259   2.587   5.790  13.168  2.3530 -0.4778  0.9237
 2590TIP3   OH229260   5.657   6.651   5.950 -0.5257 -0.0578  0.4691
 2590TIP3    H129261   5.734   6.645   6.006  0.5009  0.2002 -0.8707
 2590TIP3    H229262   5.584   6.664   6.010  0.5246  0.0994  1.7396
 2591TIP3   OH229263   1.229   6.287   5.347  0.0433  0.0806  0.0212
 2591TIP3    H129264   1.144   6.247   5.366 -0.3433  0.5616 -0.6611
 2591TIP3    H229265   1.260   6.319   5.432 -0.6384  0.2468  0.2122
 2592TIP3   OH229266   5.633   6.440  16.182 -0.2876 -1.0778  0.4012
 2592TIP3    H129267   5.545   6.463  16.210  0.6649  0.6694  2.2869
 2592TIP3    H229268   5.683   6.522  16.191  1.1215 -1.4865 -2.5192
 2593TIP3   OH229269   1.704   4.143   0.639 -0.2630  0.2217 -0.5850
 2593TIP3    H129270   1.749   4.110   0.717 -2.7136 -1.5266  0.1916
 2593TIP3    H229271   1.767   4.128   0.568  3.0839  4.0995  1.1484
 2594TIP3   OH229272   1.161   5.037   5.189 -0.0345  0.6428 -0.0803
 2594TIP3    H129273   1.181   5.111   5.133  1.3805  0.8203  0.6122
 2594TIP3    H229274   1.228   4.971   5.167  0.7994  0.8558  1.5988
 2595TIP3   OH229275   4.433   1.166   2.829  0.8622 -0.3146  0.5474
 2595TIP3    H129276   4.446   1.082   2.874  0.7554 -1.3558 -1.2865
 2595TIP3    H229277   4.458   1.149   2.738 -2.2250  0.7451 -0.6244
 2596TIP3   OH229278   2.013   4.317   2.931  0.2059  0.2715  0.3865
 2596TIP3    H129279   2.062   4.276   2.859 -2.2334 -0.0530 -1.2063
 2596TIP3    H229280   1.962   4.245   2.968 -2.0268  1.2628 -0.6245
 2597TIP3   OH229281   1.923   6.482  16.300 -0.0152 -0.0553 -0.0759
 2597TIP3    H129282   1.980   6.406  16.290 -0.3265 -0.4041  0.7883
 2597TIP3    H229283   1.961   6.548  16.241 -0.7957 -1.4536 -2.3058
 2598TIP3   OH229284   0.296   5.087  15.628 -0.0252  0.1366  0.4079
 2598TIP3    H129285   0.344   5.152  15.678  1.3345 -0.3117 -0.2722
 2598TIP3    H229286   0.223   5.135  15.590 -0.2071  0.8024  1.5567
 2599TIP3   OH229287   1.449   6.634   2.771 -0.3110 -0.3989 -0.5676
 2599TIP3    H129288   1.531   6.603   2.732  0.4981  0.4147  0.4399
 2599TIP3    H229289   1.475   6.704   2.830 -1.8908  0.8284 -1.2510
 2600TIP3   OH229290   1.671   4.926   6.213  0.1472 -0.4359 -0.2921
 2600TIP3    H129291   1.604   4.857   6.215  0.5054 -0.8232 -1.1050
 2600TIP3    H229292   1.629   4.998   6.166 -0.5177  0.2435  1.2696
 2601TIP3   OH229293   3.004   3.735  13.701  0.7948 -0.2110 -0.2855
 2601TIP3    H129294   3.028   3.659  13.648 -0.5394 -1.3953  0.7267
 2601TIP3    H229295   3.085   3.759  13.746  0.9588 -1.8465  0.3459
 2602TIP3   OH229296   2.442   3.098  13.675  0.3670 -0.1957  0.1899
 2602TIP3    H129297   2.508   3.090  13.744 -1.0576 -0.0565  1.6304
 2602TIP3    H229298   2.467   3.176  13.626  0.5805  0.5666  1.4912
 2603TIP3   OH229299   6.220   4.153  14.186 -0.0048 -0.3231  0.3487
 2603TIP3    H129300   6.180   4.195  14.262 -1.5147 -2.2711  0.7139
 2603TIP3    H229301   6.191   4.062  14.191  2.8866 -1.3979 -0.5211
 2604TIP3   OH229302   4.286   6.327  14.689 -0.0104 -0.2863 -0.0271
 2604TIP3    H129303   4.317   6.364  14.772  0.5574 -1.3991  0.2745
 2604TIP3    H229304   4.365   6.289  14.650 -0.4898 -0.7670 -0.5354
 2605TIP3   OH229305   4.583   4.668   0.794 -0.0516 -0.1463  0.2572
 2605TIP3    H129306   4.525   4.741   0.818 -0.9013 -0.2843 -1.3138
 2605TIP3    H229307   4.622   4.695   0.711  1.7542 -0.3086  1.0073
 2606TIP3   OH229308   4.966   4.203   6.392 -0.1847  0.5344  0.3444
 2606TIP3    H129309   4.921   4.127   6.356 -0.0548  0.1594  0.9625
 2606TIP3    H229310   5.046   4.210   6.340 -1.0198  1.3269 -0.8994
 2607TIP3   OH229311   2.060   3.359  15.318  0.4340 -0.1757  1.0597
 2607TIP3    H129312   1.997   3.304  15.365 -0.5150  1.1313  1.3809
 2607TIP3    H229313   2.136   3.362  15.374  0.9365 -1.9903  0.5536
 2608TIP3   OH229314   2.195   6.585   4.623 -0.1025  0.3866 -0.0395
 2608TIP3    H129315   2.111   6.615   4.588 -0.9063  0.4176  1.8282
 2608TIP3    H229316   2.178   6.570   4.716  1.3722 -1.7819 -0.0465
 2609TIP3   OH229317   5.828   6.168   1.271 -0.3108 -0.4653 -0.5617
 2609TIP3    H129318   5.906   6.124   1.238 -1.6990 -2.1300 -1.8270
 2609TIP3    H229319   5.831   6.154   1.366  0.5286 -1.1647 -0.6839
 2610TIP3   OH229320   0.341   4.146   2.129  0.6458  0.1223  0.3372
 2610TIP3    H129321   0.355   4.159   2.035  0.1612 -3.5258 -0.3638
 2610TIP3    H229322   0.253   4.181   2.145  0.2492 -0.2813 -0.8383
 2611TIP3   OH229323   2.199   3.662   3.550  0.5206  0.5159  0.6146
 2611TIP3    H129324   2.200   3.567   3.555 -2.6888  0.4548  2.3867
 2611TIP3    H229325   2.271   3.690   3.606  0.0526 -0.8784  1.9553
 2612TIP3   OH229326   5.924   4.770  11.444  0.3607 -0.7952  0.5710
 2612TIP3    H129327   5.991   4.819  11.493  2.5128 -2.9716  0.0137
 2612TIP3    H229328   5.882   4.715  11.510 -1.0770  0.7006  0.9531
 2613TIP3   OH229329   4.101   1.580  15.011 -0.3205 -0.1222 -0.5004
 2613TIP3    H129330   4.153   1.508  14.975  2.1049  1.9552 -1.3985
 2613TIP3    H229331   4.114   1.574  15.106 -1.3856 -1.6788 -0.4054
 2614TIP3   OH229332   0.507   0.492  14.561  0.1823  0.5271  0.1192
 2614TIP3    H129333   0.505   0.436  14.639 -0.9785 -0.0109 -0.2845
 2614TIP3    H229334   0.600   0.498  14.538  0.2882 -1.8687 -0.2866
 2615TIP3   OH229335   2.356   5.930  11.508  0.1536  0.2042  0.5988
 2615TIP3    H129336   2.410   6.000  11.545 -0.6135 -0.6136  3.5411
 2615TIP3    H229337   2.419   5.873  11.463  1.2092  1.1549  0.8091
 2616TIP3   OH229338   5.557   1.104   4.324 -0.0967 -0.2180  0.2746
 2616TIP3    H129339   5.524   1.075   4.409  0.1430  0.1986  0.5119
 2616TIP3    H229340   5.556   1.025   4.270  1.4300 -0.8883  1.1664
 2617TIP3   OH229341   2.848   2.210   6.277 -0.1043 -0.5864 -0.0030
 2617TIP3    H129342   2.909   2.260   6.223 -0.7093  0.5340  0.3214
 2617TIP3    H229343   2.901   2.178   6.350 -0.5399  3.8498  2.5889
 2618TIP3   OH229344   5.465   4.152   1.780 -0.1489  0.4892  0.0424
 2618TIP3    H129345   5.387   4.157   1.835 -0.0816  0.5824  0.1307
 2618TIP3    H229346   5.522   4.089   1.825  0.1809  1.0582  0.4302
 2619TIP3   OH229347   3.313   3.674   1.963  0.2568  0.5236 -0.0733
 2619TIP3    H129348   3.327   3.676   2.058  2.3009  1.2438 -0.3535
 2619TIP3    H229349   3.373   3.607   1.930 -0.0069  0.6884 -0.9258
 2620TIP3   OH229350   2.376   3.808  12.352 -0.4885  0.2500  0.1826
 2620TIP3    H129351   2.300   3.822  12.407 -0.9667 -0.0870 -0.3833
 2620TIP3    H229352   2.353   3.848  12.268  0.1490  0.5747  0.1523
 2621TIP3   OH229353   5.339   5.686   5.352  0.3202 -0.1951  0.3662
 2621TIP3    H129354   5.312   5.597   5.371  0.4757  0.0446  1.8262
 2621TIP3    H229355   5.287   5.711   5.275 -2.4410 -0.3290  2.0282
 2622TIP3   OH229356   4.552   5.671  16.757  0.2478 -0.0882  0.1789
 2622TIP3    H129357   4.581   5.638  16.842  2.7650  1.5554  0.0447
 2622TIP3    H229358   4.531   5.763  16.772  0.4887  0.1619 -0.9226
 2623TIP3   OH229359   0.049   1.819   4.835 -0.6726  0.1058 -0.1889
 2623TIP3    H129360  -0.027   1.784   4.881 -1.3119 -0.5129 -1.6624
 2623TIP3    H229361   0.106   1.743   4.821  0.4855  0.6359  1.3093
 2624TIP3   OH229362   1.160   3.154  15.258 -0.5420 -0.0978 -0.3859
 2624TIP3    H129363   1.243   3.123  15.293 -1.0825 -0.3515  0.7273
 2624TIP3    H229364   1.169   3.146  15.163  0.0584 -1.8376 -0.2128
 2625TIP3   OH229365   0.065   1.815   5.179  0.6648  0.0844 -0.0106
 2625TIP3    H129366   0.096   1.903   5.156 -2.2545  1.2662  0.2030
 2625TIP3    H229367   0.080   1.808   5.274 -0.5226  1.0310  0.2685
 2626TIP3   OH229368   6.666   2.245   1.825 -0.2810  0.1664  0.2580
 2626TIP3    H129369   6.741   2.193   1.796 -0.1980  0.4196  0.0205
 2626TIP3    H229370   6.688   2.272   1.914 -0.2570 -0.0768  0.3267
 2627TIP3   OH229371   2.452   2.263   1.295  0.1690 -0.1800 -0.1907
 2627TIP3    H129372   2.491   2.249   1.209  2.3913 -1.0579  0.8663
 2627TIP3    H229373   2.376   2.206   1.297  1.0782 -1.4695 -0.9963
 2628TIP3   OH229374   6.336   5.934   5.760  0.2398  0.6235 -1.1190
 2628TIP3    H129375   6.333   5.849   5.715 -4.6039  1.7127 -3.5935
 2628TIP3    H229376   6.334   5.912   5.853 -1.0261 -2.0335 -1.6680
 2629TIP3   OH229377   5.569   1.873   5.174  0.0913 -0.4177  0.0363
 2629TIP3    H129378   5.661   1.897   5.164 -0.2417  1.4530  0.9049
 2629TIP3    H229379   5.545   1.833   5.091  1.5590 -0.4496 -0.3911
 2630TIP3   OH229380   2.894   6.796   1.435 -0.4770  0.6953  0.0479
 2630TIP3    H129381   2.828   6.860   1.410 -0.2121  0.6779 -0.7015
 2630TIP3    H229382   2.936   6.770   1.353  0.1189  0.3287  0.4554
 2631TIP3   OH229383   1.002   1.167   6.204 -0.2924 -0.2035  0.2587
 2631TIP3    H129384   0.971   1.077   6.215 -3.0568  0.4910 -0.9836
 2631TIP3    H229385   0.922   1.218   6.191  1.3139  2.1314 -1.0989
 2632TIP3   OH229386   6.099   1.976   5.064 -0.1841 -0.5214 -0.0959
 2632TIP3    H129387   6.166   1.919   5.026 -0.5391 -0.4599 -0.8319
 2632TIP3    H229388   6.066   1.927   5.139  0.4788 -0.6808  0.1003
 2633TIP3   OH229389   0.762   5.111   4.567 -0.0141  0.0261  0.0565
 2633TIP3    H129390   0.703   5.065   4.507 -0.8664 -2.3034  2.5129
 2633TIP3    H229391   0.750   5.068   4.651  1.4830  2.8256  1.8643
 2634TIP3   OH229392   3.812   1.437   1.664  0.0508 -0.2773  0.0304
 2634TIP3    H129393   3.721   1.422   1.688  0.0056 -1.0742 -0.5776
 2634TIP3    H229394   3.834   1.362   1.609  0.4086  1.0175 -1.6514
 2635TIP3   OH229395   6.721   6.345  10.834  0.2137 -0.1834  0.0415
 2635TIP3    H129396   6.639   6.334  10.883  0.1226  0.4333  0.0390
 2635TIP3    H229397   6.721   6.273  10.771 -2.5864  2.2271 -3.0766
 2636TIP3   OH229398   4.936   3.585   1.086  0.2521  0.7112  0.5428
 2636TIP3    H129399   4.973   3.674   1.089 -0.8499  1.2407 -0.5068
 2636TIP3    H229400   5.010   3.529   1.064  0.4921  1.7704 -1.7456
 2637TIP3   OH229401   4.862   3.898  16.386  0.2475  0.3756 -0.3595
 2637TIP3    H129402   4.915   3.913  16.307  1.5263  1.9564  0.7295
 2637TIP3    H229403   4.832   3.986  16.411 -1.8073 -0.3255 -0.1605
 2638TIP3   OH229404   2.841   2.330   3.987 -0.0152 -0.5900 -0.2909
 2638TIP3    H129405   2.923   2.318   4.035 -0.0847 -1.2605 -0.3286
 2638TIP3    H229406   2.796   2.246   3.996 -0.9629 -0.0357  0.2158
 2639TIP3   OH229407   0.399   2.403  11.634 -0.1504 -0.2096  0.1071
 2639TIP3    H129408   0.337   2.376  11.566  1.3034 -0.6119 -1.1348
 2639TIP3    H229409   0.475   2.346  11.620  1.6614  2.1718 -0.3462
 2640TIP3   OH229410   3.451   1.726   2.835  0.4176  0.5355  0.2606
 2640TIP3    H129411   3.448   1.642   2.881 -0.6598  1.6907  2.4143
 2640TIP3    H229412   3.490   1.704   2.750 -2.0201 -2.5960 -0.2536
 2641TIP3   OH229413   6.354   0.500   4.079 -0.3046 -0.7993 -0.2195
 2641TIP3    H129414   6.266   0.467   4.063 -1.0012 -0.6159  2.6309
 2641TIP3    H229415   6.355   0.587   4.040 -1.3614 -0.8245 -0.3218
 2642TIP3   OH229416   3.870   6.539  14.718  0.5364  0.3090 -0.2497
 2642TIP3    H129417   3.817   6.618  14.730  0.5306  0.2440  0.1905
 2642TIP3    H229418   3.945   6.567  14.666  2.5661  1.5317  2.9862
 2643TIP3   OH229419   1.861   1.389  12.831  0.2075 -0.3623  0.3792
 2643TIP3    H129420   1.872   1.483  12.813  1.1349 -0.4685  0.3005
 2643TIP3    H229421   1.770   1.380  12.856  0.1429  0.5935  0.5448
 2644TIP3   OH229422   6.820   3.858   1.864  0.2542 -1.2096  0.2863
 2644TIP3    H129423   6.746   3.810   1.826  0.3567  0.7688 -2.6999
 2644TIP3    H229424   6.890   3.793   1.870 -0.6685 -2.2851 -0.1785
 2645TIP3   OH229425   0.023   3.200   3.276 -0.3779 -0.4639 -0.2165
 2645TIP3    H129426   0.052   3.112   3.251  0.3823  0.4708 -3.0299
 2645TIP3    H229427  -0.046   3.221   3.213 -0.2019  1.1340  0.0935
 2646TIP3   OH229428   5.664   4.129   2.504  0.2078  0.1476  0.2248
 2646TIP3    H129429   5.670   4.223   2.522 -1.6251  0.6835 -1.5278
 2646TIP3    H229430   5.745   4.108   2.457  0.0479  1.2063 -0.5747
 2647TIP3   OH229431   2.950   1.605  10.192 -0.3991  0.3298 -0.1739
 2647TIP3    H129432   3.041   1.634  10.194 -0.3887  0.2839  0.2173
 2647TIP3    H229433   2.955   1.510  10.203 -0.5111  0.3748  0.2957
 2648TIP3   OH229434   6.413   6.837  12.334  0.0499 -0.3085  0.0106
 2648TIP3    H129435   6.472   6.792  12.274 -0.6440  0.0060 -0.9240
 2648TIP3    H229436   6.350   6.881  12.278 -1.3602 -1.0006  0.9923
 2649TIP3   OH229437   5.299   5.215  12.122 -0.3596 -0.2908  0.7950
 2649TIP3    H129438   5.204   5.228  12.122 -0.2391  1.0975 -1.0834
 2649TIP3    H229439   5.310   5.121  12.130 -1.9345 -0.5496  0.3755
 2650TIP3   OH229440   4.880   6.800  11.320  0.1424  0.4867  0.3051
 2650TIP3    H129441   4.928   6.749  11.255  1.1135  0.7033  0.8347
 2650TIP3    H229442   4.814   6.847  11.269  1.8836  1.8889 -0.7835
 2651TIP3   OH229443   2.929   0.474  11.588 -0.1350 -0.2478  0.5624
 2651TIP3    H129444   2.978   0.404  11.632 -1.0067 -2.1099 -1.2811
 2651TIP3    H229445   2.992   0.512  11.527  0.4453  0.8911  1.8162
 2652TIP3   OH229446   4.334   3.836   0.216 -0.1091  0.8963  0.3791
 2652TIP3    H129447   4.348   3.742   0.209 -2.8955  0.4704 -0.5447
 2652TIP3    H229448   4.338   3.868   0.125 -0.9718  1.3628  0.4996
 2653TIP3   OH229449   2.239   6.319   2.864  0.2065 -0.6692  0.9653
 2653TIP3    H129450   2.147   6.305   2.845 -0.0078  1.0590  0.5591
 2653TIP3    H229451   2.245   6.411   2.892  1.6549 -1.0217  1.9410
 2654TIP3   OH229452   3.447   5.215   6.286 -0.4047  0.6636 -0.8220
 2654TIP3    H129453   3.531   5.172   6.298 -1.0192  0.0820  2.1552
 2654TIP3    H229454   3.447   5.244   6.194  3.1405  1.0198 -0.8222
 2655TIP3   OH229455   5.178   0.964   2.280  0.3861  0.5277  0.2830
 2655TIP3    H129456   5.119   1.002   2.344  0.9506  0.8557  0.6156
 2655TIP3    H229457   5.243   1.033   2.263  0.1640  0.5030 -0.7449
 2656TIP3   OH229458   0.719   0.283  14.991  0.1457  0.0063  0.4751
 2656TIP3    H129459   0.730   0.250  15.080  1.6868 -0.3696  0.1733
 2656TIP3    H229460   0.782   0.355  14.984  0.0852 -0.0108 -0.3241
 2657TIP3   OH229461   0.747   1.315  11.411 -0.3816 -0.5329 -0.0301
 2657TIP3    H129462   0.731   1.403  11.379  1.0749 -0.4937 -0.7071
 2657TIP3    H229463   0.783   1.327  11.499  1.1322 -0.3461 -0.6376
 2658TIP3   OH229464   1.188   6.233  16.898 -0.0560 -0.0506  0.0094
 2658TIP3    H129465   1.234   6.159  16.937  0.6418  1.2449  1.7238
 2658TIP3    H229466   1.228   6.243  16.811  1.0817 -0.5734  0.4535
 2659TIP3   OH229467   1.580   6.690   0.070  0.3522 -0.2727 -0.4030
 2659TIP3    H129468   1.589   6.729   0.157  2.0515 -0.9904 -0.2169
 2659TIP3    H229469   1.561   6.764   0.013  1.0808  0.4915  0.3073
 2660TIP3   OH229470   5.299   0.840  12.775  0.0755  0.2731 -0.0634
 2660TIP3    H129471   5.334   0.751  12.783 -0.6039  0.0132  0.1278
 2660TIP3    H229472   5.308   0.877  12.862 -0.3931  0.1003  0.0604
 2661TIP3   OH229473   2.036   1.372   2.892  0.4503  0.3712 -0.2016
 2661TIP3    H129474   1.977   1.311   2.935 -0.8622  1.5205 -0.3203
 2661TIP3    H229475   2.123   1.336   2.909 -0.2327 -1.0944  0.3916
 2662TIP3   OH229476   6.650   0.706  14.156 -0.6985  0.5565 -0.3802
 2662TIP3    H129477   6.675   0.674  14.069 -0.4218  1.4947 -0.6639
 2662TIP3    H229478   6.559   0.734  14.146 -0.6570  0.6926 -0.3823
 2663TIP3   OH229479   2.903   3.903   3.458  0.0458  0.7432  0.0787
 2663TIP3    H129480   2.947   3.826   3.422  0.2642  0.6030  0.6405
 2663TIP3    H229481   2.908   3.892   3.553 -0.8026  0.9459  0.1580
 2664TIP3   OH229482   5.700   5.053   2.497 -0.8843  0.8119 -0.3323
 2664TIP3    H129483   5.743   5.081   2.417 -0.9012  0.7872 -0.3500
 2664TIP3    H229484   5.755   5.086   2.568  0.0754 -0.6366 -0.3514
 2665TIP3   OH229485   1.595   1.152   2.962 -0.5038 -0.2538 -0.0193
 2665TIP3    H129486   1.659   1.090   2.926  1.7457  1.3413  0.9928
 2665TIP3    H229487   1.537   1.099   3.015  0.4237 -1.6963 -0.3957
 2666TIP3   OH229488   4.874   5.041   6.234  0.0892  0.0515 -0.0614
 2666TIP3    H129489   4.907   5.120   6.275 -1.1748  0.5578  0.0293
 2666TIP3    H229490   4.779   5.045   6.246 -0.0551 -1.1730 -0.5906
 2667TIP3   OH229491   1.725   3.610   0.156  0.3433  0.1175  0.4357
 2667TIP3    H129492   1.782   3.684   0.139  0.0941  0.0335 -0.8720
 2667TIP3    H229493   1.740   3.550   0.083 -1.2127 -0.0181  0.1899
 2668TIP3   OH229494   3.661   3.166  15.271 -0.7646  0.5137 -0.5862
 2668TIP3    H129495   3.570   3.141  15.285 -0.2324 -1.1393  0.1751
 2668TIP3    H229496   3.709   3.083  15.268  0.8712  1.3756  0.1572
 2669TIP3   OH229497   5.889   3.573   0.656 -0.5572  0.1936  0.2627
 2669TIP3    H129498   5.880   3.667   0.669 -1.2672  0.1098  0.4424
 2669TIP3    H229499   5.811   3.548   0.606 -1.1999 -0.5392  1.5759
 2670TIP3   OH229500   4.656   6.802   4.254 -0.3016  0.4849 -0.9651
 2670TIP3    H129501   4.691   6.855   4.325  1.3813 -0.3728 -1.1118
 2670TIP3    H229502   4.661   6.712   4.286 -2.6670  0.3220 -0.9009
 2671TIP3   OH229503   5.832   1.578   2.246 -0.5034 -0.3753 -0.0682
 2671TIP3    H129504   5.851   1.655   2.300  1.0368 -1.1835  0.5989
 2671TIP3    H229505   5.765   1.608   2.185 -0.9676  1.0792  1.1036
 2672TIP3   OH229506   6.624   2.936   4.412 -0.0837 -0.2463 -0.1847
 2672TIP3    H129507   6.593   2.849   4.385  1.2815 -1.0786  0.7837
 2672TIP3    H229508   6.707   2.919   4.456  0.1301  1.5545  0.1855
 2673TIP3   OH229509   6.685   2.543   2.880  0.2424  0.6079  0.1416
 2673TIP3    H129510   6.677   2.481   2.807  1.2741  0.6781 -0.0511
 2673TIP3    H229511   6.763   2.515   2.927  1.8561  2.8042 -1.0167
 2674TIP3   OH229512   0.234   5.296   5.548  0.7837 -0.3997  0.5374
 2674TIP3    H129513   0.209   5.349   5.472 -0.2250 -0.1525  1.0249
 2674TIP3    H229514   0.274   5.218   5.510 -1.0737 -0.9957 -0.3269
 2675TIP3   OH229515   6.229   3.148  15.424 -0.3780 -0.3545  0.2111
 2675TIP3    H129516   6.148   3.142  15.372 -0.8179 -0.1105  0.8481
 2675TIP3    H229517   6.227   3.237  15.461  0.5879 -0.0640 -0.4071
 2676TIP3   OH229518   2.409   4.843   5.652 -0.5463  0.4232 -0.2988
 2676TIP3    H129519   2.380   4.923   5.607  1.1136  1.2940  0.0798
 2676TIP3    H229520   2.427   4.781   5.581 -1.2887  0.5839 -0.6333
 2677TIP3   OH229521   1.717   4.785   5.003  0.4437  0.5873 -0.4654
 2677TIP3    H129522   1.668   4.828   4.933 -0.3079  0.1085 -0.2488
 2677TIP3    H229523   1.733   4.696   4.970 -2.1723 -0.5149  0.9343
 2678TIP3   OH229524   2.038   3.830   4.254 -0.8081 -0.7699 -0.4610
 2678TIP3    H129525   2.058   3.780   4.333  0.6235  1.7158  0.9025
 2678TIP3    H229526   1.946   3.854   4.263 -1.0228 -1.6302 -0.2655
 2679TIP3   OH229527   0.483   5.715  15.326  0.4411  0.1828 -0.5804
 2679TIP3    H129528   0.489   5.798  15.279  1.7387  0.8686  0.7153
 2679TIP3    H229529   0.546   5.723  15.397 -0.1630 -1.5191  0.2022
 2680TIP3   OH229530   3.894   1.413  15.603  0.1183 -0.1509  0.2081
 2680TIP3    H129531   3.920   1.401  15.694  0.3708 -1.2322  0.0013
 2680TIP3    H229532   3.812   1.462  15.608 -0.8338 -1.7473  1.0977
 2681TIP3   OH229533   4.531   3.677   5.649  0.1701 -0.0902  0.0354
 2681TIP3    H129534   4.508   3.769   5.656 -0.1827 -0.1998  0.3635
 2681TIP3    H229535   4.509   3.640   5.735 -0.5215 -0.6558 -0.3668
 2682TIP3   OH229536   1.052   1.755   0.701  0.0508 -0.3047  0.2632
 2682TIP3    H129537   0.959   1.768   0.715 -0.1150  0.7309 -1.5257
 2682TIP3    H229538   1.066   1.662   0.720 -1.7735 -0.9869 -1.3916
 2683TIP3   OH229539   4.268   4.740  11.630 -0.2970  0.0479 -0.8315
 2683TIP3    H129540   4.330   4.753  11.702 -0.5418 -1.5457 -0.2903
 2683TIP3    H229541   4.219   4.822  11.626  0.5823  0.6371 -0.0404
 2684TIP3   OH229542   1.987   1.410   0.516 -0.2613  0.2440 -0.0980
 2684TIP3    H129543   1.976   1.318   0.540  0.9892  0.1228  0.0686
 2684TIP3    H229544   1.911   1.430   0.460 -1.3080 -0.4719  1.0160
 2685TIP3   OH229545   4.975   4.727   4.743  0.2248 -0.3622 -0.2590
 2685TIP3    H129546   5.044   4.738   4.677  0.1333  0.6825 -0.1973
 2685TIP3    H229547   4.921   4.655   4.710  1.7667 -1.7405  0.0755
 2686TIP3   OH229548   0.134   0.524   4.992 -0.5744  0.0732  0.6031
 2686TIP3    H129549   0.111   0.606   5.036  1.0588  1.9323 -1.7748
 2686TIP3    H229550   0.206   0.488   5.044  1.6666  2.4861 -0.6030
 2687TIP3   OH229551   6.009   4.967  14.280 -0.4472  0.3248  0.6389
 2687TIP3    H129552   6.054   5.034  14.331 -0.7200  1.1768 -0.2014
 2687TIP3    H229553   5.925   4.954  14.325  0.1314 -0.4157  1.5382
 2688TIP3   OH229554   2.544   2.522   2.441  0.1938 -0.0909  0.2544
 2688TIP3    H129555   2.450   2.515   2.423 -0.5476  0.1178  3.3756
 2688TIP3    H229556   2.581   2.441   2.405 -1.6086 -1.3197  0.9787
 2689TIP3   OH229557   2.881   0.926   4.376  0.0877  0.4248  0.0801
 2689TIP3    H129558   2.804   0.968   4.413  1.5044  0.9856  2.6554
 2689TIP3    H229559   2.860   0.913   4.283 -2.2997  2.3191  0.2665
 2690TIP3   OH229560   5.512   0.455   5.265 -0.3018 -0.6460  0.1656
 2690TIP3    H129561   5.445   0.486   5.204  0.5971  0.6781 -0.1885
 2690TIP3    H229562   5.521   0.527   5.328 -0.2260 -1.4210  1.0606
 2691TIP3   OH229563   4.715   6.567  16.441  0.5617  0.1627  0.2758
 2691TIP3    H129564   4.637   6.520  16.469  0.2242  0.8074  0.4422
 2691TIP3    H229565   4.705   6.576  16.346  0.5440  0.0441  0.2664
 2692TIP3   OH229566   0.958   2.097  13.386  0.1932  0.1628  0.2287
 2692TIP3    H129567   1.031   2.098  13.449  0.6457  0.9965 -0.2913
 2692TIP3    H229568   0.998   2.124  13.303 -0.5676 -0.1119 -0.2358
 2693TIP3   OH229569   3.290   0.064   5.383 -0.3992  0.2277  0.0123
 2693TIP3    H129570   3.266  -0.027   5.365 -0.0386  0.4241 -1.6460
 2693TIP3    H229571   3.369   0.058   5.436  1.1872 -0.4986 -2.2894
 2694TIP3   OH229572   5.753   0.368  14.212  0.1445 -0.4368 -0.2124
 2694TIP3    H129573   5.782   0.305  14.146  0.2560 -0.0505 -0.5315
 2694TIP3    H229574   5.683   0.322  14.259 -1.1518 -0.0952 -1.7203
 2695TIP3   OH229575   0.704   3.804  16.011 -0.2189  0.5291 -0.3682
 2695TIP3    H129576   0.743   3.735  15.957  1.1592 -0.0356  1.2605
 2695TIP3    H229577   0.613   3.775  16.024 -0.1196 -0.1366 -1.0276
 2696TIP3   OH229578   0.811   2.631  12.797  0.1200 -0.3392 -0.0857
 2696TIP3    H129579   0.835   2.724  12.793 -0.0737 -0.3297 -1.6617
 2696TIP3    H229580   0.718   2.631  12.817 -0.0442 -0.1558 -0.8182
 2697TIP3   OH229581   2.064   2.966  12.916 -0.4231 -0.2686 -0.9200
 2697TIP3    H129582   2.156   2.989  12.924 -0.3091 -1.0634  0.3943
 2697TIP3    H229583   2.016   3.047  12.933  0.0114 -0.2620  0.2968
 2698TIP3   OH229584   3.440   0.844   5.003 -0.0272  0.1473 -0.1264
 2698TIP3    H129585   3.384   0.920   5.015  0.6660  0.4924  1.0827
 2698TIP3    H229586   3.503   0.849   5.074  0.3037 -1.3249 -0.2815
 2699TIP3   OH229587   1.377   6.678   3.812  0.0567 -0.5784 -0.2630
 2699TIP3    H129588   1.330   6.643   3.736 -0.0140 -0.8029 -0.1171
 2699TIP3    H229589   1.328   6.645   3.888 -0.4538  0.4490 -0.1278
 2700TIP3   OH229590   4.273   1.385   1.925 -0.3782 -0.6918  0.1877
 2700TIP3    H129591   4.195   1.435   1.951 -0.1688 -0.8311  1.1363
 2700TIP3    H229592   4.241   1.321   1.861 -0.6387  0.6658 -1.0708
 2701TIP3   OH229593   4.244   4.201  12.505  0.0158 -0.3596  0.4089
 2701TIP3    H129594   4.228   4.109  12.524  0.4856 -1.1608 -2.6077
 2701TIP3    H229595   4.198   4.218  12.423  0.2468  2.0100  0.6849
 2702TIP3   OH229596   2.243   1.111   1.064 -0.5567 -0.6619 -0.0353
 2702TIP3    H129597   2.334   1.092   1.040  0.1168  0.2831  1.5512
 2702TIP3    H229598   2.207   1.156   0.988  1.4478  2.2190  0.5501
 2703TIP3   OH229599   1.473   1.099  11.083  0.3662 -0.0617 -0.1365
 2703TIP3    H129600   1.487   1.052  11.001 -2.7603  0.6639 -1.1931
 2703TIP3    H229601   1.466   1.031  11.149 -1.0481 -0.9245 -1.1448
 2704TIP3   OH229602   5.225   5.633  15.138  0.1218 -0.1485  0.5783
 2704TIP3    H129603   5.151   5.673  15.092  1.0218  0.5119 -0.3270
 2704TIP3    H229604   5.185   5.589  15.213 -0.9987  1.7995  1.1934
 2705TIP3   OH229605   4.286   3.379  15.642  0.2573 -0.2608  0.4872
 2705TIP3    H129606   4.229   3.310  15.609  1.4286 -0.2721 -1.6570
 2705TIP3    H229607   4.239   3.460  15.624  1.3497 -0.1697 -2.5520
 2706TIP3   OH229608   1.338   0.706   2.056  0.5294  0.1054 -0.7190
 2706TIP3    H129609   1.244   0.721   2.041  0.6432  0.7745 -0.7995
 2706TIP3    H229610   1.381   0.743   1.979  0.7443 -2.3832 -1.8663
 2707TIP3   OH229611   3.197   1.864  16.281 -0.5866  0.0488 -0.5730
 2707TIP3    H129612   3.131   1.877  16.349 -0.0895 -0.2010 -0.0310
 2707TIP3    H229613   3.277   1.842  16.330  1.0302  4.2844 -0.9156
 2708TIP3   OH229614   0.244   3.814  14.211 -0.1783  0.3183  0.3389
 2708TIP3    H129615   0.335   3.785  14.198 -0.4229 -0.5683  0.5340
 2708TIP3    H229616   0.250   3.876  14.284  0.4868  1.5295 -0.6956
 2709TIP3   OH229617   2.159   3.573  12.247 -0.5223 -0.3936  0.3224
 2709TIP3    H129618   2.142   3.523  12.168  1.8922 -2.3638  0.9334
 2709TIP3    H229619   2.215   3.646  12.218  1.2330 -1.6935  0.2664
 2710TIP3   OH229620   6.150   2.747   5.420  0.3065 -0.0774  0.0410
 2710TIP3    H129621   6.159   2.762   5.325  1.8184 -1.1121 -0.0076
 2710TIP3    H229622   6.105   2.663   5.427  1.5931 -0.7751  0.2028
 2711TIP3   OH229623   5.078   4.982   0.264 -0.8249 -0.1390  0.3187
 2711TIP3    H129624   5.058   5.062   0.314 -1.8493  0.3145 -0.7598
 2711TIP3    H229625   5.120   5.013   0.184 -0.4623 -0.7494  0.2675
 2712TIP3   OH229626   5.445   4.611  12.197  0.3557 -0.2582  0.0732
 2712TIP3    H129627   5.373   4.675  12.198  0.5498 -0.0329  1.4246
 2712TIP3    H229628   5.498   4.637  12.121 -0.5063  0.0993 -0.4397
 2713TIP3   OH229629   0.760   6.477  13.379 -0.4461 -0.1116  0.3251
 2713TIP3    H129630   0.698   6.447  13.312 -2.1632  0.5609  1.5274
 2713TIP3    H229631   0.846   6.470  13.337 -1.1816 -2.3254 -0.9723
 2714TIP3   OH229632   6.079   1.527  15.453  0.1312  0.5384  0.5956
 2714TIP3    H129633   5.992   1.487  15.451  0.1989  0.4068 -0.1624
 2714TIP3    H229634   6.097   1.542  15.546 -0.0433 -0.8792  0.8804
 2715TIP3   OH229635   6.216   4.150   0.181 -0.7551 -0.3728  0.2690
 2715TIP3    H129636   6.250   4.201   0.255 -1.0742  2.3122 -1.2764
 2715TIP3    H229637   6.171   4.076   0.222 -0.8718  0.9487  2.7680
 2716TIP3   OH229638   3.876   5.711   4.648 -0.1745 -0.2446 -0.5388
 2716TIP3    H129639   3.781   5.700   4.643  0.1783 -3.9049 -1.4480
 2716TIP3    H229640   3.899   5.759   4.568 -1.0957 -1.0091 -1.2826
 2717TIP3   OH229641   5.510   3.454  13.603 -0.0410 -0.7269 -0.1966
 2717TIP3    H129642   5.526   3.384  13.539  0.5159 -0.3600 -0.4712
 2717TIP3    H229643   5.539   3.534  13.559  0.9165 -0.5408  0.7245
 2718TIP3   OH229644   4.605   0.345  11.795  0.8565 -0.0310 -0.0014
 2718TIP3    H129645   4.512   0.367  11.791  0.9496  0.1807 -1.8446
 2718TIP3    H229646   4.614   0.264  11.745  1.5793 -0.4033  0.6992
 2719TIP3   OH229647   1.714   5.998  16.523 -0.4226  0.2957  0.1954
 2719TIP3    H129648   1.752   6.085  16.537  0.7061 -0.1629  0.0731
 2719TIP3    H229649   1.776   5.938  16.564 -0.1660 -0.6061 -1.4357
 2720TIP3   OH229650   0.999   6.465   5.066 -0.0202  0.3191  0.1744
 2720TIP3    H129651   0.967   6.489   4.979 -1.8713  0.4451  0.8425
 2720TIP3    H229652   0.921   6.469   5.122  1.1089  0.1598  1.8258
 2721TIP3   OH229653   2.244   2.831   3.203  0.1149  0.3690 -0.4777
 2721TIP3    H129654   2.188   2.753   3.213  1.1565 -0.4835 -1.0820
 2721TIP3    H229655   2.235   2.877   3.287  2.4479 -2.4230  1.5221
 2722TIP3   OH229656   0.058   3.560  12.775  0.3916 -0.2172 -0.6787
 2722TIP3    H129657   0.056   3.468  12.748  1.5534 -0.1458 -1.0357
 2722TIP3    H229658   0.135   3.597  12.733 -0.5467  1.1716 -1.2814
 2723TIP3   OH229659   1.884   6.345   1.817  0.2072  0.1541  0.0910
 2723TIP3    H129660   1.924   6.352   1.904  3.6829 -0.5457 -1.2933
 2723TIP3    H229661   1.890   6.252   1.796 -0.4605  0.3406 -0.9851
 2724TIP3   OH229662   1.120   4.618   3.477 -0.1509 -0.2651 -0.0379
 2724TIP3    H129663   1.102   4.633   3.384  0.8019  1.3581 -0.0056
 2724TIP3    H229664   1.212   4.644   3.488 -0.3397 -0.1169  1.4261
 2725TIP3   OH229665   3.565   6.764  13.783 -0.0831  0.1717  0.3877
 2725TIP3    H129666   3.618   6.728  13.712  2.1835  1.4784  1.3184
 2725TIP3    H229667   3.518   6.838  13.744 -1.4796 -1.1134 -0.4916
 2726TIP3   OH229668   1.626   2.072   2.293  0.1932  0.5932 -0.4062
 2726TIP3    H129669   1.555   2.099   2.352  0.2456  0.7548 -0.4169
 2726TIP3    H229670   1.668   2.000   2.339  0.4531  0.9422 -0.0815
 2727TIP3   OH229671   6.224   1.728  11.299 -0.0027  0.1176  0.2442
 2727TIP3    H129672   6.219   1.638  11.331 -0.4291  0.3184  0.7476
 2727TIP3    H229673   6.150   1.736  11.238  1.4105 -0.5873 -1.6674
 2728TIP3   OH229674   1.100   0.400  13.470 -0.0368 -0.3031 -0.1320
 2728TIP3    H129675   1.018   0.383  13.422 -0.4745  1.3084 -0.0316
 2728TIP3    H229676   1.078   0.383  13.561 -0.1606 -0.2133 -0.1446
 2729TIP3   OH229677   5.427   0.927  14.731  0.7109 -0.8592  0.6197
 2729TIP3    H129678   5.351   0.871  14.749  0.0554  0.3906  1.9355
 2729TIP3    H229679   5.415   0.955  14.640 -1.0027  0.1317  1.1042
 2730TIP3   OH229680   5.847   0.244  13.998 -0.1591  0.9126  0.0376
 2730TIP3    H129681   5.931   0.199  14.013 -0.4062  0.8108  1.2303
 2730TIP3    H229682   5.857   0.284  13.912 -0.3060 -2.2812 -1.6373
 2731TIP3   OH229683   1.427   3.185   4.321  0.2311 -0.3997  0.0944
 2731TIP3    H129684   1.478   3.263   4.299  0.4598  0.5034  3.3571
 2731TIP3    H229685   1.484   3.112   4.298  1.4624  0.5070  0.1875
 2732TIP3   OH229686   4.400   4.001   1.077  0.1499 -0.2903 -0.6857
 2732TIP3    H129687   4.370   4.085   1.044 -1.9549 -0.7679 -0.1879
 2732TIP3    H229688   4.412   3.947   0.999  0.2492  0.0856 -0.9330
 2733TIP3   OH229689   4.649   5.067   6.378  0.0177  0.2720 -0.1902
 2733TIP3    H129690   4.673   5.158   6.364  1.7741 -0.0981  0.2439
 2733TIP3    H229691   4.657   5.055   6.473  4.1310 -1.3902 -0.5576
 2734TIP3   OH229692   6.820   5.021  12.192 -0.2560 -0.4178 -0.5976
 2734TIP3    H129693   6.775   4.946  12.231 -0.9046 -0.4903 -1.4547
 2734TIP3    H229694   6.819   5.088  12.261 -0.4635 -0.8928 -0.1348
 2735TIP3   OH229695   4.726   3.162  11.537  0.6516  0.7105  0.2927
 2735TIP3    H129696   4.751   3.081  11.581  3.5608  0.7571 -1.0120
 2735TIP3    H229697   4.720   3.139  11.444  1.1446  1.8706 -0.0556
 2736TIP3   OH229698   2.201   0.236  14.910  0.3244  0.0895  0.1399
 2736TIP3    H129699   2.137   0.190  14.964  1.1657  1.1989  2.2163
 2736TIP3    H229700   2.169   0.327  14.907  0.2204  0.0241 -1.3954
 2737TIP3   OH229701   0.133   2.322   1.845 -0.0406 -0.1585 -0.6046
 2737TIP3    H129702   0.224   2.292   1.834  0.0002 -0.2331 -0.1005
 2737TIP3    H229703   0.110   2.361   1.761  0.7523  0.6214 -0.4746
 2738TIP3   OH229704   2.686   4.564  12.372 -0.1121  0.4702  0.0017
 2738TIP3    H129705   2.612   4.507  12.349 -1.5562  0.7726  3.4103
 2738TIP3    H229706   2.669   4.645  12.324 -1.7392  0.3538  0.3228
 2739TIP3   OH229707   4.185   1.036  14.868 -0.0382 -0.1588  0.3147
 2739TIP3    H129708   4.189   1.068  14.958 -1.3082 -0.6663  0.5800
 2739TIP3    H229709   4.257   1.080  14.823 -0.2423  1.1833  1.2354
 2740TIP3   OH229710   0.023   1.506  15.352 -0.0284  0.4035  0.4423
 2740TIP3    H129711   0.049   1.470  15.268  0.6292 -0.6527  1.0809
 2740TIP3    H229712  -0.024   1.435  15.395 -1.6947  1.4160  0.3848
 2741TIP3   OH229713   5.653   0.495  15.447 -0.0684 -0.3993 -0.4621
 2741TIP3    H129714   5.644   0.438  15.523  1.0814 -2.5199 -1.8078
 2741TIP3    H229715   5.719   0.452  15.393 -1.0143  0.8911 -2.7719
 2742TIP3   OH229716   3.998   0.604  14.015  0.3769  0.3593  0.0548
 2742TIP3    H129717   4.011   0.597  13.920  0.6052  0.9695  0.0392
 2742TIP3    H229718   3.940   0.531  14.036 -0.3773  0.7196 -0.6892
 2743TIP3   OH229719   6.167   2.588  16.242  0.1985 -0.3066  0.5541
 2743TIP3    H129720   6.162   2.683  16.242  1.1277 -0.2495  0.4856
 2743TIP3    H229721   6.076   2.559  16.256  0.1344  0.5813  2.2366
 2744TIP3   OH229722   1.201   6.046   3.740  0.6238 -0.3267  0.1039
 2744TIP3    H129723   1.115   6.079   3.765  0.7807 -0.5402  0.9623
 2744TIP3    H229724   1.199   6.042   3.644  0.0422  0.6207  0.0722
 2745TIP3   OH229725   2.314   1.118   3.884 -0.3818  0.5441 -0.3066
 2745TIP3    H129726   2.276   1.130   3.797 -0.7324 -0.5581 -0.3144
 2745TIP3    H229727   2.255   1.057   3.928  1.0710 -0.8099 -0.1405
 2746TIP3   OH229728   4.876   6.478  13.371  0.1166 -0.4654 -0.0122
 2746TIP3    H129729   4.791   6.443  13.343 -0.5078  0.0774  1.1396
 2746TIP3    H229730   4.921   6.403  13.410  0.9469 -1.2019 -2.2350
 2747TIP3   OH229731   5.463   5.378   5.528  0.2309 -0.1085 -0.3567
 2747TIP3    H129732   5.493   5.468   5.530 -1.6942  0.5778  0.0931
 2747TIP3    H229733   5.542   5.325   5.543  1.1121  1.5695  1.2802
 2748TIP3   OH229734   0.684   0.161  16.233 -0.8833  0.4625  0.1396
 2748TIP3    H129735   0.702   0.111  16.154 -0.2376  1.0380 -0.0840
 2748TIP3    H229736   0.705   0.100  16.305 -0.9342  0.1280 -0.1251
 2749TIP3   OH229737   2.973   1.347  10.322  0.4944  0.6268  0.2260
 2749TIP3    H129738   2.898   1.333  10.381 -0.0916  1.0562 -0.4000
 2749TIP3    H229739   3.040   1.386  10.378 -0.2069  1.4293  0.5372
 2750TIP3   OH229740   1.647   2.477   1.954 -0.0050  0.4860  0.4402
 2750TIP3    H129741   1.574   2.494   1.894  0.6780 -1.0248 -0.8819
 2750TIP3    H229742   1.705   2.553   1.943  0.3158  0.0486 -1.1883
 2751TIP3   OH229743   4.284   3.064  15.835 -0.1031 -0.2829  0.1457
 2751TIP3    H129744   4.354   3.019  15.788  0.3733 -1.2178  1.6564
 2751TIP3    H229745   4.293   3.033  15.926 -3.0032 -1.1088  0.2464
 2752TIP3   OH229746   5.905   4.568   1.590  0.1842 -0.0727 -0.0342
 2752TIP3    H129747   5.992   4.607   1.599  0.5147 -0.7294 -0.3382
 2752TIP3    H229748   5.888   4.569   1.496 -0.5111  0.8431  0.0855
 2753TIP3   OH229749   6.244   0.470  16.945 -0.2777  0.0757 -0.7940
 2753TIP3    H129750   6.325   0.508  16.978 -1.3538  1.4507  0.4395
 2753TIP3    H229751   6.256   0.465  16.850  0.9881  0.9107 -0.6993
 2754TIP3   OH229752   6.005   3.197   9.997  0.8696  0.1905  0.2217
 2754TIP3    H129753   6.080   3.193   9.937  1.2931 -0.4313  0.7722
 2754TIP3    H229754   6.040   3.165  10.080  0.3906  1.4028  0.9135
 2755TIP3   OH229755   2.469   6.355  15.167 -0.2891 -0.3179 -0.2463
 2755TIP3    H129756   2.399   6.325  15.225 -0.5051  1.2783  0.3760
 2755TIP3    H229757   2.545   6.362  15.224 -0.3817  0.7892 -0.2296
 2756TIP3   OH229758   2.502   5.859   2.156  0.1178 -0.1280  0.3165
 2756TIP3    H129759   2.420   5.858   2.107  0.0393  0.9765  0.3913
 2756TIP3    H229760   2.533   5.769   2.153  1.1863  0.1760 -3.5978
 2757TIP3   OH229761   4.260   0.203   4.378 -0.0289 -0.0844  0.3432
 2757TIP3    H129762   4.307   0.259   4.317 -0.1077  1.3936  1.5693
 2757TIP3    H229763   4.273   0.115   4.345  0.4147  0.6169 -1.4527
 2758TIP3   OH229764   3.349   1.041  11.386  0.1651 -0.0429  0.0767
 2758TIP3    H129765   3.437   1.012  11.364  0.0685 -0.6893  0.4913
 2758TIP3    H229766   3.352   1.136  11.382  1.1457 -0.0200  1.0657
 2759TIP3   OH229767   3.087   0.801   1.005  0.0329 -0.3038  0.8565
 2759TIP3    H129768   3.180   0.786   0.986  0.1026  0.2022  0.7879
 2759TIP3    H229769   3.063   0.877   0.952 -1.4384 -2.6425 -2.1138
 2760TIP3   OH229770   5.170   4.562  17.158  0.6887  0.3728  0.1513
 2760TIP3    H129771   5.141   4.477  17.191 -3.4272  1.3752 -0.3456
 2760TIP3    H229772   5.192   4.546  17.066 -1.3835  0.0131 -0.3202
 2761TIP3   OH229773   3.111   4.579   0.325 -0.2441 -0.0366  0.6361
 2761TIP3    H129774   3.169   4.503   0.315  1.0373  0.6424  2.3720
 2761TIP3    H229775   3.111   4.621   0.240  1.3702 -0.3935  0.4265
 2762TIP3   OH229776   4.510   3.676  12.557  0.5017  0.1433  0.0887
 2762TIP3    H129777   4.486   3.693  12.466 -0.6689 -0.6141  0.2299
 2762TIP3    H229778   4.463   3.595  12.579  0.7000  0.3657  1.3897
 2763TIP3   OH229779   3.786   0.609  11.997  0.6351  0.1254  0.1238
 2763TIP3    H129780   3.790   0.520  11.962  0.0165 -0.5189  1.6385
 2763TIP3    H229781   3.813   0.601  12.088  1.5638  1.6708  0.0311
 2764TIP3   OH229782   6.343   5.037   2.898  0.2184 -0.4223  0.2983
 2764TIP3    H129783   6.333   5.075   2.986  1.3115 -0.4843  0.4532
 2764TIP3    H229784   6.329   4.943   2.911 -1.2367 -0.2552  0.1206
 2765TIP3   OH229785   6.111   2.114  12.750  0.1701 -0.5534 -0.4994
 2765TIP3    H129786   6.090   2.205  12.730  0.8859 -0.5696 -1.4529
 2765TIP3    H229787   6.104   2.069  12.665  1.7134 -0.9798 -0.4376
 2766TIP3   OH229788   2.762   5.645  11.055  0.2449  0.4532  0.2154
 2766TIP3    H129789   2.802   5.665  10.971  2.6655  3.2788  1.8472
 2766TIP3    H229790   2.810   5.569  11.087 -1.5726 -1.4818 -1.3708
 2767TIP3   OH229791   3.500   2.933  12.298  0.0654 -0.5600  0.1764
 2767TIP3    H129792   3.478   2.848  12.260 -1.1948  0.2065 -0.8993
 2767TIP3    H229793   3.596   2.935  12.299  0.1422 -1.1502 -1.7911
 2768TIP3   OH229794   5.879   5.008   1.230 -0.3663 -0.0127  0.3895
 2768TIP3    H129795   5.816   5.009   1.159 -2.0553  0.2505  1.8212
 2768TIP3    H229796   5.915   5.097   1.232  1.7724 -0.6974 -1.7846
 2769TIP3   OH229797   0.379   0.864  16.347 -0.1391 -0.3762 -0.3660
 2769TIP3    H129798   0.445   0.798  16.326  2.0048  1.8075 -0.9656
 2769TIP3    H229799   0.425   0.948  16.339 -1.6485  1.1533  3.7920
 2770TIP3   OH229800   0.356   2.468  14.619 -0.3120 -0.2423  0.0549
 2770TIP3    H129801   0.329   2.508  14.536 -0.4595 -0.1261  0.1585
 2770TIP3    H229802   0.450   2.452  14.608 -0.1896  0.3851  0.1108
 2771TIP3   OH229803   4.671   1.844   2.212 -0.2535  0.0061 -0.1087
 2771TIP3    H129804   4.577   1.834   2.199 -0.6324  1.6716  0.9695
 2771TIP3    H229805   4.704   1.755   2.223 -1.7667 -0.5852 -0.1188
 2772TIP3   OH229806   1.656   4.207   5.241 -0.0049  0.1085 -0.1113
 2772TIP3    H129807   1.666   4.287   5.293 -0.3246  0.1250 -0.0765
 2772TIP3    H229808   1.688   4.230   5.155 -0.0880  0.2727 -0.0983
 2773TIP3   OH229809   4.998   0.057   4.637 -0.3931  0.3109 -0.0031
 2773TIP3    H129810   5.038  -0.028   4.657 -0.4778  0.5165  1.1543
 2773TIP3    H229811   5.022   0.112   4.711 -2.3438  0.5935  0.4840
 2774TIP3   OH229812   6.093   4.289  11.163  1.1554 -0.6172  0.2944
 2774TIP3    H129813   6.014   4.276  11.112  0.3945 -0.3653  1.3646
 2774TIP3    H229814   6.146   4.211  11.146  1.4816  0.0212 -1.7918
 2775TIP3   OH229815   3.986   4.017   3.890  0.1568  0.1540 -0.2257
 2775TIP3    H129816   3.965   4.060   3.807  0.3185 -1.5882 -1.2178
 2775TIP3    H229817   3.956   3.926   3.878  2.7369 -0.8812  0.5540
 2776TIP3   OH229818   4.892   6.110  11.399  0.2142  0.1903 -0.0244
 2776TIP3    H129819   4.894   6.128  11.305  1.9920  0.3198  0.0153
 2776TIP3    H229820   4.967   6.053  11.415 -1.5474 -2.0041  0.9241
 2777TIP3   OH229821   0.470   2.268  14.390  0.6107  0.2148  0.4778
 2777TIP3    H129822   0.561   2.294  14.403  1.6312 -1.4998 -2.2281
 2777TIP3    H229823   0.473   2.172  14.385 -1.3153  0.1354  0.2127
 2778TIP3   OH229824   4.575   6.595  10.858  0.6290 -0.2708 -0.1247
 2778TIP3    H129825   4.642   6.643  10.907 -0.5597  1.6056 -0.2354
 2778TIP3    H229826   4.547   6.657  10.790  0.1161 -1.7193 -1.2725
 2779TIP3   OH229827   0.463   4.700   2.690 -0.4398  0.5021  0.8904
 2779TIP3    H129828   0.428   4.725   2.776 -0.8973  0.7399  0.6335
 2779TIP3    H229829   0.388   4.705   2.631 -0.5722 -1.4790  0.8204
 2780TIP3   OH229830   4.738   0.337   3.536  0.0300 -0.1624  0.1354
 2780TIP3    H129831   4.748   0.361   3.443 -0.2805  0.0039  0.1447
 2780TIP3    H229832   4.644   0.331   3.549  0.0293  0.8654  0.7077
 2781TIP3   OH229833   1.065   2.793  14.472 -0.1098  0.4669  0.1874
 2781TIP3    H129834   1.103   2.834  14.549 -1.7305  2.3011  0.0908
 2781TIP3    H229835   1.011   2.723  14.507  0.1928  0.4402  0.6109
 2782TIP3   OH229836   3.840   0.290   6.019  0.2161  0.0051  0.3595
 2782TIP3    H129837   3.787   0.366   6.040 -0.8430 -0.4120 -0.6649
 2782TIP3    H229838   3.846   0.241   6.101 -2.3566 -0.7335  0.1988
 2783TIP3   OH229839   6.599   5.804   6.371  0.0021  0.5924 -0.2016
 2783TIP3    H129840   6.562   5.755   6.298  0.8036  0.3263 -0.4444
 2783TIP3    H229841   6.688   5.826   6.343  0.1685  0.8831  0.5099
 2784TIP3   OH229842   2.055   2.813  16.340 -0.4142 -0.6101 -0.0059
 2784TIP3    H129843   2.060   2.894  16.290  0.4044 -0.2300  0.6822
 2784TIP3    H229844   2.144   2.798  16.372 -0.6348 -1.5657  0.2178
 2785TIP3   OH229845   6.641   1.626  14.492  0.1267 -0.6375 -0.1222
 2785TIP3    H129846   6.710   1.647  14.554 -1.3967  1.2716  1.0262
 2785TIP3    H229847   6.644   1.696  14.428 -1.5873  0.2699  0.7299
 2786TIP3   OH229848   2.775   5.119  13.087  0.3614  0.1696  0.2854
 2786TIP3    H129849   2.802   5.207  13.058 -1.1118  0.3565 -0.6493
 2786TIP3    H229850   2.730   5.082  13.011  1.0451 -1.4465  0.6410
 2787TIP3   OH229851   2.368   0.672   4.961  0.0415  0.1164  0.2922
 2787TIP3    H129852   2.434   0.627   4.909 -0.2942  0.6826 -0.6488
 2787TIP3    H229853   2.292   0.615   4.959  0.0396  0.1229  0.1880
 2788TIP3   OH229854   3.373   4.132   2.186 -0.1061  0.4963  0.0437
 2788TIP3    H129855   3.316   4.172   2.120 -1.4319 -2.1488 -0.5412
 2788TIP3    H229856   3.401   4.205   2.240 -1.1029  2.4107 -1.8724
 2789TIP3   OH229857   4.209   5.294  12.639 -0.2291  0.4617  0.1146
 2789TIP3    H129858   4.198   5.383  12.604  2.6276  0.3596 -1.2859
 2789TIP3    H229859   4.288   5.299  12.693 -1.6037 -0.6495  2.3822
 2790TIP3   OH229860   2.087   6.505   0.019 -0.3851 -0.3217  0.7745
 2790TIP3    H129861   2.094   6.464   0.106  1.9750  0.8858  1.2292
 2790TIP3    H229862   1.999   6.543   0.018 -0.7015 -0.9132  2.3693
 2791TIP3   OH229863   5.223   1.754   2.594  0.4039  0.3228  0.0532
 2791TIP3    H129864   5.161   1.827   2.596 -0.2082 -0.2057  1.2317
 2791TIP3    H229865   5.264   1.754   2.681  1.7663  0.4022 -0.5631
 2792TIP3   OH229866   4.022   2.860  13.779 -0.2291  0.2198 -0.0737
 2792TIP3    H129867   3.995   2.770  13.764 -0.7818 -0.0197  1.9935
 2792TIP3    H229868   4.117   2.855  13.791  0.1697  0.3657 -2.6247
 2793TIP3   OH229869   0.986   2.504  15.014 -0.1679  0.2020 -0.0128
 2793TIP3    H129870   1.055   2.570  15.006  0.2224 -0.3641 -1.6685
 2793TIP3    H229871   1.026   2.423  14.983 -0.6062 -0.8783  2.0915
 2794TIP3   OH229872   1.006   2.082   0.109 -0.0549 -0.0892 -0.0747
 2794TIP3    H129873   1.102   2.084   0.108 -0.0660  1.2110  0.2876
 2794TIP3    H229874   0.985   1.992   0.134  1.0777 -0.1671  0.6853
 2795TIP3   OH229875   0.531   5.286  16.289 -0.8669 -0.6318  0.4570
 2795TIP3    H129876   0.579   5.313  16.211 -1.6937 -2.2571 -0.6991
 2795TIP3    H229877   0.463   5.228  16.255 -2.3414 -0.0325  2.2327
 2796TIP3   OH229878   2.224   2.200   5.483  0.8267 -0.2570  0.3908
 2796TIP3    H129879   2.248   2.234   5.397  1.9342  0.0207  0.7955
 2796TIP3    H229880   2.129   2.192   5.480  0.6056  2.0186 -0.0387
 2797TIP3   OH229881   3.090   6.132   0.710  0.4045  0.2381 -0.1085
 2797TIP3    H129882   3.029   6.186   0.660 -0.1357 -0.8364 -0.6615
 2797TIP3    H229883   3.124   6.070   0.646  0.4165 -0.5680  0.6584
 2798TIP3   OH229884   4.362   5.978   4.622  0.2011  0.1376  0.2586
 2798TIP3    H129885   4.433   5.995   4.560  0.4457 -1.2942  0.1093
 2798TIP3    H229886   4.405   5.932   4.694 -0.3517  0.4378  0.7800
 2799TIP3   OH229887   1.251   0.621  15.878 -0.0665  0.4933  0.5906
 2799TIP3    H129888   1.333   0.580  15.850 -1.1017 -1.0416 -0.3560
 2799TIP3    H229889   1.265   0.715  15.865  1.0975  0.1622 -0.7769
 2800TIP3   OH229890   4.148   5.596  16.770 -0.1790  0.4389 -0.2277
 2800TIP3    H129891   4.069   5.573  16.722 -0.5955  0.4106  0.4711
 2800TIP3    H229892   4.219   5.577  16.708 -0.5481 -1.7556 -0.0526
 2801TIP3   OH229893   1.182   1.126   3.626  0.0528  0.1135  0.2959
 2801TIP3    H129894   1.194   1.215   3.592  0.1593  0.5701  1.4955
 2801TIP3    H229895   1.088   1.109   3.613  0.4153 -0.5189 -2.0411
 2802TIP3   OH229896   5.884   5.652  10.452  0.0538  0.2374  0.3380
 2802TIP3    H129897   5.959   5.639  10.510  1.3847  0.0929 -1.3276
 2802TIP3    H229898   5.917   5.628  10.365 -1.6654  1.0798 -0.5923
 2803TIP3   OH229899   4.772   4.013   2.530 -0.5291 -0.1651 -0.2826
 2803TIP3    H129900   4.686   4.028   2.491 -1.1886 -1.3872  0.6072
 2803TIP3    H229901   4.796   3.925   2.501 -0.3036 -0.4490  0.7336
 2804TIP3   OH229902   2.431   2.987   3.608  0.0090  0.0180  0.4726
 2804TIP3    H129903   2.456   2.903   3.648 -0.8814 -0.1059  0.7822
 2804TIP3    H229904   2.466   3.053   3.668 -1.4052 -0.1678  1.5474
 2805TIP3   OH229905   6.393   1.720   2.926 -0.2290 -0.6740 -0.1226
 2805TIP3    H129906   6.310   1.767   2.913 -1.6549 -2.2421  2.3409
 2805TIP3    H229907   6.417   1.690   2.839 -1.6096  0.8035 -1.0878
 2806TIP3   OH229908   1.804   4.807  16.291  0.2868  0.0062 -0.2574
 2806TIP3    H129909   1.713   4.780  16.302  0.5238 -1.2606 -1.1211
 2806TIP3    H229910   1.840   4.807  16.380 -0.8307  1.7377  0.2588
 2807TIP3   OH229911   0.894   3.840   3.607  0.5426  0.0635 -0.6748
 2807TIP3    H129912   0.945   3.759   3.605 -1.7443 -1.7483  3.0583
 2807TIP3    H229913   0.804   3.812   3.594 -0.2802  2.0878  0.2573
 2808TIP3   OH229914   3.903   6.823   0.015  0.4774 -0.3745  0.1115
 2808TIP3    H129915   3.942   6.862  -0.063  0.9268 -1.7690 -0.4057
 2808TIP3    H229916   3.932   6.731   0.012  0.5751 -0.4440  1.9609
 2809TIP3   OH229917   6.455   0.074   2.464 -0.9524  0.1943 -0.2230
 2809TIP3    H129918   6.446   0.024   2.545  1.2732 -0.0620 -0.0801
 2809TIP3    H229919   6.490   0.012   2.401  1.8574  1.4444 -0.0390
 2810TIP3   OH229920   0.174   3.928  11.273  0.5896  0.1483 -0.1823
 2810TIP3    H129921   0.108   3.859  11.285  1.1864 -0.1500  1.7103
 2810TIP3    H229922   0.126   4.009  11.285  0.4059 -0.0329  0.3142
 2811TIP3   OH229923   3.924   4.094  13.152  0.1287  0.1003  0.1960
 2811TIP3    H129924   3.960   4.021  13.102 -1.0610  0.1059 -0.7395
 2811TIP3    H229925   3.971   4.171  13.119  1.2452 -0.1967  1.0444
 2812TIP3   OH229926   3.925   6.312   5.202 -0.3693  0.5007 -0.1115
 2812TIP3    H129927   3.983   6.341   5.131 -0.7994  0.7074 -0.3850
 2812TIP3    H229928   3.863   6.253   5.159  2.2050 -3.2763  0.8945
 2813TIP3   OH229929   5.158   4.325  15.617  0.3673 -0.2644  0.6372
 2813TIP3    H129930   5.207   4.338  15.536  2.0664 -2.2075  1.2871
 2813TIP3    H229931   5.160   4.231  15.633 -0.7621 -0.0471  2.4599
 2814TIP3   OH229932   5.448   4.929  14.830  0.3844 -0.8646  0.4991
 2814TIP3    H129933   5.484   4.941  14.918  0.5832  0.5939  0.2558
 2814TIP3    H229934   5.384   4.859  14.839  1.5704 -1.8736  1.4459
 2815TIP3   OH229935   5.910   5.257  13.498 -0.3060  0.0999  0.7450
 2815TIP3    H129936   5.968   5.333  13.490  0.3155 -0.4388 -0.0397
 2815TIP3    H229937   5.969   5.182  13.492 -1.2086 -0.5122 -1.6555
 2816TIP3   OH229938   0.846   1.535   3.365 -0.3069  0.0466 -0.4127
 2816TIP3    H129939   0.756   1.556   3.390 -0.5604  0.1472 -1.3544
 2816TIP3    H229940   0.855   1.573   3.277  0.6189 -0.0667 -0.3709
 2817TIP3   OH229941   1.162   0.184   2.726 -0.6710  0.5975 -0.8926
 2817TIP3    H129942   1.110   0.204   2.649 -0.7159  0.4869 -0.8907
 2817TIP3    H229943   1.150   0.090   2.740  0.2518  0.3890 -1.4270
 2818TIP3   OH229944   6.811   4.789  11.845 -0.2605  1.1126  0.2428
 2818TIP3    H129945   6.859   4.728  11.789  0.3569  2.4350 -0.7170
 2818TIP3    H229946   6.826   4.757  11.934 -0.3305 -0.3732 -0.2553
 2819TIP3   OH229947   2.384   1.902   0.990  0.2009 -0.8831  0.3568
 2819TIP3    H129948   2.378   1.806   0.990 -0.5414 -0.8857  2.6256
 2819TIP3    H229949   2.295   1.931   0.967  0.9780 -0.6572 -2.7396
 2820TIP3   OH229950   1.674   4.864  11.841  0.0541 -0.7130 -0.2695
 2820TIP3    H129951   1.675   4.957  11.866  0.6591 -0.6682 -0.4467
 2820TIP3    H229952   1.583   4.837  11.852 -0.1980 -0.0031 -0.5418
 2821TIP3   OH229953   5.296   4.857  13.180  0.5337 -0.3645  0.1473
 2821TIP3    H129954   5.207   4.850  13.147  0.9931  0.9673 -1.4772
 2821TIP3    H229955   5.286   4.873  13.274 -0.8751 -1.4704  0.2177
 2822TIP3   OH229956   0.935   5.523   3.778 -0.2235 -0.0165  0.6592
 2822TIP3    H129957   0.950   5.489   3.866  1.2541  0.3763  0.5745
 2822TIP3    H229958   0.977   5.609   3.778 -0.3882  0.0749 -0.3792
 2823TIP3   OH229959   0.117   5.815  15.430 -0.2311 -0.0055 -0.7690
 2823TIP3    H129960   0.091   5.723  15.419 -0.8904  0.3360 -2.3955
 2823TIP3    H229961   0.197   5.823  15.379  1.3666 -0.2592  1.5511
 2824TIP3   OH229962   4.225   1.276   1.232  0.1028  0.1371 -0.8320
 2824TIP3    H129963   4.209   1.364   1.266 -1.7914 -0.3639 -0.3132
 2824TIP3    H229964   4.139   1.235   1.231  0.7181 -1.2434 -2.4463
 2825TIP3   OH229965   6.390   0.723  13.321  0.0074 -0.1052 -0.0503
 2825TIP3    H129966   6.486   0.722  13.314  0.1828  1.6221  1.4570
 2825TIP3    H229967   6.360   0.737  13.231  1.1461 -0.7585 -0.5588
 2826TIP3   OH229968   1.781   1.898  12.175  0.1060 -0.2253 -0.1046
 2826TIP3    H129969   1.805   1.955  12.102 -1.1851 -0.0996 -0.4565
 2826TIP3    H229970   1.809   1.946  12.253  1.0022 -0.1137 -0.4818
 2827TIP3   OH229971   1.659   6.721  14.326 -0.0914  0.4730  0.0644
 2827TIP3    H129972   1.721   6.714  14.398  1.6258  0.2414 -1.3660
 2827TIP3    H229973   1.579   6.755  14.366  1.1451  1.4028  1.8751
 2828TIP3   OH229974   2.625   5.004   0.171 -0.5485 -0.2962 -0.1860
 2828TIP3    H129975   2.603   5.017   0.079 -0.3110  0.9533 -0.0790
 2828TIP3    H229976   2.581   4.923   0.195 -0.3847 -0.7854 -1.4690
 2829TIP3   OH229977   2.362   0.276  11.580 -0.1744  0.2202  0.4628
 2829TIP3    H129978   2.368   0.326  11.662  0.2556 -0.7255  1.0207
 2829TIP3    H229979   2.353   0.343  11.512 -0.9482  1.0079  1.3144
 2830TIP3   OH229980   4.077   1.233  10.729  0.3106  0.2763 -0.2670
 2830TIP3    H129981   4.110   1.303  10.673  0.8593  1.3076  1.2644
 2830TIP3    H229982   4.034   1.279  10.802 -0.9814 -1.0108 -0.1716
 2831TIP3   OH229983   0.799   2.225  14.798  0.8512  0.2538  0.1510
 2831TIP3    H129984   0.818   2.190  14.885  0.8336 -0.3250 -0.0683
 2831TIP3    H229985   0.728   2.170  14.765  0.6925  0.6262 -0.1310
 2832TIP3   OH229986   5.378   3.241   2.734  0.6739 -0.8934 -0.2445
 2832TIP3    H129987   5.401   3.296   2.659  3.9783  0.2337  1.4122
 2832TIP3    H229988   5.419   3.157   2.715 -0.0864 -1.2141 -0.5043
 2833TIP3   OH229989   1.576   5.407   0.919 -0.3778  0.2586  0.1067
 2833TIP3    H129990   1.567   5.333   0.859 -3.1445  0.2592  0.3459
 2833TIP3    H229991   1.635   5.468   0.875 -0.3639 -0.8154 -1.4469
 2834TIP3   OH229992   3.383   3.498   3.002  0.0937 -0.9592 -0.2820
 2834TIP3    H129993   3.375   3.494   2.906  1.4541  0.1627 -0.4740
 2834TIP3    H229994   3.379   3.592   3.022  2.4798 -0.9738  0.4806
 2835TIP3   OH229995   2.073   3.152   1.548  0.1171  0.0236  0.4942
 2835TIP3    H129996   2.046   3.141   1.457 -0.0422 -0.0817  0.5548
 2835TIP3    H229997   2.168   3.161   1.544  0.3298 -1.9212  0.4865
 2836TIP3   OH229998   3.651   6.480   3.344  0.0529  0.3832 -0.1343
 2836TIP3    H129999   3.560   6.469   3.373  0.6807 -0.6077  1.5647
 2836TIP3    H230000   3.687   6.547   3.402 -0.0366  2.0991 -1.9517
 2837TIP3   OH230001   4.584   1.960  12.876  0.2410  0.1862 -0.7016
 2837TIP3    H130002   4.492   1.946  12.896  0.0242  0.2966 -1.5881
 2837TIP3    H230003   4.630   1.938  12.957 -0.5541  0.0673 -0.2762
 2838TIP3   OH230004   0.896   6.832   1.790  0.0764  0.5395  0.0955
 2838TIP3    H130005   0.841   6.776   1.735  1.7801  0.4655 -1.6666
 2838TIP3    H230006   0.941   6.889   1.727  1.1609  1.3514  1.5532
 2839TIP3   OH230007   1.321   1.717   0.691 -0.0942  0.0457  0.1031
 2839TIP3    H130008   1.278   1.632   0.676  1.0280 -0.5514  0.0939
 2839TIP3    H230009   1.265   1.761   0.755 -0.4712 -0.8931  0.4517
 2840TIP3   OH230010   4.557   2.089  13.606 -0.2093 -0.4563  0.2266
 2840TIP3    H130011   4.493   2.031  13.565  0.1250 -0.2399 -0.6319
 2840TIP3    H230012   4.591   2.141  13.534  1.0511 -0.6722  0.6470
 2841TIP3   OH230013   6.040   3.097  16.374  0.7347 -0.1661 -0.0692
 2841TIP3    H130014   6.009   3.181  16.408  0.7813 -0.3580  0.4647
 2841TIP3    H230015   6.101   3.120  16.304 -0.5630  0.2074 -1.0954
 2842TIP3   OH230016   3.929   4.700   2.070 -0.1156  0.3672 -0.0676
 2842TIP3    H130017   3.910   4.694   2.164  1.9376  0.4079  0.3847
 2842TIP3    H230018   3.999   4.637   2.055 -0.1539  0.6429 -1.5112
 2843TIP3   OH230019   6.691   3.190   1.933 -0.7287 -0.4713  0.1140
 2843TIP3    H130020   6.785   3.176   1.938 -0.5026  1.4102  2.7359
 2843TIP3    H230021   6.653   3.105   1.953  0.4795 -0.5773  2.2464
 2844TIP3   OH230022   2.645   2.841  11.687 -0.0207 -0.1203  0.4417
 2844TIP3    H130023   2.636   2.934  11.710 -1.6209 -0.1805  0.1845
 2844TIP3    H230024   2.706   2.806  11.752  0.7352  1.1336  0.4433
 2845TIP3   OH230025   0.429   3.841  14.936 -0.0319 -0.0756  0.4208
 2845TIP3    H130026   0.376   3.905  14.982  0.0062 -0.8182  1.5451
 2845TIP3    H230027   0.482   3.799  15.004 -0.3421 -1.5681 -0.2063
 2846TIP3   OH230028   1.909   3.924   3.863 -0.8924 -0.4130  0.1689
 2846TIP3    H130029   1.921   4.002   3.918  0.6019  0.5118 -1.3465
 2846TIP3    H230030   1.851   3.867   3.913  0.5478  0.2673  2.7730
 2847TIP3   OH230031   6.807   2.714   1.104  0.5490 -0.1881  0.2909
 2847TIP3    H130032   6.764   2.748   1.025  0.6473 -1.1404 -0.1815
 2847TIP3    H230033   6.827   2.792   1.155  1.8809  0.5942 -1.3192
 2848TIP3   OH230034   3.377   6.377   5.932 -0.0921 -0.5238  0.1638
 2848TIP3    H130035   3.368   6.451   5.992 -0.6001  0.7250 -1.4061
 2848TIP3    H230036   3.395   6.302   5.990  1.3379  0.9393  1.7361
 2849TIP3   OH230037   3.891   4.935  13.569  0.4747 -0.4527  0.5731
 2849TIP3    H130038   3.918   4.999  13.636  1.1312  1.1377 -1.1188
 2849TIP3    H230039   3.958   4.866  13.574 -0.1370 -0.9819  2.2984
 2850TIP3   OH230040   1.873   3.370   1.707 -0.1744 -0.5688 -0.3710
 2850TIP3    H130041   1.913   3.362   1.620  2.5914 -1.1413  0.8810
 2850TIP3    H230042   1.932   3.325   1.766 -3.4575 -2.8469  1.5206
 2851TIP3   OH230043   5.073   5.145   5.557 -0.4995 -0.5402  0.1641
 2851TIP3    H130044   5.152   5.109   5.517  0.5574  3.6709 -2.1120
 2851TIP3    H230045   5.102   5.180   5.641  0.1165  0.9485 -0.6432
 2852TIP3   OH230046   1.306   0.748  16.960 -0.3101  0.0465 -0.3494
 2852TIP3    H130047   1.320   0.790  17.045  1.2768 -1.8800  0.4398
 2852TIP3    H230048   1.385   0.695  16.946 -3.0772 -4.8550  0.1672
 2853TIP3   OH230049   0.279   1.872  16.690 -0.8165  0.1565 -0.3872
 2853TIP3    H130050   0.350   1.905  16.635 -0.5383 -0.9136 -0.7096
 2853TIP3    H230051   0.321   1.811  16.751 -1.1452  1.2245  0.9474
 2854TIP3   OH230052   4.626   4.728  11.229 -0.2562 -0.4225  0.6344
 2854TIP3    H130053   4.544   4.730  11.278  0.5094 -0.7428  1.9778
 2854TIP3    H230054   4.604   4.683  11.147 -1.8688  1.2924  0.0614
 2855TIP3   OH230055   3.582   3.766  11.932 -0.6262 -0.1867  0.6233
 2855TIP3    H130056   3.628   3.725  11.859 -1.1067 -0.5680  0.5251
 2855TIP3    H230057   3.558   3.692  11.989 -1.5528 -0.0622  0.4130
 2856TIP3   OH230058   2.164   0.625  16.984  0.4875  0.2955 -0.1502
 2856TIP3    H130059   2.177   0.719  16.973  1.8703  0.1627  0.2233
 2856TIP3    H230060   2.242   0.585  16.945 -1.2746 -0.8652 -2.8036
 2857TIP3   OH230061   6.669   2.176  11.049 -0.1274 -0.1372  0.1387
 2857TIP3    H130062   6.627   2.161  11.134 -2.5819 -2.9994 -1.3972
 2857TIP3    H230063   6.598   2.203  10.991  0.9770 -0.7351 -1.5720
 2858TIP3   OH230064   2.189   6.404  11.448 -0.0237 -0.2201  0.2300
 2858TIP3    H130065   2.228   6.361  11.525  1.5967 -1.2079 -1.0789
 2858TIP3    H230066   2.191   6.336  11.380  1.0878  1.4208 -1.4506
 2859TIP3   OH230067   2.324   0.906   0.824 -0.0256  0.2549  0.1240
 2859TIP3    H130068   2.351   0.827   0.777 -1.0319  0.4089 -0.7274
 2859TIP3    H230069   2.300   0.968   0.756  1.5401  1.6319  0.7441
 2860TIP3   OH230070   2.720   6.768   4.229  0.1262  0.2197  0.5843
 2860TIP3    H130071   2.724   6.782   4.323  1.1469 -1.1156  0.7700
 2860TIP3    H230072   2.649   6.704   4.217  0.0514  0.3256  0.4572
 2861TIP3   OH230073   5.327   1.054   3.166  0.3610 -0.0469  0.1130
 2861TIP3    H130074   5.379   0.984   3.205  0.8483  0.3219  0.1388
 2861TIP3    H230075   5.260   1.074   3.232 -1.4487 -2.2458 -0.9282
 2862TIP3   OH230076   4.513   2.244  15.984 -0.4049  0.0721  0.0011
 2862TIP3    H130077   4.568   2.166  15.978 -0.3422  0.1859 -1.4358
 2862TIP3    H230078   4.551   2.305  15.920 -0.6081  1.1849  0.9097
 2863TIP3   OH230079   6.702   6.264  12.925  0.4010  0.4783  0.2281
 2863TIP3    H130080   6.730   6.233  12.839  1.9471  1.4904  0.3180
 2863TIP3    H230081   6.673   6.354  12.910 -2.0774 -0.2523  0.3086
 2864TIP3   OH230082   1.601   2.418  16.596  0.4705 -0.4615  0.7628
 2864TIP3    H130083   1.678   2.456  16.553  0.6858 -0.2188  1.3633
 2864TIP3    H230084   1.636   2.375  16.674  0.1894 -1.5993  0.2945
 2865TIP3   OH230085   4.136   0.653  14.378  0.1689 -0.2544 -0.0250
 2865TIP3    H130086   4.045   0.651  14.349  0.4589 -1.5216 -0.9042
 2865TIP3    H230087   4.144   0.578  14.438  0.9100 -0.8455 -0.8416
 2866TIP3   OH230088   6.252   3.998  16.795  0.5175  0.0910 -0.4295
 2866TIP3    H130089   6.273   3.971  16.706  2.1374 -0.8180  0.1712
 2866TIP3    H230090   6.193   3.930  16.827 -0.4413  0.6656 -0.9338
 2867TIP3   OH230091   2.586   5.782   0.162  0.2442 -0.1390 -0.1275
 2867TIP3    H130092   2.676   5.800   0.192  0.1499 -0.6013  0.4458
 2867TIP3    H230093   2.570   5.848   0.094  0.8789  0.1980  0.0410
 2868TIP3   OH230094   4.769   4.747  11.886  0.2021 -0.2508  0.4345
 2868TIP3    H130095   4.711   4.673  11.869  0.0999  0.2149 -1.3784
 2868TIP3    H230096   4.825   4.754  11.809  0.7696  1.0692  0.9144
 2869TIP3   OH230097   6.388   1.807   0.313  0.0783 -0.0731 -0.4499
 2869TIP3    H130098   6.425   1.872   0.253 -1.1133  1.1123  0.0418
 2869TIP3    H230099   6.431   1.824   0.397 -0.3837  0.2399 -0.2705
 2870TIP3   OH230100   5.126   6.618  12.290  0.1010  0.5103 -0.0141
 2870TIP3    H130101   5.112   6.621  12.385  0.1943 -1.7475  0.1240
 2870TIP3    H230102   5.160   6.530  12.274 -0.2257  0.7373 -2.1927
 2871TIP3   OH230103   2.165   3.401   6.569 -0.5227 -0.0205  0.5234
 2871TIP3    H130104   2.209   3.319   6.547 -0.2195 -0.1350  1.5121
 2871TIP3    H230105   2.236   3.461   6.591 -0.8170  0.0055  1.4409
 2872TIP3   OH230106   6.020   5.937   1.653  0.4625 -0.2977 -0.0763
 2872TIP3    H130107   5.968   5.866   1.614  0.4065 -0.2440 -0.0999
 2872TIP3    H230108   6.027   5.914   1.745 -0.3438  0.1371  0.1046
 2873TIP3   OH230109   5.912   3.646   5.059  0.1879  0.0041  0.1943
 2873TIP3    H130110   5.876   3.602   5.137 -0.3294 -0.7461 -0.4480
 2873TIP3    H230111   5.883   3.737   5.068  0.7137  0.0914  1.2150
 2874TIP3   OH230112   5.852   3.058   5.428  0.0072  0.2431  0.4825
 2874TIP3    H130113   5.922   3.009   5.385 -0.3733 -1.7495  2.0088
 2874TIP3    H230114   5.882   3.068   5.518 -0.8980  0.9318  0.7222
 2875TIP3   OH230115   0.705   3.075   5.251 -0.1843  0.0249 -0.4272
 2875TIP3    H130116   0.745   3.037   5.173 -0.1940 -1.6671  0.3499
 2875TIP3    H230117   0.701   3.003   5.314 -0.2591  1.3211  1.1176
 2876TIP3   OH230118   6.781   5.795  13.350  0.5379 -0.3994 -0.0696
 2876TIP3    H130119   6.858   5.808  13.406  0.6823  1.3019 -0.5995
 2876TIP3    H230120   6.715   5.853  13.387 -0.4118 -1.6014  0.1784
 2877TIP3   OH230121   3.016   3.924   4.578 -0.0622  0.2089  0.3365
 2877TIP3    H130122   2.972   3.988   4.522 -0.3334 -0.3934 -0.1580
 2877TIP3    H230123   3.040   3.973   4.657 -0.5246  0.8421  0.0942
 2878TIP3   OH230124   4.866   2.281   4.905 -0.6431 -0.2644 -0.0976
 2878TIP3    H130125   4.778   2.293   4.942 -0.5780 -0.3626  0.0890
 2878TIP3    H230126   4.852   2.282   4.811 -1.0791 -1.9457 -0.0794
 2879TIP3   OH230127   0.330   2.611   1.642  0.1730  0.2076 -0.1242
 2879TIP3    H130128   0.328   2.621   1.737 -1.1390 -0.5807 -0.0526
 2879TIP3    H230129   0.308   2.519   1.626 -1.9913  0.8550 -1.2543
 2880TIP3   OH230130   3.726   5.308  16.346  0.5240 -0.4738  0.1771
 2880TIP3    H130131   3.762   5.320  16.258 -0.5529  1.2603 -0.0690
 2880TIP3    H230132   3.660   5.378  16.355 -0.3385 -1.4455  1.8611
 2881TIP3   OH230133   0.078   4.215  12.002 -0.2474  0.2663 -0.1372
 2881TIP3    H130134   0.113   4.162  11.931 -2.2112  0.0371 -0.9982
 2881TIP3    H230135   0.041   4.292  11.959 -0.7019  0.5411  0.7141
 2882TIP3   OH230136   1.661   6.430  11.084  1.3885 -0.2515  0.3031
 2882TIP3    H130137   1.641   6.518  11.117  0.2084  0.2371 -1.5627
 2882TIP3    H230138   1.741   6.442  11.032  0.7585 -0.0769 -0.6495
 2883TIP3   OH230139   4.658   5.679   5.843 -0.0323  0.0963 -0.5144
 2883TIP3    H130140   4.580   5.635   5.878 -0.9831  1.0514 -1.3342
 2883TIP3    H230141   4.703   5.611   5.792 -1.0557 -0.1618 -1.1127
 2884TIP3   OH230142   4.311   3.078   2.326  0.2588  0.2096 -0.2117
 2884TIP3    H130143   4.401   3.110   2.327 -0.0186  1.0066 -0.5273
 2884TIP3    H230144   4.280   3.089   2.416  0.5436 -0.2869 -0.0461
 2885TIP3   OH230145   1.817   4.699   2.992  0.4694 -0.1287 -0.1065
 2885TIP3    H130146   1.907   4.699   2.959  0.9709 -1.4513  1.1183
 2885TIP3    H230147   1.784   4.612   2.969 -1.2641  1.0388 -2.3795
 2886TIP3   OH230148   2.735   3.096   1.061 -0.1464  0.4421  0.3774
 2886TIP3    H130149   2.829   3.116   1.064 -0.2556  0.8850  1.2809
 2886TIP3    H230150   2.731   3.002   1.048  0.4659  0.0782  2.4650
 2887TIP3   OH230151   1.350   4.278  16.660 -0.0092  0.0214 -0.5488
 2887TIP3    H130152   1.264   4.259  16.698 -0.8494  1.8080 -1.4258
 2887TIP3    H230153   1.364   4.371  16.678  1.4803 -0.0985 -0.9398
 2888TIP3   OH230154   5.455   0.587   0.447  0.3158  0.1598 -0.9547
 2888TIP3    H130155   5.472   0.679   0.468  0.7658  0.0533 -0.8562
 2888TIP3    H230156   5.535   0.541   0.472  0.0783 -0.2659 -0.9723
 2889TIP3   OH230157   5.580   0.681   4.920 -0.2927  0.7764 -0.0545
 2889TIP3    H130158   5.560   0.700   5.012 -0.1001 -1.1403  0.4356
 2889TIP3    H230159   5.512   0.726   4.871  0.3698  2.9480  0.9049
 2890TIP3   OH230160   0.799   6.189   4.447  0.7486 -0.2275 -0.1044
 2890TIP3    H130161   0.707   6.194   4.420  0.7693 -0.9124 -0.3020
 2890TIP3    H230162   0.836   6.118   4.396  0.9752 -1.0565  1.1652
 2891TIP3   OH230163   0.276   2.810  11.665  0.1895  0.3387  0.5133
 2891TIP3    H130164   0.310   2.881  11.719  3.8667 -0.6776 -0.1460
 2891TIP3    H230165   0.312   2.827  11.578 -0.2231 -1.4196 -0.0398
 2892TIP3   OH230166   0.351   5.382   3.442 -0.0112 -0.3562  0.0313
 2892TIP3    H130167   0.274   5.436   3.456 -1.3220 -2.6963  3.0431
 2892TIP3    H230168   0.318   5.292   3.442  2.3381 -1.3851 -2.3595
 2893TIP3   OH230169   2.398   3.537   1.973  0.4261 -0.2124  0.2021
 2893TIP3    H130170   2.361   3.498   2.052 -1.8761  1.0454 -0.1356
 2893TIP3    H230171   2.441   3.465   1.928  2.9354 -0.7446  3.1180
 2894TIP3   OH230172   5.280   4.569   3.365 -0.2668  0.5779 -0.1505
 2894TIP3    H130173   5.240   4.513   3.298  0.8443  0.2791 -0.5876
 2894TIP3    H230174   5.345   4.620   3.317  0.8737  0.0267  0.7792
 2895TIP3   OH230175   2.826   3.589   5.068 -0.2362 -0.6482  0.0841
 2895TIP3    H130176   2.850   3.498   5.085  1.4492 -0.5436 -1.4263
 2895TIP3    H230177   2.774   3.585   4.987  2.3136 -0.0976 -1.7108
 2896TIP3   OH230178   5.047   4.907   0.911 -0.4813 -0.6165 -0.3729
 2896TIP3    H130179   5.081   4.887   0.999  0.5128 -2.6185 -1.1555
 2896TIP3    H230180   4.958   4.938   0.927 -0.2471 -0.7055  1.3693
 2897TIP3   OH230181   3.535   4.924   5.712 -0.2991  0.5497 -0.0926
 2897TIP3    H130182   3.498   5.012   5.706 -0.2363  0.4875 -2.1721
 2897TIP3    H230183   3.473   4.875   5.767 -0.7858  1.6476  0.3609
 2898TIP3   OH230184   1.629   2.200  16.121  0.6993  0.3363  0.3775
 2898TIP3    H130185   1.631   2.267  16.189 -0.7059 -0.3448  1.1019
 2898TIP3    H230186   1.540   2.204  16.086  0.0337 -2.2536  1.5820
 2899TIP3   OH230187   2.963   5.472   4.107  0.4447  0.1635 -0.4668
 2899TIP3    H130188   3.045   5.522   4.110 -0.0642  1.0276 -0.4293
 2899TIP3    H230189   2.926   5.492   4.021 -0.1790  0.5479 -0.1218
 2900TIP3   OH230190   2.952   0.875  12.063  0.0142  0.1597 -0.2932
 2900TIP3    H130191   2.871   0.925  12.054 -0.0330  0.0196 -0.6622
 2900TIP3    H230192   3.010   0.908  11.995  0.9928  1.6109  1.1590
 2901TIP3   OH230193   0.501   0.904  12.113 -0.2813  0.3951  0.1958
 2901TIP3    H130194   0.535   0.992  12.098  0.3350  0.2535  0.7160
 2901TIP3    H230195   0.417   0.903  12.068  0.4425  0.7115 -1.2370
 2902TIP3   OH230196   3.262   4.156  16.129 -0.2564  0.1624 -0.2188
 2902TIP3    H130197   3.180   4.111  16.148 -0.2489  0.3771  0.3221
 2902TIP3    H230198   3.240   4.249  16.135 -0.3948  0.2606 -1.8155
 2903TIP3   OH230199   2.841   0.848  14.672 -0.0848  0.0698  0.1973
 2903TIP3    H130200   2.846   0.904  14.595  0.0562  2.4160  1.7954
 2903TIP3    H230201   2.932   0.828  14.693 -0.0534  0.5730  0.5372
 2904TIP3   OH230202   5.732   1.376  13.214  0.1253  0.5408  0.3859
 2904TIP3    H130203   5.742   1.443  13.147 -1.1380  0.8896  0.5280
 2904TIP3    H230204   5.720   1.294  13.165 -0.7088  0.7817  0.1777
 2905TIP3   OH230205   0.481   3.366  14.787  0.1131 -0.0124  0.2553
 2905TIP3    H130206   0.394   3.339  14.816  0.1009 -0.5916 -0.2985
 2905TIP3    H230207   0.467   3.449  14.741 -0.0858  0.0976  0.5108
 2906TIP3   OH230208   5.642   4.538  16.704 -0.3410 -0.6579  0.3127
 2906TIP3    H130209   5.714   4.601  16.709  1.1015 -2.2374  0.4907
 2906TIP3    H230210   5.563   4.590  16.718  0.5528  1.4799 -1.8646
 2907TIP3   OH230211   6.482   5.360   2.268 -0.0957 -0.1929 -0.0068
 2907TIP3    H130212   6.452   5.451   2.263  1.6525  0.5821  2.0190
 2907TIP3    H230213   6.544   5.351   2.195 -1.1680 -0.1768 -0.9522
 2908TIP3   OH230214   0.353   1.859  14.883 -0.5571  0.3729  0.3531
 2908TIP3    H130215   0.395   1.940  14.852  0.5122 -0.1484  0.3954
 2908TIP3    H230216   0.393   1.843  14.969  0.8848 -1.3647 -0.5856
 2909TIP3   OH230217   2.740   2.035  10.832 -0.6510 -0.4270 -0.0014
 2909TIP3    H130218   2.764   2.121  10.798 -1.8347  0.5279  1.4491
 2909TIP3    H230219   2.675   2.002  10.770 -2.5624  1.1609  1.0480
 2910TIP3   OH230220   5.087   5.273  14.613 -0.9976  0.0345  0.0648
 2910TIP3    H130221   5.005   5.235  14.582 -1.1183  0.6414 -0.3710
 2910TIP3    H230222   5.111   5.219  14.688 -1.9615  0.0460  0.3985
 2911TIP3   OH230223   6.176   1.600   2.497 -0.7352  0.1251  0.2808
 2911TIP3    H130224   6.239   1.653   2.447 -1.1493 -0.0094 -0.3990
 2911TIP3    H230225   6.198   1.510   2.474 -1.3136  0.0857 -0.1303
 2912TIP3   OH230226   5.004   4.319  14.968  0.5008 -0.6800 -0.3711
 2912TIP3    H130227   4.939   4.269  15.018  2.2774 -2.2969  0.4380
 2912TIP3    H230228   5.060   4.253  14.928  0.9523  0.6450 -2.0685
 2913TIP3   OH230229   6.071   0.633   4.789  0.2091  0.2026  0.3419
 2913TIP3    H130230   6.001   0.697   4.775  1.5332  1.6105 -0.1198
 2913TIP3    H230231   6.111   0.660   4.872 -0.2980 -1.1142  1.0459
 2914TIP3   OH230232   4.364   3.516   0.197  0.6039  0.5065  0.4072
 2914TIP3    H130233   4.328   3.469   0.273  0.6336 -1.3329 -0.6528
 2914TIP3    H230234   4.449   3.547   0.226  0.1009  0.9084  1.5042
 2915TIP3   OH230235   0.112   5.187   1.975  0.0383 -0.3842  0.1060
 2915TIP3    H130236   0.118   5.156   2.066  1.0475 -1.2754 -0.2484
 2915TIP3    H230237   0.084   5.279   1.983  0.6039 -0.2983  1.3417
 2916TIP3   OH230238   4.195   0.711   1.847 -0.2200 -0.1514  0.3979
 2916TIP3    H130239   4.213   0.620   1.825 -0.3678 -1.0170  3.3928
 2916TIP3    H230240   4.100   0.720   1.838 -0.2192 -0.3261  0.2137
 2917TIP3   OH230241   1.321   4.715  15.156 -0.1778  0.2198  0.4057
 2917TIP3    H130242   1.276   4.733  15.239 -2.7986 -0.1462 -0.8240
 2917TIP3    H230243   1.367   4.633  15.170 -1.0752 -0.1360  1.3394
 2918TIP3   OH230244   0.373   5.731   5.393  0.5377 -0.0759  0.0054
 2918TIP3    H130245   0.387   5.661   5.457  0.1946 -0.9639 -0.8546
 2918TIP3    H230246   0.436   5.711   5.323  0.8875  0.8597  0.0401
 2919TIP3   OH230247   3.877   2.121  16.161  0.0844 -0.3730  0.2906
 2919TIP3    H130248   3.815   2.062  16.117  0.7248 -0.1676 -0.9126
 2919TIP3    H230249   3.912   2.176  16.092  0.4087  0.6216  1.2160
 2920TIP3   OH230250   2.500   0.664   2.033 -0.0977  0.0886  0.2940
 2920TIP3    H130251   2.452   0.706   2.104 -1.9313  0.1154 -0.8849
 2920TIP3    H230252   2.522   0.735   1.973 -0.9569 -0.2696 -0.4645
 2921TIP3   OH230253   2.065   1.867  13.201 -0.4362 -0.4481  0.4048
 2921TIP3    H130254   2.105   1.927  13.137  1.0729 -2.3164 -0.5487
 2921TIP3    H230255   1.994   1.917  13.241  0.2725  1.6890 -0.8446
 2922TIP3   OH230256   0.372   0.688   2.339  0.1475 -0.2148  0.0220
 2922TIP3    H130257   0.316   0.641   2.400 -0.0502 -0.3275 -0.2426
 2922TIP3    H230258   0.389   0.625   2.269  1.4296 -0.5237  0.5825
 2923TIP3   OH230259   4.432   0.943   4.024  0.0507  0.6294  0.1043
 2923TIP3    H130260   4.356   1.001   4.012 -1.8464 -1.3987  1.4970
 2923TIP3    H230261   4.406   0.861   3.981  1.0350 -0.4510  1.4901
 2924TIP3   OH230262   3.414   2.932   0.591  0.1698  0.2630  0.1245
 2924TIP3    H130263   3.362   3.007   0.620 -1.1207 -0.9649  1.1228
 2924TIP3    H230264   3.403   2.867   0.660 -0.6735 -1.7317 -1.7847
 2925TIP3   OH230265   0.003   0.505   5.861  0.3209 -0.2439  0.2579
 2925TIP3    H130266   0.027   0.486   5.770 -0.9792 -0.6434 -0.0296
 2925TIP3    H230267   0.048   0.587   5.881  1.6389 -0.7894 -0.3111
 2926TIP3   OH230268   3.737   4.830  16.368  0.5997  0.5229 -0.1582
 2926TIP3    H130269   3.727   4.906  16.426  1.4972  1.2074 -0.8824
 2926TIP3    H230270   3.782   4.864  16.291  1.0197 -0.7481 -0.4972
 2927TIP3   OH230271   2.084   4.097   0.007 -0.4110  0.2286 -0.4687
 2927TIP3    H130272   2.091   4.130   0.097  1.7436 -2.1920  0.4004
 2927TIP3    H230273   2.007   4.141  -0.029  0.0280  3.1366  1.7162
 2928TIP3   OH230274   6.042   5.587   5.130  0.2284  0.3486 -0.0685
 2928TIP3    H130275   5.988   5.637   5.068  0.1106 -1.9148 -1.9399
 2928TIP3    H230276   5.987   5.578   5.208  0.1136  2.7257  0.1913
 2929TIP3   OH230277   1.364   4.369   2.394  0.6727 -0.1989  0.9256
 2929TIP3    H130278   1.373   4.464   2.402  0.3763 -0.1144  0.2876
 2929TIP3    H230279   1.370   4.337   2.484 -1.2219  0.5871  1.3836
 2930TIP3   OH230280   2.361   6.575   0.134 -0.3782 -0.0882 -0.1571
 2930TIP3    H130281   2.278   6.529   0.150 -0.6389  1.0138  2.2386
 2930TIP3    H230282   2.335   6.661   0.100 -0.4247  0.8922  2.1590
 2931TIP3   OH230283   6.621   0.391   2.929  0.1013  0.0539 -0.6422
 2931TIP3    H130284   6.562   0.465   2.941  0.3038 -0.1903  2.8821
 2931TIP3    H230285   6.563   0.317   2.906 -0.9138  0.0452  1.7169
 2932TIP3   OH230286   3.924   4.250  14.258 -0.3188  0.3545 -0.4305
 2932TIP3    H130287   3.899   4.177  14.200 -1.1850  0.2568  0.0486
 2932TIP3    H230288   3.881   4.326  14.220 -0.0082  0.4885 -0.5168
 2933TIP3   OH230289   6.747   6.227  15.013 -0.3436 -0.4636 -0.4354
 2933TIP3    H130290   6.759   6.212  14.919 -1.4362  1.3526 -0.9202
 2933TIP3    H230291   6.786   6.312  15.029  0.6285 -1.1455  0.9834
 2934TIP3   OH230292   0.417   3.757   1.990  0.1054  0.0552 -0.3499
 2934TIP3    H130293   0.491   3.701   2.015  0.3407  0.1965 -0.7164
 2934TIP3    H230294   0.393   3.727   1.902 -1.5591 -1.3090  0.5045
 2935TIP3   OH230295   5.417   1.582   1.496 -0.4779 -0.5219  0.0916
 2935TIP3    H130296   5.462   1.535   1.424 -0.7272 -2.3667  1.0679
 2935TIP3    H230297   5.488   1.615   1.550 -0.2632 -1.4460  0.4007
 2936TIP3   OH230298   1.967   5.450  11.366 -1.0257 -0.3954 -0.0654
 2936TIP3    H130299   1.941   5.512  11.435  0.8853  0.4905 -0.0618
 2936TIP3    H230300   2.053   5.481  11.338 -1.8541 -0.5699 -3.0793
 2937TIP3   OH230301   5.672   6.540  16.989 -0.2915 -0.3514  0.2893
 2937TIP3    H130302   5.733   6.472  17.019 -0.0831  0.1459  1.0386
 2937TIP3    H230303   5.589   6.494  16.978  0.3519 -1.1825 -1.4158
 2938TIP3   OH230304   3.344   5.284   5.134 -0.3092 -0.7000 -0.5199
 2938TIP3    H130305   3.324   5.352   5.069  0.5509 -1.2637 -1.3891
 2938TIP3    H230306   3.365   5.333   5.214  1.3653  0.1197 -1.4238
 2939TIP3   OH230307   5.787   4.980  15.982  0.0527  0.0322  0.3064
 2939TIP3    H130308   5.774   5.067  15.945 -3.2874  0.1903  1.4668
 2939TIP3    H230309   5.792   4.994  16.077 -0.3056 -0.9996  0.4977
 2940TIP3   OH230310   1.822   0.520  12.918 -0.0230  0.0250 -0.5544
 2940TIP3    H130311   1.895   0.467  12.885 -1.2269 -1.0140 -1.6668
 2940TIP3    H230312   1.745   0.486  12.873 -1.1812  1.2633  0.3894
 2941TIP3   OH230313   1.889   2.979   1.734  0.1471  0.4003 -0.2002
 2941TIP3    H130314   1.937   2.998   1.653  0.7356  0.1848  0.0929
 2941TIP3    H230315   1.799   2.962   1.705  0.3903  0.1444 -0.8274
 2942TIP3   OH230316   6.768   2.062  16.931 -0.6534  0.4055  0.5339
 2942TIP3    H130317   6.686   2.109  16.919  0.4362  2.3579  0.3517
 2942TIP3    H230318   6.806   2.058  16.843 -1.5216 -2.5139  0.1876
 2943TIP3   OH230319   4.705   3.676  14.041 -0.3343  0.1433 -0.0730
 2943TIP3    H130320   4.691   3.598  13.989  3.1706 -0.2288 -0.7214
 2943TIP3    H230321   4.733   3.644  14.127 -0.5751  0.7024  0.2230
 2944TIP3   OH230322   2.325   4.161   0.855 -0.0808 -0.3843 -0.2751
 2944TIP3    H130323   2.302   4.213   0.778 -0.0918 -0.8843 -0.6138
 2944TIP3    H230324   2.398   4.106   0.826 -1.2434 -1.8641 -0.4663
 2945TIP3   OH230325   2.028   4.974  15.789  0.5426  0.1146 -0.2485
 2945TIP3    H130326   2.067   4.891  15.760  0.4152  0.5184 -1.6461
 2945TIP3    H230327   1.940   4.951  15.818  1.6146 -0.7786  2.7386
 2946TIP3   OH230328   4.022   4.414   4.703  0.6441 -0.1812 -0.0903
 2946TIP3    H130329   4.060   4.480   4.761 -0.6802 -0.6405  1.3481
 2946TIP3    H230330   3.974   4.465   4.637  0.0329  0.3132  0.7232
 2947TIP3   OH230331   5.658   5.452  15.178  0.0270  0.2578 -0.3082
 2947TIP3    H130332   5.748   5.486  15.169  0.3014 -0.3077  0.2465
 2947TIP3    H230333   5.640   5.411  15.094  0.2157  0.5441 -0.4922
 2948TIP3   OH230334   6.157   4.219   5.325 -0.0054  0.0480 -0.1069
 2948TIP3    H130335   6.078   4.272   5.314 -0.4976 -0.1649  1.9923
 2948TIP3    H230336   6.219   4.277   5.370  0.2730 -0.4693  0.1822
 2949TIP3   OH230337   4.767   2.651  15.170  0.2721 -0.0888  0.1586
 2949TIP3    H130338   4.828   2.605  15.113  0.7130  0.4934  0.1494
 2949TIP3    H230339   4.748   2.733  15.123 -1.0673 -0.5694 -0.1692
 2950TIP3   OH230340   0.742   1.511   4.262 -0.2416  0.6183  0.1042
 2950TIP3    H130341   0.656   1.492   4.302 -0.2751  1.9075  0.6908
 2950TIP3    H230342   0.795   1.434   4.283 -1.7580 -1.1053 -1.9224
 2951TIP3   OH230343   4.495   6.514  11.136  0.0308 -0.0880 -0.3851
 2951TIP3    H130344   4.551   6.556  11.202  0.2255 -3.2615  1.6773
 2951TIP3    H230345   4.547   6.518  11.056  1.4027  0.7329  0.4888
 2952TIP3   OH230346   1.758   4.900   2.254  0.2581 -0.1957  1.0978
 2952TIP3    H130347   1.710   4.819   2.239  0.9062 -0.2698 -0.9261
 2952TIP3    H230348   1.707   4.967   2.209 -0.1379  0.5101  2.5454
 2953TIP3   OH230349   0.770   4.903  15.407  0.0676 -0.6452  0.2402
 2953TIP3    H130350   0.836   4.956  15.452 -0.1914 -1.8630  2.2303
 2953TIP3    H230351   0.688   4.927  15.450 -0.4800 -0.6367 -0.7910
 2954TIP3   OH230352   2.936   1.906   1.933  0.0390 -0.9070 -0.0227
 2954TIP3    H130353   3.014   1.958   1.915 -0.5803  0.0837  0.0803
 2954TIP3    H230354   2.863   1.966   1.919 -0.7465 -1.9773 -0.7315
 2955TIP3   OH230355   2.598   4.298  12.844  0.1929 -0.0782  0.2799
 2955TIP3    H130356   2.639   4.343  12.918 -1.0583 -0.3137  1.1458
 2955TIP3    H230357   2.623   4.349  12.767  0.7156  0.7231  0.9670
 2956TIP3   OH230358   6.285   6.346  12.884 -0.5838  0.2476 -0.0624
 2956TIP3    H130359   6.259   6.325  12.974 -1.7151  1.4428 -0.0773
 2956TIP3    H230360   6.300   6.261  12.843  2.1480 -0.3246  1.8174
 2957TIP3   OH230361   0.116   2.129  16.229  0.0165 -0.1899  0.2662
 2957TIP3    H130362   0.211   2.136  16.224 -0.0310 -0.0170 -0.3871
 2957TIP3    H230363   0.093   2.169  16.313  0.5689 -0.7541  0.6932
 2958TIP3   OH230364   6.069   1.113  14.049 -0.2483  0.0866  0.5009
 2958TIP3    H130365   6.105   1.125  13.961  0.5162  2.8926  1.1210
 2958TIP3    H230366   6.144   1.084  14.102 -0.2134  0.4456  0.6497
 2959TIP3   OH230367   0.843   5.997  15.590 -0.1169  0.0562  0.1585
 2959TIP3    H130368   0.757   6.036  15.608 -0.0050  0.0102  0.7824
 2959TIP3    H230369   0.902   6.072  15.580 -0.4474  0.1471 -1.5001
 2960TIP3   OH230370   0.761   4.218  16.795  0.2529 -0.4892 -0.5282
 2960TIP3    H130371   0.782   4.130  16.826 -0.5361 -0.5228 -0.0555
 2960TIP3    H230372   0.665   4.223  16.800  0.2088 -0.0018 -1.6454
 2961TIP3   OH230373   2.877   3.493   5.807  0.0631  0.5258  1.0123
 2961TIP3    H130374   2.851   3.549   5.734 -0.3212  0.4641  1.1015
 2961TIP3    H230375   2.957   3.450   5.777  0.1360  0.8152  0.7893
 2962TIP3   OH230376   0.719   0.985  14.357  0.3057 -0.1325 -0.3360
 2962TIP3    H130377   0.707   0.951  14.268  0.2275 -0.5723 -0.1615
 2962TIP3    H230378   0.732   1.079  14.345 -0.5235 -0.0551 -0.7545
 2963TIP3   OH230379   1.910   5.496   4.180 -0.2168 -0.2205  0.6163
 2963TIP3    H130380   1.928   5.464   4.268  1.8249 -2.7532 -0.5851
 2963TIP3    H230381   1.859   5.426   4.139  3.2661 -1.6844 -1.7029
 2964TIP3   OH230382   0.169   3.039   1.698 -0.7435 -0.1883  0.4119
 2964TIP3    H130383   0.178   3.112   1.759 -0.3108 -0.3538  0.5454
 2964TIP3    H230384   0.155   2.963   1.754  0.2104 -0.4300  0.3299
 2965TIP3   OH230385   3.758   6.183  11.183  0.4137 -0.2716  0.2179
 2965TIP3    H130386   3.784   6.149  11.098  1.1840 -1.1092  0.7636
 2965TIP3    H230387   3.827   6.153  11.243  0.8078  1.7206  0.8568
 2966TIP3   OH230388   3.522   4.031  13.345 -0.1477  0.8611 -0.2749
 2966TIP3    H130389   3.443   4.002  13.390 -0.7768  0.8340 -1.3764
 2966TIP3    H230390   3.493   4.054  13.257  1.1986  0.1123 -0.9456
 2967TIP3   OH230391   2.134   3.027  11.053 -0.2846 -0.4470 -0.0483
 2967TIP3    H130392   2.071   2.959  11.030  0.1615 -0.8528 -0.0845
 2967TIP3    H230393   2.155   3.070  10.970  0.0141 -0.7724 -0.1434
 2968TIP3   OH230394   2.250   1.712  14.708  0.1045 -0.3702  0.0615
 2968TIP3    H130395   2.318   1.745  14.767  1.2190 -2.4495  0.0394
 2968TIP3    H230396   2.267   1.756  14.625 -0.8247  1.7889  0.9316
 2969TIP3   OH230397   3.281   1.401   3.342 -0.8954  0.2481 -0.0328
 2969TIP3    H130398   3.341   1.372   3.273  0.6438  2.8065  0.0976
 2969TIP3    H230399   3.215   1.453   3.295 -2.9281 -2.2556 -0.1288
 2970TIP3   OH230400   6.833   3.301  11.193  0.1207 -0.0788 -0.4230
 2970TIP3    H130401   6.750   3.317  11.237  0.4076  0.9786 -0.2466
 2970TIP3    H230402   6.878   3.385  11.195  1.7435 -0.9150  0.6033
 2971TIP3   OH230403   2.289   5.139   0.638  0.4372  0.0468  0.3638
 2971TIP3    H130404   2.303   5.233   0.622 -1.9772  0.5739  0.9684
 2971TIP3    H230405   2.203   5.121   0.601  1.1634 -2.1383 -0.3782
 2972TIP3   OH230406   0.629   3.400  13.024  0.0747 -0.3949 -0.0754
 2972TIP3    H130407   0.639   3.305  13.017 -1.8236 -0.5630 -1.0339
 2972TIP3    H230408   0.619   3.416  13.118  1.0238 -1.0447  0.1574
 2973TIP3   OH230409   4.811   6.641  11.882 -0.9464  0.0809  0.2420
 2973TIP3    H130410   4.718   6.623  11.898 -0.5144 -1.5931  1.1191
 2973TIP3    H230411   4.827   6.609  11.794 -1.0322 -0.4283  0.4043
 2974TIP3   OH230412   3.941   4.814   4.772 -0.2026  0.1931  0.9755
 2974TIP3    H130413   3.895   4.894   4.798 -2.0004 -0.5873  0.3553
 2974TIP3    H230414   4.033   4.832   4.792 -0.9181  1.1897  3.9021
 2975TIP3   OH230415   1.850   0.667  16.775 -0.3139  0.0394  0.7650
 2975TIP3    H130416   1.905   0.745  16.783  0.3617 -0.3670  0.2456
 2975TIP3    H230417   1.812   0.655  16.861 -2.7173  2.5763  0.1862
 2976TIP3   OH230418   2.914   5.751  13.130 -0.5487 -0.2475  0.0275
 2976TIP3    H130419   2.972   5.752  13.206 -2.4317  0.7167  1.5503
 2976TIP3    H230420   2.918   5.840  13.094  0.1173 -0.6209 -0.8542
 2977TIP3   OH230421   5.370   1.154   3.572 -0.3827  0.5726  0.1135
 2977TIP3    H130422   5.367   1.153   3.668  1.4295  1.5862  0.2155
 2977TIP3    H230423   5.459   1.182   3.551 -1.1212  1.5840 -1.8674
 2978TIP3   OH230424   3.598   2.250  11.308 -0.2579  0.1490 -0.0063
 2978TIP3    H130425   3.535   2.251  11.236 -2.4194 -0.9001  1.7666
 2978TIP3    H230426   3.545   2.259  11.387  1.7103 -1.4754  1.6318
 2979TIP3   OH230427   1.422   3.684   0.950  0.0688 -0.7611  0.5286
 2979TIP3    H130428   1.384   3.622   0.887  2.0019 -1.1565 -0.3330
 2979TIP3    H230429   1.502   3.716   0.907  0.7451 -0.0047  2.2372
 2980TIP3   OH230430   4.497   6.682   1.327 -0.0226  0.4562  0.2674
 2980TIP3    H130431   4.572   6.703   1.384 -0.2415  2.0657  0.0170
 2980TIP3    H230432   4.532   6.691   1.238 -0.2328  0.0990  0.1474
 2981TIP3   OH230433   1.165   0.592  11.397 -0.1397 -0.2966  0.1729
 2981TIP3    H130434   1.254   0.589  11.360  0.1588  1.1887  0.7084
 2981TIP3    H230435   1.108   0.603  11.321  0.3209  0.8123 -0.0363
 2982TIP3   OH230436   0.796   3.497   2.936 -0.0937  0.4434  0.2819
 2982TIP3    H130437   0.708   3.465   2.956 -1.3199  2.2249 -1.8196
 2982TIP3    H230438   0.825   3.539   3.017 -1.2580 -0.0108  0.9588
 2983TIP3   OH230439   3.071   6.158   5.457  0.1372 -0.5918 -0.7208
 2983TIP3    H130440   2.977   6.163   5.475  0.4462 -0.6491  1.1197
 2983TIP3    H230441   3.077   6.139   5.364 -1.6857 -0.9077 -0.8051
 2984TIP3   OH230442   5.729   1.439  16.802 -0.5886 -0.2299 -0.5646
 2984TIP3    H130443   5.759   1.390  16.726  0.5475 -0.5403  0.0631
 2984TIP3    H230444   5.732   1.377  16.874 -0.4344  0.3971 -0.0215
 2985TIP3   OH230445   1.626   2.328  15.033  0.6642 -0.6397 -0.1063
 2985TIP3    H130446   1.584   2.256  14.987  0.4707  0.2419 -1.3783
 2985TIP3    H230447   1.666   2.381  14.963  1.5249  0.0182  0.8556
 2986TIP3   OH230448   2.879   3.050   0.670 -0.1085 -0.0281 -0.3339
 2986TIP3    H130449   2.948   2.991   0.700  0.1274  0.1336 -0.5533
 2986TIP3    H230450   2.797   3.004   0.690  0.0780 -0.5008 -0.6319
 2987TIP3   OH230451   5.804   5.875   2.381 -0.9644 -0.0526 -0.3029
 2987TIP3    H130452   5.810   5.792   2.428  0.3074 -0.3300 -0.9209
 2987TIP3    H230453   5.850   5.938   2.437 -0.6306 -0.0921 -0.5291
 2988TIP3   OH230454   3.896   2.867  12.364  0.1195 -0.4666  0.5673
 2988TIP3    H130455   3.946   2.941  12.399  0.7256 -0.2106 -0.7836
 2988TIP3    H230456   3.962   2.810  12.325 -0.4898 -0.9947  0.2983
 2989TIP3   OH230457   3.499   3.213   2.397 -0.3748 -0.4502  0.7037
 2989TIP3    H130458   3.510   3.143   2.461 -1.2697  0.3232  1.7528
 2989TIP3    H230459   3.589   3.238   2.374 -0.0481 -1.9945  0.2135
 2990TIP3   OH230460   5.876   6.033  11.403 -0.2089 -0.0655  0.6533
 2990TIP3    H130461   5.830   5.996  11.328 -1.0378 -1.5896  1.8622
 2990TIP3    H230462   5.844   6.123  11.409  0.7589  0.4715 -1.4857
 2991TIP3   OH230463   4.451   1.304   4.291 -0.0517 -0.3875  0.7166
 2991TIP3    H130464   4.528   1.339   4.336 -0.1612 -0.8183  1.2449
 2991TIP3    H230465   4.487   1.242   4.228  0.0212 -0.6913  1.0600
 2992TIP3   OH230466   1.123   3.464   1.849 -0.1248 -0.0392 -0.0354
 2992TIP3    H130467   1.058   3.513   1.799 -0.2985 -1.4228 -1.2432
 2992TIP3    H230468   1.200   3.521   1.850 -1.1730  1.4279  1.0291
 2993TIP3   OH230469   4.614   1.362   3.335  0.0716  0.4673 -0.2793
 2993TIP3    H130470   4.532   1.314   3.348  0.1513  0.5812  0.7167
 2993TIP3    H230471   4.659   1.314   3.265  1.6725 -3.0413  2.8190
 2994TIP3   OH230472   2.444   2.703   0.291 -0.2850 -0.3274  0.0304
 2994TIP3    H130473   2.475   2.794   0.282 -1.2220  0.0342  0.3137
 2994TIP3    H230474   2.493   2.668   0.365 -0.0457  0.0074  0.0345
 2995TIP3   OH230475   5.967   4.226   3.218  0.5931  0.1153  0.7604
 2995TIP3    H130476   5.980   4.166   3.292 -1.9702 -1.7704 -0.1849
 2995TIP3    H230477   6.016   4.186   3.146  0.3652  0.1415  0.5912
 2996TIP3   OH230478   5.181   4.573   5.463  0.5245  0.3066  0.7256
 2996TIP3    H130479   5.153   4.654   5.505 -0.4329 -0.2832  1.2861
 2996TIP3    H230480   5.129   4.505   5.506  1.1868 -0.5874  0.1568
 2997TIP3   OH230481   3.491   1.874  11.285  0.2129  0.0698  0.5816
 2997TIP3    H130482   3.440   1.952  11.264  1.6049  1.2459  1.4361
 2997TIP3    H230483   3.425   1.810  11.312 -0.9251  1.0989  0.3638
 2998TIP3   OH230484   5.609   4.160  14.115  0.0504 -0.2474 -0.0622
 2998TIP3    H130485   5.627   4.069  14.091  1.0311  0.0147 -0.3914
 2998TIP3    H230486   5.514   4.169  14.107 -0.1539 -1.4308  0.6649
 2999TIP3   OH230487   0.588   5.541   3.494 -0.1196 -0.3546 -0.0654
 2999TIP3    H130488   0.611   5.509   3.581 -1.5307 -0.5479  0.2580
 2999TIP3    H230489   0.509   5.493   3.471 -2.4554  2.9064  0.4782
 3000TIP3   OH230490   2.764   4.632   4.891  0.8303  0.2717 -0.0304
 3000TIP3    H130491   2.703   4.705   4.898  0.5912  0.0045  0.8066
 3000TIP3    H230492   2.747   4.594   4.805 -1.2654 -0.7058  0.7389
 3001TIP3   OH230493   6.103   0.069   2.143 -0.3057  0.4884 -0.1414
 3001TIP3    H130494   6.016   0.041   2.172  0.0411 -0.3943  0.0546
 3001TIP3    H230495   6.104   0.051   2.049 -0.3165  0.4712 -0.1381
 3002TIP3   OH230496   6.770   4.005  13.548 -0.0371 -0.0588 -0.4737
 3002TIP3    H130497   6.770   4.100  13.533  3.0919  0.3808  1.3200
 3002TIP3    H230498   6.802   3.967  13.466 -1.9823  0.2672 -1.4546
 3003TIP3   OH230499   4.985   3.732  15.903 -0.6353  0.2605  0.0543
 3003TIP3    H130500   4.930   3.654  15.909 -2.0579  0.9533 -2.4563
 3003TIP3    H230501   5.071   3.698  15.878 -1.1790 -0.5481 -0.7986
 3004TIP3   OH230502   6.104   3.538   4.628  0.1167 -0.0099  0.9821
 3004TIP3    H130503   6.060   3.512   4.708  0.7874  1.0411  1.7254
 3004TIP3    H230504   6.086   3.632   4.620 -1.0631 -0.3224 -0.8382
 3005TIP3   OH230505   0.478   3.402   4.444  0.5465  0.6098  0.3008
 3005TIP3    H130506   0.459   3.355   4.526  0.5848 -0.2641 -0.1824
 3005TIP3    H230507   0.462   3.338   4.375  1.6951  0.9577 -0.3239
 3006TIP3   OH230508   4.584   0.347  11.443  0.0725  0.5266  0.2541
 3006TIP3    H130509   4.501   0.332  11.487  0.4895 -0.0211  0.8845
 3006TIP3    H230510   4.574   0.432  11.399 -0.2857  1.2102  1.6070
 3007TIP3   OH230511   3.901   3.476   3.236 -0.8576 -0.0042  0.1734
 3007TIP3    H130512   3.814   3.513   3.223 -0.7998 -0.3006 -1.2362
 3007TIP3    H230513   3.886   3.384   3.256 -0.8523 -0.8741 -3.2595
 3008TIP3   OH230514   2.393   4.883  14.477 -0.1385 -0.0061  0.0839
 3008TIP3    H130515   2.337   4.815  14.438 -0.5302  0.1781  0.3154
 3008TIP3    H230516   2.467   4.890  14.417 -0.1766 -0.5222 -0.0321
 3009TIP3   OH230517   1.930   3.930  12.685  0.3280 -0.3119 -0.4452
 3009TIP3    H130518   2.001   3.993  12.672 -0.3631  0.9917  1.6565
 3009TIP3    H230519   1.884   3.961  12.763 -2.7180 -0.9416 -1.8357
 3010TIP3   OH230520   1.804   3.113  16.589  0.2803 -0.7060 -0.5791
 3010TIP3    H130521   1.821   3.155  16.673 -1.1382 -0.9076 -0.1707
 3010TIP3    H230522   1.849   3.168  16.525  3.2873 -1.7459  0.4692
 3011TIP3   OH230523   1.693   0.443  12.576  0.1175 -0.4412 -0.2040
 3011TIP3    H130524   1.766   0.504  12.569 -0.6786  0.5606  0.1209
 3011TIP3    H230525   1.698   0.409  12.665  0.1732 -0.3610 -0.1777
 3012TIP3   OH230526   6.654   6.097   1.553 -0.5997  0.7132  0.3849
 3012TIP3    H130527   6.604   6.077   1.473 -1.0521  1.2743  0.5208
 3012TIP3    H230528   6.707   6.018   1.568  0.0878  0.8954 -0.9081
 3013TIP3   OH230529   1.009   1.326   4.644  0.2209  0.1197 -0.2268
 3013TIP3    H130530   1.068   1.251   4.643  0.5061  0.3454 -0.5917
 3013TIP3    H230531   1.066   1.402   4.655 -0.0807  0.2739  0.3037
 3014TIP3   OH230532   6.512   4.379  13.226  0.2308  0.3611 -0.0829
 3014TIP3    H130533   6.422   4.387  13.259  0.8232  3.1402  1.0716
 3014TIP3    H230534   6.537   4.289  13.248 -0.9605  0.6780  3.1508
 3015TIP3   OH230535   6.134   4.629   5.444 -0.0531 -0.3030  0.0947
 3015TIP3    H130536   6.092   4.653   5.362  0.0322  1.0943  0.4378
 3015TIP3    H230537   6.082   4.673   5.511  1.0199  0.1703  0.6379
 3016TIP3   OH230538   0.033   1.337  13.228  0.0514 -0.3695  0.5419
 3016TIP3    H130539  -0.021   1.413  13.206 -0.7221 -1.1592 -0.3615
 3016TIP3    H230540  -0.018   1.290  13.294  0.1331 -0.5382  0.4859
 3017TIP3   OH230541   3.358   0.845   0.922  0.5812  0.7981  0.3501
 3017TIP3    H130542   3.396   0.931   0.943  2.1143  0.1241  0.4135
 3017TIP3    H230543   3.387   0.788   0.992  2.1732 -0.4789 -1.2444
 3018TIP3   OH230544   5.505   1.547  15.970  0.0689 -0.5309 -0.0958
 3018TIP3    H130545   5.421   1.503  15.958  0.3751 -1.2356  0.3484
 3018TIP3    H230546   5.526   1.535  16.062  0.2310  0.4257  0.0064
 3019TIP3   OH230547   6.577   0.127  11.721  0.1539 -0.7331  0.4346
 3019TIP3    H130548   6.483   0.143  11.723  0.0892 -0.9384 -0.4949
 3019TIP3    H230549   6.585   0.036  11.694  0.5177 -2.3868  5.1971
 3020TIP3   OH230550   6.153   5.067  12.009 -0.3805 -0.5294  0.6312
 3020TIP3    H130551   6.129   4.977  11.987  0.0449 -0.5230  0.1112
 3020TIP3    H230552   6.230   5.058  12.065 -0.8056 -0.5103  1.2250
 3021TIP3   OH230553   1.908   1.849  10.297 -0.0583 -0.0272  0.2506
 3021TIP3    H130554   1.861   1.894  10.227  1.9080  1.9290  0.0442
 3021TIP3    H230555   1.969   1.792  10.251  0.2447  0.1870  0.3792
 3022TIP3   OH230556   6.240   4.921  15.527 -0.1239  0.0589 -0.0123
 3022TIP3    H130557   6.255   4.851  15.591 -2.5501 -1.6333 -1.1159
 3022TIP3    H230558   6.177   4.979  15.568  0.3982  0.5118  0.1555
 3023TIP3   OH230559   5.286   4.344  12.668  0.2115 -0.6827 -0.3039
 3023TIP3    H130560   5.194   4.365  12.678 -0.2198 -2.4510 -0.1025
 3023TIP3    H230561   5.330   4.391  12.739 -0.6139 -0.3168 -0.0297
 3024TIP3   OH230562   0.210   4.267  11.258 -0.4205 -0.0238 -0.4497
 3024TIP3    H130563   0.244   4.346  11.215  0.2505 -0.0514  0.0279
 3024TIP3    H230564   0.155   4.226  11.191 -1.9522  1.5804 -0.2459
 3025TIP3   OH230565   6.815   2.385  10.957  0.0799 -0.6766 -0.1402
 3025TIP3    H130566   6.856   2.373  10.871  0.7714  0.2909  0.0269
 3025TIP3    H230567   6.786   2.298  10.982 -0.7059 -0.8779 -1.6299
 3026TIP3   OH230568   4.688   3.845  11.810  0.0309 -0.2316 -0.2859
 3026TIP3    H130569   4.616   3.878  11.756 -0.3276 -1.3052 -0.4791
 3026TIP3    H230570   4.749   3.807  11.747  0.8882  0.8419 -0.1408
 3027TIP3   OH230571   6.006   5.996  13.287 -0.4155  0.7723 -0.4913
 3027TIP3    H130572   6.078   5.946  13.327 -1.4113 -2.3504 -2.3005
 3027TIP3    H230573   6.046   6.039  13.212 -0.0752  0.4710 -0.4881
 3028TIP3   OH230574   1.502   1.335   1.337 -0.1868  0.0159 -0.1947
 3028TIP3    H130575   1.483   1.278   1.262 -1.3669  0.7891 -0.5002
 3028TIP3    H230576   1.564   1.400   1.302 -0.8325  0.4506 -0.5472
 3029TIP3   OH230577   4.509   2.033  16.964 -0.3873  0.2996  0.6302
 3029TIP3    H130578   4.552   1.954  16.997  0.1382  0.8558  1.3083
 3029TIP3    H230579   4.430   2.001  16.921  0.6346 -0.7300 -0.5659
 3030TIP3   OH230580   0.333   6.607   1.020  0.3517 -0.9395 -0.7014
 3030TIP3    H130581   0.270   6.592   0.949 -0.7910  1.3815 -0.2794
 3030TIP3    H230582   0.405   6.655   0.979 -0.2973  0.3812 -0.3505
 3031TIP3   OH230583   0.918   4.172  14.152  0.0959 -0.6394 -0.0455
 3031TIP3    H130584   0.965   4.178  14.235 -0.2158  0.3132  0.0735
 3031TIP3    H230585   0.839   4.226  14.164 -0.2722 -0.9944 -0.7480
 3032TIP3   OH230586   3.510   0.566   1.630 -0.3304 -0.0395  0.0369
 3032TIP3    H130587   3.563   0.495   1.595  0.0832 -0.0044  0.5728
 3032TIP3    H230588   3.423   0.527   1.641  0.2840 -1.0500  1.9904
 3033TIP3   OH230589   0.756   1.915  15.120  0.0947 -0.2272 -0.6786
 3033TIP3    H130590   0.811   1.992  15.107  0.9612 -0.5896  0.6191
 3033TIP3    H230591   0.746   1.878  15.032  1.0081  0.4683 -1.0977
 3034TIP3   OH230592   0.204   2.680   1.368 -0.2739  0.3258  0.2865
 3034TIP3    H130593   0.143   2.606   1.372 -0.0982  0.2180  1.1761
 3034TIP3    H230594   0.183   2.732   1.446  1.5137 -0.3140  1.2629
 3035TIP3   OH230595   6.306   2.436  13.423  0.3398  0.3955 -1.0637
 3035TIP3    H130596   6.373   2.449  13.356  1.4040  0.6499  0.0092
 3035TIP3    H230597   6.285   2.525  13.453 -1.5576  0.4475 -2.3613
 3036TIP3   OH230598   5.084   4.435  16.576  0.2788  0.5838  1.0287
 3036TIP3    H130599   5.107   4.518  16.534 -1.1013  0.5059  0.0347
 3036TIP3    H230600   5.159   4.378  16.559 -0.0910  0.6362 -1.1727
 3037TIP3   OH230601   5.949   3.743   4.461  0.0016 -0.1273 -0.2918
 3037TIP3    H130602   5.994   3.719   4.381 -0.4600 -1.5499 -0.1637
 3037TIP3    H230603   6.018   3.769   4.522  0.6039 -1.5777 -0.3248
 3038TIP3   OH230604   4.171   2.096   4.497  0.3288  0.4297 -0.0761
 3038TIP3    H130605   4.244   2.038   4.473  0.4468  0.8018 -0.6250
 3038TIP3    H230606   4.093   2.048   4.470  0.3160 -0.3045  1.1979
 3039TIP3   OH230607   3.865   4.170   6.011  0.0876 -0.1108  0.0828
 3039TIP3    H130608   3.876   4.142   6.102  0.8494 -0.2249 -0.0331
 3039TIP3    H230609   3.793   4.233   6.013 -1.9103 -2.2869  0.3047
 3040TIP3   OH230610   2.648   3.027   1.931  0.3202  0.5016 -0.2533
 3040TIP3    H130611   2.740   3.011   1.953  0.1082  0.3111  0.5028
 3040TIP3    H230612   2.642   3.006   1.838  0.8785 -0.2182 -0.1356
 3041TIP3   OH230613   6.829   6.695   5.647  0.3324  0.3441 -0.1340
 3041TIP3    H130614   6.771   6.619   5.637  1.4522 -0.7215  1.1398
 3041TIP3    H230615   6.905   6.673   5.592  0.6442  0.5619  0.2138
 3042TIP3   OH230616   5.395   6.500   6.700  0.6703  0.0072  0.1476
 3042TIP3    H130617   5.456   6.431   6.726  0.6961  0.4236  1.2375
 3042TIP3    H230618   5.317   6.453   6.673  1.0700 -0.4895 -0.1762
 3043TIP3   OH230619   4.817   3.617  10.877 -0.2873  0.1398 -0.5840
 3043TIP3    H130620   4.849   3.605  10.788 -0.2717 -0.6414 -0.4805
 3043TIP3    H230621   4.739   3.672  10.868 -2.3513 -2.7082 -1.4779
 3044TIP3   OH230622   3.222   5.095  12.327  0.8235  0.3286 -0.9718
 3044TIP3    H130623   3.292   5.082  12.391 -0.4188 -0.0599  0.3938
 3044TIP3    H230624   3.264   5.085  12.242  2.9068  2.6383 -0.3172
 3045TIP3   OH230625   0.022   1.931  17.144 -0.2997  0.1159  0.3416
 3045TIP3    H130626  -0.015   1.977  17.069  1.1433 -1.1984 -1.2603
 3045TIP3    H230627   0.116   1.933  17.129 -0.1262 -2.6446  0.5548
 3046TIP3   OH230628   0.544   1.034   3.610 -0.9082 -0.0523 -0.1433
 3046TIP3    H130629   0.482   0.969   3.577 -2.0787  0.5057  0.8324
 3046TIP3    H230630   0.492   1.087   3.671  0.5491  0.4287  0.7415
 3047TIP3   OH230631   0.795   4.734  16.691  0.2521  0.0041  0.4169
 3047TIP3    H130632   0.842   4.655  16.665 -0.5636  0.1611 -1.7458
 3047TIP3    H230633   0.772   4.777  16.608 -0.2656  1.9566  1.4962
 3048TIP3   OH230634   0.457   2.025  14.469 -0.8253  0.1847 -0.6129
 3048TIP3    H130635   0.494   2.064  14.548 -2.2067  2.1006 -0.8307
 3048TIP3    H230636   0.375   1.985  14.499 -1.1575  0.5691 -0.9984
 3049TIP3   OH230637   3.579   1.848   1.702 -0.1370 -0.1110 -0.0564
 3049TIP3    H130638   3.622   1.781   1.755 -0.9100 -1.9251 -1.6232
 3049TIP3    H230639   3.594   1.929   1.750  3.7321 -0.8304  0.2411
 3050TIP3   OH230640   5.340   0.020  16.889  0.3547 -0.6443 -0.3370
 3050TIP3    H130641   5.343  -0.023  16.975  0.7870 -0.3773 -0.2104
 3050TIP3    H230642   5.255  -0.003  16.853  0.0800 -0.5804  0.2616
 3051TIP3   OH230643   3.651   5.461   0.417  0.2075  0.1628  0.0604
 3051TIP3    H130644   3.639   5.366   0.407  1.3942  0.1659 -1.6664
 3051TIP3    H230645   3.683   5.472   0.506 -2.8142 -0.7300  1.3893
 3052TIP3   OH230646   4.359   0.585   0.722  0.0251  1.2534 -0.2178
 3052TIP3    H130647   4.287   0.607   0.782 -1.6431  1.2685 -2.1374
 3052TIP3    H230648   4.385   0.669   0.684  1.1890  1.2634  0.5447
 3053TIP3   OH230649   4.022   5.379  13.688  0.4004  0.3940  0.3669
 3053TIP3    H130650   4.110   5.415  13.693  0.7967 -0.5882  0.5004
 3053TIP3    H230651   3.965   5.456  13.698  1.2205  1.1566 -0.5962
 3054TIP3   OH230652   1.325   3.157   3.696  0.0677 -1.0217  0.3804
 3054TIP3    H130653   1.293   3.084   3.643 -2.6696  1.6416 -2.0103
 3054TIP3    H230654   1.414   3.172   3.664 -0.8856 -0.6347 -2.3615
 3055TIP3   OH230655   2.036   3.362   6.269  0.0422  0.1671  0.0339
 3055TIP3    H130656   2.096   3.367   6.343  1.0509 -0.6262 -0.6842
 3055TIP3    H230657   1.996   3.275   6.277 -2.3013  1.3003  1.4192
 3056TIP3   OH230658   4.418   5.450  11.116  0.4643 -0.0453  0.2065
 3056TIP3    H130659   4.327   5.458  11.089  0.3048 -1.0309  0.4152
 3056TIP3    H230660   4.453   5.379  11.062  0.9364 -0.0884  0.5622
 3057TIP3   OH230661   6.705   3.423  12.210  0.0675  0.3854  0.3139
 3057TIP3    H130662   6.705   3.518  12.224 -0.9458  0.8989 -2.3924
 3057TIP3    H230663   6.792   3.404  12.176 -0.4866  0.8672 -1.5104
 3058TIP3   OH230664   4.236   6.836  16.134  0.0337  0.0204 -0.1558
 3058TIP3    H130665   4.291   6.762  16.157  1.1764  1.0179  0.4028
 3058TIP3    H230666   4.221   6.883  16.216 -0.6418  0.4358 -0.5002
 3059TIP3   OH230667   3.876   0.922  14.995  0.4355 -0.2780  0.0258
 3059TIP3    H130668   3.948   0.946  15.053  0.3233 -1.1706  0.5499
 3059TIP3    H230669   3.814   0.876  15.051 -0.3411  0.0903 -0.5124
 3060TIP3   OH230670   0.039   0.414   3.933 -0.3486  0.9351 -0.5117
 3060TIP3    H130671   0.062   0.466   3.856 -2.8260  0.7231 -1.4828
 3060TIP3    H230672  -0.050   0.383   3.916 -0.5389 -0.1211  1.9236
 3061TIP3   OH230673   5.973   1.475  11.731  0.3270  0.2786  0.2784
 3061TIP3    H130674   6.015   1.528  11.799  1.0380  0.2021 -0.0959
 3061TIP3    H230675   6.021   1.392  11.733 -1.4500 -0.7843  1.5915
 3062TIP3   OH230676   0.242   2.117  11.131  0.1847 -0.3295  0.6106
 3062TIP3    H130677   0.273   2.144  11.044  2.3798 -0.0408  1.4045
 3062TIP3    H230678   0.164   2.065  11.114  0.8142 -0.6679 -1.5766
 3063TIP3   OH230679   3.178   2.586   2.141  0.3670 -0.5455 -0.0755
 3063TIP3    H130680   3.268   2.616   2.124  0.3611 -0.4193  0.1177
 3063TIP3    H230681   3.125   2.632   2.076  0.3027  0.1758  0.4741
 3064TIP3   OH230682   0.985   2.585   5.587 -0.3891  0.3656  0.4351
 3064TIP3    H130683   1.057   2.559   5.644 -0.5665 -0.6369  0.2181
 3064TIP3    H230684   0.947   2.503   5.557  0.0237  0.8453 -1.5591
 3065TIP3   OH230685   1.439   4.902   1.562 -0.1557 -0.4901  0.3224
 3065TIP3    H130686   1.462   4.854   1.483  0.9189 -0.3198  0.5235
 3065TIP3    H230687   1.502   4.874   1.627  1.7357  2.4781 -0.0180
 3066TIP3   OH230688   3.438   1.503   4.402  0.5270 -0.0710 -0.6186
 3066TIP3    H130689   3.405   1.492   4.491  0.0351  0.4921 -0.7232
 3066TIP3    H230690   3.533   1.490   4.409  0.1210 -4.1860 -0.7096
 3067TIP3   OH230691   6.137   5.969   1.920 -0.5951 -0.3690  0.4871
 3067TIP3    H130692   6.206   6.034   1.912 -1.6962  0.6724 -0.9266
 3067TIP3    H230693   6.069   6.012   1.972 -1.9973  0.2910 -1.7329
 3068TIP3   OH230694   2.822   2.696  15.022 -0.2908 -0.0186  0.6990
 3068TIP3    H130695   2.750   2.675  14.963  0.1851 -0.0312  0.1182
 3068TIP3    H230696   2.812   2.790  15.039 -0.5355 -0.0522  0.7490
 3069TIP3   OH230697   4.385   4.899  14.818  0.3892  0.4614  0.3050
 3069TIP3    H130698   4.396   4.818  14.867  3.4921 -0.6099 -1.8435
 3069TIP3    H230699   4.420   4.967  14.875  0.5474 -0.1639  0.9609
 3070TIP3   OH230700   4.784   2.626  13.482  0.1956  0.1301 -0.5673
 3070TIP3    H130701   4.789   2.652  13.389 -2.0593 -3.7166 -1.9942
 3070TIP3    H230702   4.848   2.555  13.490 -1.4109 -1.3144  0.0225
 3071TIP3   OH230703   2.235   1.867  16.271 -0.0741 -0.2248 -0.0235
 3071TIP3    H130704   2.261   1.820  16.192  0.2533  0.7925 -0.5319
 3071TIP3    H230705   2.231   1.799  16.339  0.3302 -0.9909 -0.7508
 3072TIP3   OH230706   6.647   0.817  11.957  0.0059  1.6891 -0.2048
 3072TIP3    H130707   6.603   0.793  11.876 -0.3475  0.4351  0.3374
 3072TIP3    H230708   6.723   0.758  11.962 -0.6415  0.9093  0.9390
 3073TIP3   OH230709   6.459   6.074   1.277  0.0115 -0.0046 -0.4064
 3073TIP3    H130710   6.479   6.044   1.188 -1.4760 -4.3314  0.4816
 3073TIP3    H230711   6.363   6.074   1.282  0.0531 -1.2870  1.5258
 3074TIP3   OH230712   4.337   4.548  15.285 -0.1030  0.2254 -0.6780
 3074TIP3    H130713   4.320   4.474  15.227 -1.4698 -0.1789  0.1696
 3074TIP3    H230714   4.254   4.596  15.287 -0.0355  0.3340  0.7593
 3075TIP3   OH230715   5.281   0.929   4.348  0.3450  0.2780 -0.1445
 3075TIP3    H130716   5.260   1.019   4.374  2.7734 -0.0146  3.7126
 3075TIP3    H230717   5.227   0.874   4.406  1.9680 -0.5998  0.6015
 3076TIP3   OH230718   5.247   4.240  11.222  0.1455 -0.2467 -0.0685
 3076TIP3    H130719   5.181   4.285  11.275 -1.8850 -1.5189 -1.3886
 3076TIP3    H230720   5.201   4.165  11.185  2.3229 -1.1152 -1.1873
 3077TIP3   OH230721   3.655   3.473   3.460 -0.4089 -0.1192 -0.1613
 3077TIP3    H130722   3.628   3.383   3.442 -0.9462  0.2994 -1.5865
 3077TIP3    H230723   3.580   3.512   3.505 -0.1923 -0.3688  0.4187
 3078TIP3   OH230724   4.470   1.741   2.908 -0.0856 -0.1536 -0.1014
 3078TIP3    H130725   4.500   1.754   2.818  0.5697  0.3055  0.1762
 3078TIP3    H230726   4.525   1.799   2.961 -1.0992  0.3032  0.4912
 3079TIP3   OH230727   5.282   2.219  15.063  0.0112 -0.3137  0.2994
 3079TIP3    H130728   5.276   2.298  15.009 -0.0873  0.0282  0.8039
 3079TIP3    H230729   5.368   2.224  15.105 -0.1720 -0.2482  0.6732
 3080TIP3   OH230730   2.232   1.502   2.378 -0.0476  0.2590 -0.2445
 3080TIP3    H130731   2.263   1.509   2.288  1.2112  2.6051  0.2605
 3080TIP3    H230732   2.141   1.532   2.375 -0.5984 -1.4004 -0.9553
 3081TIP3   OH230733   3.006   2.571  13.777 -0.3027  0.5452  0.5830
 3081TIP3    H130734   2.953   2.650  13.786  0.8831  1.3294  0.9141
 3081TIP3    H230735   2.949   2.509  13.731 -1.1990  1.6432  0.1679
 3082TIP3   OH230736   5.001   1.253  17.043 -0.6780  0.3695  0.0292
 3082TIP3    H130737   4.986   1.167  17.004 -0.8601 -0.9978  2.8319
 3082TIP3    H230738   5.094   1.252  17.067 -0.3489  1.5307 -1.1500
 3083TIP3   OH230739   6.784   3.250  14.884  0.2745  0.4717 -0.1818
 3083TIP3    H130740   6.697   3.271  14.850  0.5836  0.7985 -0.7793
 3083TIP3    H230741   6.769   3.234  14.977 -0.6054 -0.5753 -0.4812
 3084TIP3   OH230742   3.445   1.731  16.327  0.2305 -0.0629  0.2618
 3084TIP3    H130743   3.483   1.655  16.371 -0.7819  0.3082  1.8478
 3084TIP3    H230744   3.519   1.771  16.280  1.2426 -0.7799  1.1944
 3085TIP3   OH230745   5.699   2.093   0.124 -0.5306 -0.0251 -0.3124
 3085TIP3    H130746   5.756   2.130   0.057  3.2250 -0.2590  2.4176
 3085TIP3    H230747   5.682   2.167   0.184 -2.3461 -0.2214 -0.5246
 3086TIP3   OH230748   1.516   6.135  16.761  0.4732 -0.2495 -0.3692
 3086TIP3    H130749   1.436   6.083  16.757  0.4304 -0.3864  1.5252
 3086TIP3    H230750   1.492   6.219  16.723 -0.3691 -0.5192 -0.4527
 3087TIP3   OH230751   2.343   2.565   0.787  0.4911 -0.4142  0.0961
 3087TIP3    H130752   2.426   2.558   0.740  2.0380  0.1033  2.5045
 3087TIP3    H230753   2.330   2.659   0.799  0.7208 -0.5306  1.5252
 3088TIP3   OH230754   3.553   0.600   4.433 -0.2691  0.4563  0.1229
 3088TIP3    H130755   3.481   0.632   4.379 -0.7011  1.3670  1.1990
 3088TIP3    H230756   3.601   0.540   4.376 -0.6278  1.4756 -1.3070
 3089TIP3   OH230757   1.511   4.857   5.467  0.2900  0.8412 -0.0679
 3089TIP3    H130758   1.479   4.947   5.456  0.2820  0.9541  0.8280
 3089TIP3    H230759   1.586   4.865   5.526  0.7180  0.3345 -0.5293
 3090TIP3   OH230760   2.456   4.319   2.471 -0.6526  0.0170  0.0881
 3090TIP3    H130761   2.474   4.386   2.405  3.1091 -0.5394  0.3099
 3090TIP3    H230762   2.451   4.367   2.554 -2.9522  0.4453 -0.2317
 3091TIP3   OH230763   6.224   3.942   2.053 -0.0773 -0.0159 -0.2842
 3091TIP3    H130764   6.261   3.971   2.136 -0.0883  0.4310 -0.4294
 3091TIP3    H230765   6.161   4.011   2.029  0.7816  0.4670 -1.2448
 3092TIP3   OH230766   3.088   5.861   3.562  0.3207  0.0347  0.1856
 3092TIP3    H130767   3.182   5.848   3.572  0.0336 -2.2463  0.3797
 3092TIP3    H230768   3.077   5.897   3.474  1.3400 -0.0597  0.0111
 3093TIP3   OH230769   5.748   4.451   0.313 -0.0490 -0.2420  0.0262
 3093TIP3    H130770   5.715   4.539   0.330 -0.8332 -0.3691 -0.7338
 3093TIP3    H230771   5.815   4.436   0.380 -0.2712  0.7289  0.4757
 3094TIP3   OH230772   0.800   0.270  13.537 -0.4677 -0.0185  0.6141
 3094TIP3    H130773   0.817   0.317  13.456  0.4523 -0.3423  0.6018
 3094TIP3    H230774   0.809   0.336  13.606 -0.5825  0.1159  0.4990
 3095TIP3   OH230775   0.856   3.109   2.225 -0.2083 -0.2473 -0.0849
 3095TIP3    H130776   0.935   3.123   2.278 -1.3793 -1.2405  2.0489
 3095TIP3    H230777   0.798   3.180   2.249 -0.8256 -0.8079  0.1021
 3096TIP3   OH230778   0.093   0.347  16.206 -0.0802  1.0846 -0.4958
 3096TIP3    H130779   0.048   0.294  16.139 -0.3582 -1.2590  1.4005
 3096TIP3    H230780   0.022   0.387  16.256 -0.1025 -0.7095  1.0258
 3097TIP3   OH230781   0.788   6.015  14.419  0.0792  0.4932 -0.5457
 3097TIP3    H130782   0.773   6.107  14.438  0.7427  0.5304 -0.1881
 3097TIP3    H230783   0.725   5.969  14.474 -0.5220  0.7393 -1.0134
 3098TIP3   OH230784   4.342   3.408  16.440  0.6664  0.5448  0.7101
 3098TIP3    H130785   4.249   3.430  16.453  0.7417  0.7812  0.8698
 3098TIP3    H230786   4.384   3.436  16.522  0.7038 -0.6109  1.1055
 3099TIP3   OH230787   6.653   0.197  13.531  0.2661  0.0230 -0.3503
 3099TIP3    H130788   6.679   0.154  13.613 -0.3817  1.9267  0.9438
 3099TIP3    H230789   6.735   0.219  13.488  0.7124  1.0171  0.9426
 3100TIP3   OH230790   1.077   4.600   5.431  0.1934 -0.2977 -0.7844
 3100TIP3    H130791   1.157   4.624   5.384  0.1591  0.7703 -0.3227
 3100TIP3    H230792   1.036   4.684   5.452 -1.4405 -0.8250 -1.6674
 3101TIP3   OH230793   0.470   4.830  13.029 -0.6869  0.3042  0.2807
 3101TIP3    H130794   0.411   4.760  13.002  0.5088 -1.6941  2.4098
 3101TIP3    H230795   0.441   4.853  13.118  1.4291 -0.5361  1.2788
 3102TIP3   OH230796   3.423   0.792  14.329 -0.2879 -0.1650  0.5850
 3102TIP3    H130797   3.415   0.773  14.236 -0.1116 -0.1823  0.5737
 3102TIP3    H230798   3.506   0.838  14.338  0.3514 -1.3441  0.9110
 3103TIP3   OH230799   4.932   1.907   1.140  0.1772  0.1693  0.6428
 3103TIP3    H130800   4.912   1.860   1.221  2.5279 -0.9655  0.6570
 3103TIP3    H230801   5.028   1.906   1.135  0.2379  2.9729 -0.5891
 3104TIP3   OH230802   2.145   2.565  17.054  0.2714  0.4283  0.3588
 3104TIP3    H130803   2.125   2.545  17.146 -0.3915 -2.5321 -0.3371
 3104TIP3    H230804   2.230   2.525  17.039  0.5192  1.1694 -0.2801
 3105TIP3   OH230805   6.764   4.497   5.394 -0.0162 -0.0706  1.0884
 3105TIP3    H130806   6.702   4.433   5.429  0.4780  0.0926  2.3164
 3105TIP3    H230807   6.719   4.581   5.403 -1.0782 -0.2919 -1.4668
 3106TIP3   OH230808   4.128   3.679   2.610 -0.2560  0.3345  0.1086
 3106TIP3    H130809   4.063   3.748   2.619  1.2604  1.6307  2.0207
 3106TIP3    H230810   4.170   3.674   2.696  1.3338 -1.2971 -0.6926
 3107TIP3   OH230811   4.522   5.649   5.121  0.4379  0.0021 -0.2644
 3107TIP3    H130812   4.517   5.614   5.032  2.3217 -1.9760  0.3257
 3107TIP3    H230813   4.611   5.685   5.127 -0.1417  1.4041  0.4209
 3108TIP3   OH230814   2.367   6.076  15.758  0.6376 -0.3422 -0.1925
 3108TIP3    H130815   2.364   5.981  15.771 -0.6050 -1.1598 -4.5794
 3108TIP3    H230816   2.457   6.100  15.780  1.5473 -2.9441 -0.6519
 3109TIP3   OH230817   4.684   0.765  16.167  0.0458 -0.3999 -0.2538
 3109TIP3    H130818   4.654   0.686  16.122  1.9621 -1.1689 -0.2713
 3109TIP3    H230819   4.665   0.749  16.259  1.5959 -1.4831 -0.0924
 3110TIP3   OH230820   3.378   0.037   4.524 -0.5725 -0.3987 -0.4067
 3110TIP3    H130821   3.440   0.071   4.589 -0.5017  0.8571 -1.0922
 3110TIP3    H230822   3.421  -0.041   4.489  0.0469 -0.2676  0.0385
 3111TIP3   OH230823   1.669   1.049  13.888  0.8363 -0.0339  1.1854
 3111TIP3    H130824   1.750   1.003  13.908  0.1621 -0.8913  2.0211
 3111TIP3    H230825   1.616   0.986  13.839  0.6047  0.4597  0.7862
 3112TIP3   OH230826   4.244   0.297   5.655 -0.8503  0.2832  0.2733
 3112TIP3    H130827   4.206   0.378   5.621 -0.4506 -0.0765 -1.1032
 3112TIP3    H230828   4.176   0.261   5.712 -0.8826  1.7627  1.2265
 3113TIP3   OH230829   4.766   5.788   4.693 -0.0925 -0.2036 -0.0031
 3113TIP3    H130830   4.690   5.759   4.642  0.7983 -0.5530 -1.1529
 3113TIP3    H230831   4.816   5.708   4.709  0.7126  0.2141 -0.4067
 3114TIP3   OH230832   2.326   3.235  14.986 -0.2022 -0.4800 -0.5700
 3114TIP3    H130833   2.247   3.288  14.991  0.6058  1.0421 -2.7365
 3114TIP3    H230834   2.312   3.178  14.910  1.1492  0.5692 -1.6696
 3115TIP3   OH230835   3.962   3.351   2.534 -0.1916  0.1186 -0.6975
 3115TIP3    H130836   3.992   3.382   2.620 -3.5272 -0.4177  0.8354
 3115TIP3    H230837   4.004   3.266   2.523  1.0724  0.6404 -0.0971
 3116TIP3   OH230838   2.797   6.144   5.476 -0.0742  0.3684 -0.0507
 3116TIP3    H130839   2.742   6.218   5.499 -1.1602 -0.3918 -0.1571
 3116TIP3    H230840   2.748   6.067   5.505  1.9432 -0.2679  1.9976
 3117TIP3   OH230841   2.678   4.045   3.958 -0.2455 -0.0895 -0.0302
 3117TIP3    H130842   2.652   4.136   3.948  0.8852  0.1451 -1.1255
 3117TIP3    H230843   2.672   4.028   4.052 -1.3897  0.8066  0.0850
 3118TIP3   OH230844   4.198   3.592   2.367 -0.2943  0.0144  0.4839
 3118TIP3    H130845   4.254   3.517   2.388  1.8729  1.7239  1.2201
 3118TIP3    H230846   4.172   3.626   2.453  0.2049  1.0849  0.2270
 3119TIP3   OH230847   3.756   0.454  11.548  0.3102 -0.5764 -0.1808
 3119TIP3    H130848   3.686   0.518  11.558  0.6152 -0.3461  0.5424
 3119TIP3    H230849   3.710   0.371  11.535 -0.0936 -0.0364 -2.5742
 3120TIP3   OH230850   3.924   3.413  16.096  0.0091  0.1964 -0.1285
 3120TIP3    H130851   3.902   3.480  16.031  0.1786  0.2957 -0.0834
 3120TIP3    H230852   4.009   3.380  16.068 -0.8799 -1.2828 -1.1989
 3121TIP3   OH230853   6.431   4.966   3.472  0.3965 -0.3645 -0.4140
 3121TIP3    H130854   6.500   4.923   3.522  1.5086 -0.0507 -1.6281
 3121TIP3    H230855   6.468   5.051   3.448 -0.5143 -0.0778 -0.8553
 3122TIP3   OH230856   5.486   2.075   5.400 -0.1452 -0.1548 -0.5727
 3122TIP3    H130857   5.411   2.063   5.457  0.3635  0.1641  0.1812
 3122TIP3    H230858   5.502   1.989   5.362 -0.2841 -0.4540  0.0332
 3123TIP3   OH230859   3.217   5.898  15.296 -0.1872  0.2638 -0.7391
 3123TIP3    H130860   3.174   5.918  15.379 -1.6188 -0.7990 -1.1929
 3123TIP3    H230861   3.305   5.934  15.306  0.1098 -0.9323  1.7100
 3124TIP3   OH230862   2.338   1.698   0.504 -0.2876 -0.4591  0.4469
 3124TIP3    H130863   2.393   1.627   0.471  0.8899  0.6704 -0.0747
 3124TIP3    H230864   2.384   1.731   0.581 -0.3305  0.3472  0.1358
 3125TIP3   OH230865   0.280   3.628  14.821  0.1364  0.4534  0.1749
 3125TIP3    H130866   0.306   3.716  14.846  0.7958  0.3764 -0.2297
 3125TIP3    H230867   0.279   3.579  14.903 -0.2027  0.8200  0.3973
 3126TIP3   OH230868   5.238   1.066   1.335  0.0251 -0.2232 -0.2146
 3126TIP3    H130869   5.289   1.033   1.409 -1.6654 -0.7296  0.7960
 3126TIP3    H230870   5.244   0.996   1.269  1.4038  0.1549 -0.5014
 3127TIP3   OH230871   6.348   2.907   0.975 -0.0092  0.4980  0.2132
 3127TIP3    H130872   6.418   2.962   0.940 -0.3924  0.7742 -0.1255
 3127TIP3    H230873   6.268   2.956   0.959 -0.1399  1.0398  2.2671
 3128TIP3   OH230874   6.149   3.524   0.409 -0.6280  0.2752  0.5175
 3128TIP3    H130875   6.225   3.468   0.394 -0.9182  0.0055  0.0399
 3128TIP3    H230876   6.083   3.466   0.447  0.0394  0.9049  2.8466
 3129TIP3   OH230877   4.925   1.415  11.019  0.1780  0.2319 -0.2485
 3129TIP3    H130878   4.903   1.362  10.943 -1.1307 -1.0309  0.9552
 3129TIP3    H230879   4.958   1.352  11.083  1.0595  1.2389  0.3205
 3130TIP3   OH230880   3.057   2.943  14.543  0.0890 -0.5553  0.2864
 3130TIP3    H130881   3.140   2.990  14.540  1.2178 -2.5288 -0.5251
 3130TIP3    H230882   3.074   2.859  14.502 -2.2375 -1.1636  0.3938
 3131TIP3   OH230883   5.293   4.325   4.527 -0.0556 -0.2428 -0.1466
 3131TIP3    H130884   5.259   4.409   4.556 -0.0106 -0.2621 -0.0377
 3131TIP3    H230885   5.268   4.320   4.434  0.7002  0.2830 -0.3899
 3132TIP3   OH230886   2.618   6.552  16.868  0.0797 -0.3281  0.6142
 3132TIP3    H130887   2.676   6.563  16.792 -0.3958  2.5688  0.5333
 3132TIP3    H230888   2.569   6.472  16.849 -0.1947  0.3961 -2.3171
 3133TIP3   OH230889   4.246   0.480   6.004  0.0943  0.0816 -0.0425
 3133TIP3    H130890   4.170   0.446   5.957  0.0242  2.2239 -1.6272
 3133TIP3    H230891   4.211   0.521   6.082 -0.1772 -0.3882  0.0869
 3134TIP3   OH230892   1.454   4.726   0.000  0.0520 -0.3741 -0.2682
 3134TIP3    H130893   1.491   4.746   0.086 -1.0603 -0.1607  0.1887
 3134TIP3    H230894   1.501   4.782  -0.061 -0.0079  0.4145  0.3894
 3135TIP3   OH230895   5.088   0.811  12.599 -0.3539 -0.3153 -0.2673
 3135TIP3    H130896   5.176   0.819  12.637 -0.5601 -0.0347  0.1486
 3135TIP3    H230897   5.041   0.753  12.660 -1.0231  1.0067  0.5204
 3136TIP3   OH230898   6.421   3.779  14.693  0.0059 -0.3428 -0.0633
 3136TIP3    H130899   6.499   3.750  14.647 -0.7837 -2.6818 -0.0456
 3136TIP3    H230900   6.355   3.790  14.624 -0.1292 -0.0830  0.1050
 3137TIP3   OH230901   4.428   3.599   2.590  0.4554 -0.0794  0.0070
 3137TIP3    H130902   4.337   3.610   2.619  1.2551  0.4090  2.4940
 3137TIP3    H230903   4.436   3.505   2.571 -0.4491 -0.1907  0.1248
 3138TIP3   OH230904   1.722   5.627   4.593  0.2803  0.4368 -0.3233
 3138TIP3    H130905   1.693   5.702   4.542 -0.9991  0.0324 -0.2213
 3138TIP3    H230906   1.652   5.612   4.656  0.2972 -1.0973 -0.6257
 3139TIP3   OH230907   3.401   5.408  15.213 -0.7438  0.2063  0.4149
 3139TIP3    H130908   3.496   5.417  15.207 -0.7053 -0.4994 -0.0462
 3139TIP3    H230909   3.369   5.499  15.212 -0.2011  0.4237 -1.5481
 3140TIP3   OH230910   1.996   2.465  11.290  0.5710 -0.0662 -0.2085
 3140TIP3    H130911   1.989   2.423  11.204  0.0735  1.7369 -1.0806
 3140TIP3    H230912   2.031   2.396  11.347  1.2326 -1.2009 -1.9119
 3141TIP3   OH230913   5.008   6.124  13.816 -0.1922  0.7410  0.4625
 3141TIP3    H130914   5.042   6.111  13.904 -0.7068 -0.5478  0.4947
 3141TIP3    H230915   5.006   6.036  13.778  0.5935  1.3533 -1.0623
 3142TIP3   OH230916   4.098   3.554   1.873  0.1036 -0.0149  0.3518
 3142TIP3    H130917   4.110   3.607   1.952  1.6209  0.9856 -0.5199
 3142TIP3    H230918   4.042   3.482   1.902  0.7588  0.2296  2.3943
 3143TIP3   OH230919   6.196   6.691   6.181 -0.3183  0.0595 -0.1061
 3143TIP3    H130920   6.145   6.618   6.217 -0.8328 -0.2474 -1.3886
 3143TIP3    H230921   6.287   6.663   6.190 -0.5122 -0.8019 -0.6619
 3144TIP3   OH230922   0.602   3.611   2.124  0.2645  0.3132  0.0744
 3144TIP3    H130923   0.637   3.677   2.183  1.9130 -1.0865  0.7376
 3144TIP3    H230924   0.672   3.595   2.061 -0.2015 -0.6181 -0.2315
 3145TIP3   OH230925   0.521   3.894  13.857 -0.2867 -0.4460  0.3112
 3145TIP3    H130926   0.572   3.895  13.938 -0.8404  1.0432  0.6904
 3145TIP3    H230927   0.437   3.934  13.881 -0.9421 -1.1420 -0.7192
 3146TIP3   OH230928   0.525   5.569  16.167 -0.1403 -0.7517  0.3411
 3146TIP3    H130929   0.441   5.530  16.143  0.1413 -1.1081 -0.0662
 3146TIP3    H230930   0.502   5.638  16.230 -0.6239 -1.7170  1.2531
 3147TIP3   OH230931   0.320   2.623  14.112  0.4608 -0.3331 -0.1568
 3147TIP3    H130932   0.405   2.655  14.145  1.4438 -1.2640 -1.6954
 3147TIP3    H230933   0.341   2.577  14.031 -1.4867 -0.9601 -0.3546
 3148TIP3   OH230934   3.682   4.643   1.919  0.0703 -0.2876 -0.0993
 3148TIP3    H130935   3.688   4.611   1.829 -0.0427 -0.0560 -0.1923
 3148TIP3    H230936   3.766   4.687   1.935  0.4679 -1.1517  0.2393
 3149TIP3   OH230937   3.049   4.326   3.103 -0.1555  0.1847 -0.2755
 3149TIP3    H130938   3.116   4.262   3.080 -0.0099  0.8181 -1.7442
 3149TIP3    H230939   3.000   4.339   3.022 -0.4051  1.6515  0.0899
 3150TIP3   OH230940   2.697   1.186  15.440 -0.0395  0.5877  0.5233
 3150TIP3    H130941   2.669   1.129  15.369  1.5567 -0.8983  0.9940
 3150TIP3    H230942   2.722   1.126  15.510  2.1242  1.8031  0.9003
 3151TIP3   OH230943   6.360   6.185   2.314  0.6586 -0.2299 -0.2994
 3151TIP3    H130944   6.265   6.177   2.305  0.3929  2.0104 -0.1146
 3151TIP3    H230945   6.372   6.260   2.374  2.5357 -1.0538  0.4361
 3152TIP3   OH230946   3.144   0.568  10.475  0.4426 -0.2080  0.4351
 3152TIP3    H130947   3.161   0.626  10.401  0.4112  1.2250  1.5144
 3152TIP3    H230948   3.066   0.518  10.450 -0.5020  1.3683  0.1223
 3153TIP3   OH230949   2.460   6.656  13.810  0.1495  0.3624  0.3271
 3153TIP3    H130950   2.441   6.673  13.903 -3.1182 -0.4938 -0.0624
 3153TIP3    H230951   2.433   6.565  13.797  0.9792  0.3338 -1.4004
 3154TIP3   OH230952   1.723   5.741  13.046 -0.5248  0.2356 -0.5367
 3154TIP3    H130953   1.628   5.756  13.048 -0.4229  0.9132  1.2354
 3154TIP3    H230954   1.750   5.747  13.137  0.7289 -3.6653 -0.4726
 3155TIP3   OH230955   5.032   1.067   3.980 -0.0228 -0.1107  0.1819
 3155TIP3    H130956   5.118   1.040   4.013  0.3182  1.5312  0.7806
 3155TIP3    H230957   4.970   1.030   4.042  0.2753 -1.0712 -0.0872
 3156TIP3   OH230958   3.591   6.760  11.595 -0.5555  0.1405  0.0945
 3156TIP3    H130959   3.598   6.837  11.651 -1.0396  0.5982 -0.4432
 3156TIP3    H230960   3.644   6.693  11.637 -2.1172 -0.0315  1.9315
 3157TIP3   OH230961   2.464   3.786   1.018  0.1585 -0.7948  0.7516
 3157TIP3    H130962   2.485   3.875   0.989  1.9166 -1.6026 -0.6711
 3157TIP3    H230963   2.380   3.767   0.978  0.1534 -0.0621  0.3926
 3158TIP3   OH230964   1.460   2.727  11.316  0.1172 -0.1471  0.6351
 3158TIP3    H130965   1.439   2.817  11.289 -0.5006 -0.2993  0.5946
 3158TIP3    H230966   1.522   2.696  11.249 -1.5866 -0.6041 -0.8292
 3159TIP3   OH230967   6.711   3.604   0.788 -0.1572 -0.7986 -0.0345
 3159TIP3    H130968   6.660   3.674   0.829 -0.0712 -0.3607 -0.6559
 3159TIP3    H230969   6.792   3.599   0.840  1.1180  1.5065 -1.5906
 3160TIP3   OH230970   0.063   5.886  17.064  0.1063 -0.0799  0.4531
 3160TIP3    H130971   0.106   5.810  17.027  0.2174 -0.3105  1.0438
 3160TIP3    H230972   0.066   5.952  16.995 -0.6793 -0.8594 -0.3457
 3161TIP3   OH230973   1.082   4.188   3.954 -0.0464 -0.2063  0.0727
 3161TIP3    H130974   1.156   4.193   3.893  1.5585  0.1181  1.9493
 3161TIP3    H230975   1.051   4.098   3.947  0.5131 -0.3446 -0.7406
 3162TIP3   OH230976   6.408   6.224   5.252 -0.3225  0.1113 -0.3212
 3162TIP3    H130977   6.340   6.247   5.315  0.6371  0.6264  0.5574
 3162TIP3    H230978   6.406   6.129   5.247  0.4173 -0.0286  1.4760
 3163TIP3   OH230979   2.086   4.376  16.520  0.0588  0.3817 -0.1637
 3163TIP3    H130980   2.044   4.438  16.579 -0.5379 -0.5016  0.3800
 3163TIP3    H230981   2.017   4.351  16.458  0.9442  2.0693 -1.9423
 3164TIP3   OH230982   1.973   4.266  15.876  0.2278  0.2126 -0.1418
 3164TIP3    H130983   2.001   4.254  15.785  1.1265  0.3691  0.1063
 3164TIP3    H230984   1.885   4.303  15.869  0.1384 -0.1298 -0.9422
 3165TIP3   OH230985   6.146   0.913   0.736 -0.0487 -0.0773  0.5898
 3165TIP3    H130986   6.112   1.003   0.737 -0.2906 -0.1587  2.0059
 3165TIP3    H230987   6.084   0.865   0.680 -0.0704  0.5756  0.0407
 3166TIP3   OH230988   5.256   1.843   5.848 -0.4067 -0.0096 -0.3758
 3166TIP3    H130989   5.197   1.776   5.813  0.3135 -0.2023 -1.2895
 3166TIP3    H230990   5.279   1.812   5.935 -1.5928  0.0382 -0.0353
 3167TIP3   OH230991   3.248   3.189   2.782 -0.1864 -0.4142  0.2999
 3167TIP3    H130992   3.202   3.133   2.719 -0.5045  0.7823 -0.5619
 3167TIP3    H230993   3.299   3.249   2.729  0.9874 -0.5479  1.2303
 3168TIP3   OH230994   4.204   4.827  16.920 -0.5554 -0.6085 -0.6073
 3168TIP3    H130995   4.251   4.765  16.865  2.1018 -0.1595  1.0020
 3168TIP3    H230996   4.250   4.910  16.906 -1.5428  0.1033  0.2579
 3169TIP3   OH230997   2.723   1.310  12.221 -0.0236  0.4543  0.3674
 3169TIP3    H130998   2.714   1.336  12.312  1.9624 -1.8925  1.3378
 3169TIP3    H230999   2.783   1.375  12.183 -0.7761  1.3762  0.7239
 3170TIP3   OH231000   3.186   0.617  13.068  0.1294 -0.1532 -0.6431
 3170TIP3    H131001   3.199   0.711  13.085 -0.2662 -0.2878  0.5148
 3170TIP3    H231002   3.102   0.597  13.110 -0.0661 -0.9126 -1.3732
 3171TIP3   OH231003   3.939   1.276  10.964 -0.5721 -0.0893 -0.0074
 3171TIP3    H131004   4.016   1.282  11.020 -0.1138  0.1322 -0.6470
 3171TIP3    H231005   3.882   1.346  10.994 -0.6093 -0.3768  0.5961
 3172TIP3   OH231006   2.460   6.763  16.999  0.1889 -0.5373  0.7114
 3172TIP3    H131007   2.531   6.826  17.002  0.0895 -0.4234  0.6772
 3172TIP3    H231008   2.498   6.686  16.956 -0.7727  0.9001 -3.1036
 3173TIP3   OH231009   1.702   2.787  11.496 -0.4580 -0.3919 -0.4564
 3173TIP3    H131010   1.624   2.751  11.455 -1.3552  1.2974 -0.2903
 3173TIP3    H231011   1.735   2.852  11.433 -0.3065  0.2903  0.3108
 3174TIP3   OH231012   2.850   4.006   1.462 -0.4618 -0.2575 -0.3391
 3174TIP3    H131013   2.846   3.988   1.556  1.8164  0.1365 -0.0920
 3174TIP3    H231014   2.808   4.091   1.451  1.0964  0.6928  0.6989
 3175TIP3   OH231015   4.616   4.114   5.546  0.0362 -0.2925 -0.1178
 3175TIP3    H131016   4.588   4.146   5.461 -0.0393 -1.2591 -0.4701
 3175TIP3    H231017   4.540   4.065   5.579  0.3028 -0.5009  0.1977
 3176TIP3   OH231018   0.296   4.690   3.374 -0.2302  0.1830 -0.3548
 3176TIP3    H131019   0.269   4.717   3.286 -0.2072  1.1758 -0.0643
 3176TIP3    H231020   0.389   4.715   3.379  0.0132 -0.6835 -0.3597
 3177TIP3   OH231021   2.150   0.316   1.841  0.1891 -0.1842 -0.1144
 3177TIP3    H131022   2.114   0.363   1.765  0.4134  0.5896  0.2473
 3177TIP3    H231023   2.107   0.356   1.916 -0.0572 -0.9736  0.1802
 3178TIP3   OH231024   2.554   2.697   4.372  0.4579  0.4901 -0.1189
 3178TIP3    H131025   2.461   2.698   4.392  0.3060 -1.4496 -0.5552
 3178TIP3    H231026   2.560   2.724   4.281  0.5138  2.2762  0.3739
 3179TIP3   OH231027   0.542   6.073  12.712  0.2619  0.4006 -0.2903
 3179TIP3    H131028   0.587   6.136  12.768  1.5746 -0.4733 -0.3300
 3179TIP3    H231029   0.480   6.126  12.662 -0.2464  1.3451  1.2525
 3180TIP3   OH231030   4.706   0.147  15.805 -0.2671 -0.2098 -0.1486
 3180TIP3    H131031   4.756   0.135  15.885 -0.4609  0.5955  0.1046
 3180TIP3    H231032   4.763   0.199  15.748  0.3314 -1.7302 -0.9982
 3181TIP3   OH231033   6.741   0.714   6.089  0.2361  0.0034 -0.0808
 3181TIP3    H131034   6.824   0.706   6.043  0.6614  0.4704  0.5991
 3181TIP3    H231035   6.698   0.789   6.049  0.0236 -0.3886 -0.6013
 3182TIP3   OH231036   0.480   0.360   0.706 -0.5134 -0.5008 -0.5168
 3182TIP3    H131037   0.492   0.385   0.798  1.1500  0.3938 -0.9417
 3182TIP3    H231038   0.540   0.286   0.693  2.0500  1.6578 -1.7412
 3183TIP3   OH231039   4.443   1.397  14.107  0.0605 -0.2820  0.1804
 3183TIP3    H131040   4.448   1.491  14.091 -0.3588 -0.1953  0.5146
 3183TIP3    H231041   4.373   1.388  14.173  1.7158 -0.6027  1.9711
 3184TIP3   OH231042   6.342   0.563   1.985  0.2029  0.3086  0.7056
 3184TIP3    H131043   6.363   0.614   2.063  0.9632  1.6141 -0.2908
 3184TIP3    H231044   6.409   0.495   1.981 -0.3916 -0.3515  1.6670
 3185TIP3   OH231045   5.552   5.950   0.490  0.3759  0.1745 -0.2870
 3185TIP3    H131046   5.643   5.974   0.505 -0.0796  0.7143  2.0652
 3185TIP3    H231047   5.554   5.894   0.412  2.7690 -0.2684  0.0266
 3186TIP3   OH231048   0.685   5.219  15.748 -0.1195  0.2446  0.1948
 3186TIP3    H131049   0.629   5.142  15.739  0.3621  0.0162 -1.0030
 3186TIP3    H231050   0.661   5.275  15.675  1.1505  0.1731 -0.3048
 3187TIP3   OH231051   4.755   2.445  11.976 -0.0598 -0.2593  0.5251
 3187TIP3    H131052   4.823   2.405  12.030  0.9778 -0.0582 -0.5654
 3187TIP3    H231053   4.749   2.535  12.008  0.5381 -0.1452  0.3341
 3188TIP3   OH231054   1.361   4.217   2.620  0.6968 -0.3131 -0.1318
 3188TIP3    H131055   1.404   4.159   2.683  0.2863  0.1662  0.6038
 3188TIP3    H231056   1.277   4.237   2.659 -0.3019 -1.3683 -1.6283
 3189TIP3   OH231057   6.520   3.457   4.596  0.8222 -0.0386 -0.0874
 3189TIP3    H131058   6.450   3.497   4.546  2.0867  2.4449  0.0052
 3189TIP3    H231059   6.552   3.386   4.541 -2.0460 -1.6362  0.1112
 3190TIP3   OH231060   5.180   0.153   5.595 -0.1373 -0.2602 -0.3096
 3190TIP3    H131061   5.118   0.179   5.527 -0.6428  0.8889  0.5459
 3190TIP3    H231062   5.236   0.230   5.607  1.4138 -1.2553 -1.0025
 3191TIP3   OH231063   2.617   4.739  10.672 -0.2096 -0.2696  0.2721
 3191TIP3    H131064   2.572   4.721  10.590 -0.1631  1.4376 -0.1662
 3191TIP3    H231065   2.708   4.716  10.656 -0.0796  0.6739 -0.3829
 3192TIP3   OH231066   2.905   2.826   6.095  0.0519 -0.0679  0.0722
 3192TIP3    H131067   2.880   2.909   6.135  2.7678  1.0702 -0.3522
 3192TIP3    H231068   2.954   2.780   6.164 -0.5076 -0.8506 -0.0374
 3193TIP3   OH231069   5.316   6.143  12.840 -0.3510  0.1026  0.4134
 3193TIP3    H131070   5.248   6.088  12.877  0.6645 -1.5157 -0.0484
 3193TIP3    H231071   5.364   6.177  12.916 -0.9658  0.3326  0.7000
 3194TIP3   OH231072   0.682   2.910   2.227 -0.6767 -0.5657 -0.7644
 3194TIP3    H131073   0.725   2.995   2.217  0.7560 -1.0994  0.4294
 3194TIP3    H231074   0.606   2.929   2.282 -1.2271  0.1687 -1.7414
 3195TIP3   OH231075   4.280   6.824  13.990  0.8549  0.2309  0.0482
 3195TIP3    H131076   4.349   6.884  14.019 -0.2842  0.7351  1.8710
 3195TIP3    H231077   4.274   6.760  14.061  2.3651 -2.4352 -2.0459
 3196TIP3   OH231078   3.161   0.070  14.353 -0.5224  0.1698 -0.0316
 3196TIP3    H131079   3.072   0.089  14.322 -1.3214 -1.2350  1.2523
 3196TIP3    H231080   3.182  -0.015  14.316 -0.2449 -0.0988  0.7207
 3197TIP3   OH231081   0.522   3.068   1.802  0.0018  0.5433  0.5573
 3197TIP3    H131082   0.492   3.113   1.881  0.8707  2.6474 -0.2442
 3197TIP3    H231083   0.443   3.028   1.766 -0.9220  1.8493  1.0615
 3198TIP3   OH231084   1.115   0.694  16.459 -0.2097  0.3288 -0.6717
 3198TIP3    H131085   1.152   0.682  16.372 -2.2948 -0.0593 -1.5581
 3198TIP3    H231086   1.104   0.788  16.468  0.4989  0.4126 -0.5825
 3199TIP3   OH231087   5.313   2.748  14.304 -0.2957  0.8869 -0.1033
 3199TIP3    H131088   5.283   2.773  14.392  1.1247  1.7297  0.1653
 3199TIP3    H231089   5.361   2.667  14.317 -2.3641 -0.4914 -0.5440
 3200TIP3   OH231090   6.706   1.277   0.709 -0.5391 -0.2687 -0.0374
 3200TIP3    H131091   6.659   1.265   0.792  1.1095 -2.6659  0.6649
 3200TIP3    H231092   6.668   1.212   0.651  0.6247 -0.9719 -0.0368
 3201TIP3   OH231093   0.066   2.241   0.879 -0.6405  0.2170  0.1301
 3201TIP3    H131094   0.128   2.307   0.912  1.3421 -1.6314  0.3104
 3201TIP3    H231095   0.063   2.175   0.948 -2.5517  0.0533 -0.0670
 3202TIP3   OH231096   4.791   1.222   2.742 -0.0590 -0.1423 -0.4643
 3202TIP3    H131097   4.882   1.245   2.759 -0.4934  1.3264 -0.0398
 3202TIP3    H231098   4.789   1.126   2.750  1.3130 -0.1434  0.1321
 3203TIP3   OH231099   0.745   2.102   5.373 -0.5426  0.1309  0.2755
 3203TIP3    H131100   0.800   2.046   5.428 -0.1609  0.0391 -0.1861
 3203TIP3    H231101   0.774   2.083   5.283 -0.0808  1.3943  0.1243
 3204TIP3   OH231102   0.355   4.396  16.691  0.4386  0.3378 -0.4468
 3204TIP3    H131103   0.419   4.347  16.742  0.1879  0.7084  0.2366
 3204TIP3    H231104   0.270   4.367  16.725  0.2659  0.5469 -0.6931
 3205TIP3   OH231105   0.526   0.264  16.761 -0.3325  0.1675 -0.0031
 3205TIP3    H131106   0.595   0.304  16.708  1.6165 -2.0225  0.7079
 3205TIP3    H231107   0.444   0.300  16.725  1.1187  2.5794 -1.1281
 3206TIP3   OH231108   3.271   6.535  17.024  0.1958 -0.1833 -0.7623
 3206TIP3    H131109   3.212   6.515  17.096  0.4721 -1.6241 -0.9064
 3206TIP3    H231110   3.287   6.451  16.982  1.8933  0.2568 -1.0750
 3207TIP3   OH231111   4.781   3.447  17.150 -0.1419  0.0835  0.2249
 3207TIP3    H131112   4.759   3.366  17.195 -0.5662  1.2525  2.2370
 3207TIP3    H231113   4.696   3.485  17.127  0.0576 -0.1058 -0.8956
 3208TIP3   OH231114   1.279   1.648   2.948 -0.6613  1.3414  0.2663
 3208TIP3    H131115   1.234   1.670   2.867 -1.1853 -0.5749 -0.0049
 3208TIP3    H231116   1.343   1.581   2.923  0.2398  1.8083  1.1915
 3209TIP3   OH231117   3.263   3.864  13.344  0.0255  0.5707  0.2029
 3209TIP3    H131118   3.199   3.921  13.299  0.1171  1.6750  1.4286
 3209TIP3    H231119   3.231   3.859  13.434  1.7711  1.3238  0.8976
 3210TIP3   OH231120   3.510   4.259  17.097 -0.4926  0.9152 -0.2725
 3210TIP3    H131121   3.561   4.339  17.110  1.7124 -0.4777  0.3329
 3210TIP3    H231122   3.527   4.234  17.006  1.4261 -0.4325  0.3799
 3211TIP3   OH231123   4.774   1.782   6.106 -0.9431 -0.2261 -0.1818
 3211TIP3    H131124   4.696   1.766   6.052 -1.4367  0.1763  0.4071
 3211TIP3    H231125   4.832   1.832   6.049 -1.2129 -0.3099 -0.5380
 3212TIP3   OH231126   3.306   4.940  14.676  0.2557 -0.9278  0.7216
 3212TIP3    H131127   3.297   4.845  14.685  0.5346 -0.9105  1.1899
 3212TIP3    H231128   3.347   4.952  14.591 -1.9190 -1.1178 -0.4359
 3213TIP3   OH231129   1.670   1.402  13.950 -0.2918 -0.2071  0.1573
 3213TIP3    H131130   1.628   1.436  14.029 -1.4665  1.8249 -1.2388
 3213TIP3    H231131   1.658   1.471  13.885  4.5630  0.2095 -0.6484
 3214TIP3   OH231132   0.121   4.073  15.322 -0.2807  0.4704 -0.0732
 3214TIP3    H131133   0.044   4.110  15.366 -0.0941  0.1563  0.5435
 3214TIP3    H231134   0.133   3.987  15.364 -0.6662 -0.2680 -1.4148
 3215TIP3   OH231135   0.499   1.244  10.778 -0.3519 -0.4082  0.6572
 3215TIP3    H131136   0.558   1.312  10.744 -1.4574 -0.2945 -1.1428
 3215TIP3    H231137   0.540   1.162  10.752 -1.5048 -0.3231 -1.7112
 3216TIP3   OH231138   0.208   2.336  11.454  0.1660 -0.4854  0.2204
 3216TIP3    H131139   0.227   2.249  11.491  0.7377 -0.0984  0.8494
 3216TIP3    H231140   0.132   2.321  11.397  1.1644 -1.7036 -0.8841
 3217TIP3   OH231141   6.070   5.709  12.182  0.2764  0.1205  0.5768
 3217TIP3    H131142   6.057   5.796  12.144  1.4407  0.2120  0.3461
 3217TIP3    H231143   5.991   5.694  12.234 -0.1709  1.1004  0.2170
 3218TIP3   OH231144   3.543   0.343  14.632 -0.0471  0.1926  0.1849
 3218TIP3    H131145   3.497   0.341  14.716 -2.0510  2.0084 -0.7723
 3218TIP3    H231146   3.633   0.368  14.655 -0.8673  2.0039  1.7308
 3219TIP3   OH231147   0.242   0.499  10.893 -0.6605  0.9339  0.0861
 3219TIP3    H131148   0.182   0.429  10.921  0.6061  0.3725  1.5392
 3219TIP3    H231149   0.278   0.467  10.810 -1.6523  0.8426 -0.3218
 3220TIP3   OH231150   1.742   4.205   4.398 -0.8059 -0.1597  0.6350
 3220TIP3    H131151   1.691   4.208   4.479 -0.0537 -0.9732  1.1555
 3220TIP3    H231152   1.833   4.198   4.428  0.0329  4.0516 -0.1766
 3221TIP3   OH231153   2.787   6.604   1.954 -0.4008 -0.0287 -0.1956
 3221TIP3    H131154   2.875   6.641   1.953  0.0479 -0.9737  1.0630
 3221TIP3    H231155   2.750   6.627   1.869  1.8630 -1.4986 -1.7090
 3222TIP3   OH231156   6.311   2.907  12.962 -0.2591 -0.4215 -0.2906
 3222TIP3    H131157   6.386   2.937  12.910  0.5452 -1.9205 -0.0652
 3222TIP3    H231158   6.283   2.984  13.012 -0.1894  0.6891 -1.9140
 3223TIP3   OH231159   2.933   0.524   4.537  0.3797 -0.4896 -0.1250
 3223TIP3    H131160   2.862   0.549   4.596  0.9307 -0.0372  0.3625
 3223TIP3    H231161   2.999   0.484   4.595  0.3271 -1.3470 -0.6344
 3224TIP3   OH231162   6.454   4.133  14.650 -0.0228  0.0343 -0.1442
 3224TIP3    H131163   6.419   4.071  14.586  0.5169 -0.6982  0.2535
 3224TIP3    H231164   6.391   4.130  14.723 -0.9515  1.3011 -0.8485
 3225TIP3   OH231165   4.193   6.632  10.636 -0.1714 -0.2623 -0.1823
 3225TIP3    H131166   4.266   6.687  10.609  0.2705 -0.5824  0.3496
 3225TIP3    H231167   4.222   6.543  10.620 -1.1429 -0.3467 -1.6791
 3226TIP3   OH231168   0.462   2.601  15.648  0.1880  0.0289 -0.1620
 3226TIP3    H131169   0.497   2.674  15.700  0.3376 -0.5233  0.5291
 3226TIP3    H231170   0.437   2.641  15.565  3.1669  0.3516 -1.0172
 3227TIP3   OH231171   3.721   2.312   5.747  0.0356 -0.0297 -0.3410
 3227TIP3    H131172   3.667   2.272   5.679  0.7569 -1.3155 -0.1860
 3227TIP3    H231173   3.726   2.247   5.816  2.3400 -0.2958 -0.6593
 3228TIP3   OH231174   4.995   0.971  14.907 -0.1455  0.0318 -0.5244
 3228TIP3    H131175   5.062   1.039  14.917  1.0028 -1.1971  0.4488
 3228TIP3    H231176   5.010   0.936  14.819  0.9013 -0.6255 -0.1038
 3229TIP3   OH231177   6.152   6.517   3.857 -0.3366  0.7238  0.3360
 3229TIP3    H131178   6.121   6.558   3.775  0.9605  0.4699 -0.3087
 3229TIP3    H231179   6.078   6.525   3.917 -1.4728  0.5658 -0.9826
 3230TIP3   OH231180   6.209   2.687   0.327  0.7293 -0.3699  0.2481
 3230TIP3    H131181   6.299   2.717   0.317  1.1280 -0.3878  2.8940
 3230TIP3    H231182   6.212   2.624   0.399 -1.5660  0.6995  1.4021
 3231TIP3   OH231183   1.628   3.649   5.304  0.5641  0.1319  0.4949
 3231TIP3    H131184   1.549   3.699   5.283  0.7673  0.3237  0.1839
 3231TIP3    H231185   1.603   3.557   5.290 -0.4171 -0.0585  2.9184
 3232TIP3   OH231186   6.515   1.730  15.568 -0.9016 -1.0120 -0.2201
 3232TIP3    H131187   6.578   1.800  15.551 -1.0766 -0.9026 -0.4250
 3232TIP3    H231188   6.536   1.662  15.503 -1.3577 -0.7338 -0.6674
 3233TIP3   OH231189   2.902   2.855  11.553 -0.0413 -0.1361  0.4528
 3233TIP3    H131190   2.864   2.793  11.491  1.8786 -2.3504  1.3614
 3233TIP3    H231191   2.828   2.886  11.605 -1.0259 -2.0479  0.2689
 3234TIP3   OH231192   4.177   0.309  10.419 -0.3920  0.1966  0.3276
 3234TIP3    H131193   4.196   0.293  10.326  0.8014  0.8985  0.4172
 3234TIP3    H231194   4.106   0.249  10.440 -0.0637 -0.6353 -0.8111
 3235TIP3   OH231195   1.408   4.563   3.498  0.1994  0.2142 -0.6687
 3235TIP3    H131196   1.477   4.589   3.436  0.2927  0.8661 -0.3035
 3235TIP3    H231197   1.441   4.483   3.538  0.7242  0.4869 -0.5449
 3236TIP3   OH231198   1.596   4.195  15.485 -0.0187  0.0754  0.0098
 3236TIP3    H131199   1.547   4.223  15.409  0.1678 -1.0343 -0.5458
 3236TIP3    H231200   1.577   4.260  15.552 -1.6683  0.0595 -0.4057
 3237TIP3   OH231201   2.354   1.315   0.333 -0.2143 -0.0793 -0.2463
 3237TIP3    H131202   2.440   1.345   0.305 -0.2323  0.9179  0.7092
 3237TIP3    H231203   2.324   1.258   0.261  0.4880  0.9465 -1.3960
 3238TIP3   OH231204   6.528   1.009  13.029  0.0467  0.3047  0.0169
 3238TIP3    H131205   6.556   1.046  12.945  0.7720 -0.3744 -0.0550
 3238TIP3    H231206   6.552   1.075  13.094  0.4851  0.3630 -0.2028
 3239TIP3   OH231207   6.364   4.974  15.253  0.8914 -0.2522  0.4050
 3239TIP3    H131208   6.313   4.907  15.208  1.6397 -0.2538 -0.4583
 3239TIP3    H231209   6.325   4.979  15.340 -0.7417 -0.0828 -0.2945
 3240TIP3   OH231210   3.850   2.861   3.077  0.0673  0.2699 -0.0203
 3240TIP3    H131211   3.860   2.896   3.166 -0.0606  1.6820 -0.5423
 3240TIP3    H231212   3.757   2.836   3.072  0.4441 -1.4114  0.7824
 3241TIP3   OH231213   5.022   1.433   4.295 -0.4184  0.1808  0.1539
 3241TIP3    H131214   4.975   1.479   4.365  0.6038  0.7348  0.5071
 3241TIP3    H231215   5.076   1.501   4.254  0.0562 -0.4271 -0.2394
 3242TIP3   OH231216   5.916   2.145   2.936  0.2870 -0.1257  0.0743
 3242TIP3    H131217   5.984   2.160   3.001  0.4762  0.4666 -0.2559
 3242TIP3    H231218   5.927   2.215   2.872 -0.8407  0.1691  0.1805
 3243TIP3   OH231219   5.566   1.181  16.876 -0.2290  0.2399 -0.1841
 3243TIP3    H131220   5.583   1.239  16.950  1.0562 -1.2419  0.7419
 3243TIP3    H231221   5.554   1.095  16.916 -2.8287 -0.0719 -1.4519
 3244TIP3   OH231222   6.137   4.628   0.549 -0.1061  0.7326 -0.1949
 3244TIP3    H131223   6.207   4.676   0.593 -0.1866  0.9529 -0.3085
 3244TIP3    H231224   6.091   4.582   0.619  1.6315 -1.3610 -0.3160
 3245TIP3   OH231225   5.322   2.265   3.031  0.0028 -0.2787 -0.1843
 3245TIP3    H131226   5.285   2.278   3.119  0.0328 -0.5647 -0.1289
 3245TIP3    H231227   5.363   2.349   3.010  0.1082 -0.2476  0.1308
 3246TIP3   OH231228   6.696   0.764  13.119  0.2996  0.1713 -0.2323
 3246TIP3    H131229   6.747   0.747  13.039  1.9278 -1.6218  1.0839
 3246TIP3    H231230   6.653   0.848  13.103  3.5988  1.7706 -1.4931
 3247TIP3   OH231231   2.853   1.234  12.926  0.2409 -0.1659  0.3218
 3247TIP3    H131232   2.935   1.187  12.946  0.0149 -0.6737  0.0732
 3247TIP3    H231233   2.858   1.314  12.979  0.4081 -0.6983  1.1358
 3248TIP3   OH231234   3.973   1.638   0.112 -1.0930  0.4423 -0.1438
 3248TIP3    H131235   4.024   1.702   0.062 -1.5153  0.8735 -0.0376
 3248TIP3    H231236   3.913   1.600   0.048 -0.3819 -0.3547 -0.3557
 3249TIP3   OH231237   1.798   0.853  12.072  0.8204 -0.0131 -0.0356
 3249TIP3    H131238   1.737   0.926  12.084  0.6271 -0.4489  2.0201
 3249TIP3    H231239   1.820   0.826  12.161  1.2993 -2.1317 -0.7488
 3250TIP3   OH231240   4.866   5.651  12.819  0.2349  0.9645  0.2018
 3250TIP3    H131241   4.917   5.572  12.839  3.1830  2.2972 -1.4342
 3250TIP3    H231242   4.794   5.620  12.764  0.2470 -0.7882  1.1070
 3251TIP3   OH231243   5.733   3.727   4.646  0.3426  0.3262  0.6418
 3251TIP3    H131244   5.804   3.736   4.582 -0.2803  0.5569 -0.0319
 3251TIP3    H231245   5.670   3.794   4.622  0.2197  0.6036  1.6876
 3252TIP3   OH231246   0.670   6.545   0.572  0.2660 -0.1982 -0.1530
 3252TIP3    H131247   0.590   6.560   0.622  0.3213 -0.2951 -0.0332
 3252TIP3    H231248   0.693   6.631   0.536 -1.6000 -0.7181 -2.8052
 3253TIP3   OH231249   3.278   2.190  16.586 -0.5882  0.1410 -0.1149
 3253TIP3    H131250   3.248   2.101  16.604  2.1771 -0.5322  1.7912
 3253TIP3    H231251   3.199   2.244  16.594 -1.9601 -1.8910  0.8381
 3254TIP3   OH231252   5.229   4.854   1.825 -0.4622  0.2434 -0.2436
 3254TIP3    H131253   5.237   4.766   1.788 -2.3913 -0.8643  1.7512
 3254TIP3    H231254   5.272   4.910   1.760  1.5074 -2.1923 -1.2509
 3255TIP3   OH231255   2.426   1.080   6.032 -0.3207  0.2650 -0.1470
 3255TIP3    H131256   2.408   0.989   6.054  1.2459 -0.7465 -2.6014
 3255TIP3    H231257   2.509   1.100   6.076 -0.9131  0.7326  0.8057
 3256TIP3   OH231258   0.413   2.297   1.937  0.1983 -0.0786 -1.0316
 3256TIP3    H131259   0.375   2.274   2.022 -0.3172  0.8639 -0.9923
 3256TIP3    H231260   0.489   2.240   1.928  0.6180  0.2249  0.3439
 3257TIP3   OH231261   6.289   0.610   5.630 -0.4944 -0.0828 -0.2773
 3257TIP3    H131262   6.291   0.520   5.665  0.9225  0.3788  0.9506
 3257TIP3    H231263   6.266   0.664   5.706 -0.2732  0.6775 -0.7447
 3258TIP3   OH231264   4.552   3.578  17.059  0.6027  0.5328 -0.1839
 3258TIP3    H131265   4.498   3.656  17.069  0.3686  0.3386  0.1222
 3258TIP3    H231266   4.494   3.506  17.084  1.0444  0.3332  0.2922
 3259TIP3   OH231267   4.766   0.882  17.098  0.1886  0.1122 -0.2771
 3259TIP3    H131268   4.812   0.912  17.177  1.6239 -1.6564 -0.3885
 3259TIP3    H231269   4.787   0.789  17.092  0.3158  0.2498 -2.8962
 3260TIP3   OH231270   2.956   4.237   3.373 -0.9177 -0.0305  0.6996
 3260TIP3    H131271   2.998   4.247   3.288 -0.2474 -0.7806  0.9305
 3260TIP3    H231272   2.914   4.322   3.389  1.1761  1.0474  0.8056
 3261TIP3   OH231273   0.593   0.014   3.793  0.3643 -0.7341 -0.2911
 3261TIP3    H131274   0.568   0.060   3.713  2.5754 -1.4754 -1.5104
 3261TIP3    H231275   0.601   0.083   3.859  1.6459  0.4087 -1.5644
 3262TIP3   OH231276   2.005   0.416   3.737  0.1021  0.1898  0.3566
 3262TIP3    H131277   2.075   0.416   3.802 -0.8635 -1.5954  1.4598
 3262TIP3    H231278   2.012   0.331   3.694 -0.3497  0.6763 -0.7075
 3263TIP3   OH231279   6.673   1.223  16.192 -0.0963  0.3389 -0.2635
 3263TIP3    H131280   6.667   1.280  16.268  0.7614  0.1679 -0.0505
 3263TIP3    H231281   6.592   1.237  16.144 -0.9055  0.0350  0.9780
 3264TIP3   OH231282   0.029   5.256   0.300  0.3280 -0.0306 -0.1694
 3264TIP3    H131283  -0.060   5.255   0.335  0.4843  1.8139  0.4395
 3264TIP3    H231284   0.031   5.333   0.243  0.9017 -1.3719 -2.0487
 3265TIP3   OH231285   0.770   5.180   0.766  0.2048 -0.3296  0.2107
 3265TIP3    H131286   0.759   5.086   0.759  0.6565 -0.3790  0.1564
 3265TIP3    H231287   0.791   5.195   0.858 -1.1764 -0.1401  0.5285
 3266TIP3   OH231288   6.825   6.218  14.458 -1.1594  0.2228 -0.0658
 3266TIP3    H131289   6.823   6.313  14.449  0.0298  0.2797  0.0759
 3266TIP3    H231290   6.812   6.203  14.552 -1.0576  0.2578 -0.0466
 3267TIP3   OH231291   2.249   0.912  11.735 -0.0232 -0.1074  0.4883
 3267TIP3    H131292   2.339   0.921  11.765 -0.0755  0.7604  0.4263
 3267TIP3    H231293   2.255   0.895  11.642  0.1425 -2.8283  0.9226
 3268TIP3   OH231294   2.972   3.132  12.689 -0.5887  0.3257 -0.5745
 3268TIP3    H131295   2.925   3.202  12.645 -1.9044 -0.5969 -0.7139
 3268TIP3    H231296   3.009   3.079  12.619  0.6031  0.9912 -0.4659
 3269TIP3   OH231297   4.393   0.597   5.558 -0.5334 -0.0817 -0.2538
 3269TIP3    H131298   4.456   0.584   5.487  0.6902  3.3792  0.0251
 3269TIP3    H231299   4.441   0.573   5.637 -0.7415 -0.6996 -0.3130
 3270TIP3   OH231300   4.352   3.977   6.525  0.1354  0.3356 -0.0740
 3270TIP3    H131301   4.316   4.023   6.600 -1.2940 -0.1767 -0.4224
 3270TIP3    H231302   4.303   3.895   6.520  2.8698 -1.5283  0.7824
 3271TIP3   OH231303   2.881   2.157   2.165 -0.3852  0.6313 -0.1169
 3271TIP3    H131304   2.867   2.068   2.198  0.8847  1.3757  2.8265
 3271TIP3    H231305   2.965   2.154   2.121 -0.2586  0.3911  0.1368
 3272TIP3   OH231306   1.720   1.170   5.794 -0.8677 -0.1330  0.8755
 3272TIP3    H131307   1.810   1.201   5.782 -0.4895 -0.7262  2.0873
 3272TIP3    H231308   1.728   1.090   5.846 -2.2015  0.7812  2.5976
 3273TIP3   OH231309   0.951   6.641  16.913  0.2196 -0.2199 -0.1843
 3273TIP3    H131310   0.857   6.633  16.923 -0.1881  1.6345 -1.8889
 3273TIP3    H231311   0.988   6.601  16.992 -1.9145 -1.9311  0.0328
 3274TIP3   OH231312   2.637   5.606  15.661 -0.0272 -0.5459  0.0861
 3274TIP3    H131313   2.660   5.542  15.593  1.5337  0.5975 -0.5116
 3274TIP3    H231314   2.708   5.600  15.725  1.3818  2.0445 -1.0668
 3275TIP3   OH231315   1.337   5.874   1.561  0.5105  0.3384 -0.2694
 3275TIP3    H131316   1.345   5.790   1.606  2.1783  0.1626 -0.8527
 3275TIP3    H231317   1.245   5.876   1.532 -0.3920  0.0863  2.3125
 3276TIP3   OH231318   1.340   2.622   2.882  0.2262  0.4585  0.5342
 3276TIP3    H131319   1.354   2.717   2.872  1.0504  0.4037  1.0710
 3276TIP3    H231320   1.247   2.614   2.906  0.6496  1.3301  2.7412
 3277TIP3   OH231321   2.862   3.499  16.955  0.3794  0.1563  0.4158
 3277TIP3    H131322   2.805   3.524  17.029  1.8275  0.0541  1.6101
 3277TIP3    H231323   2.924   3.571  16.948  0.3836  0.0673 -0.6115
 3278TIP3   OH231324   0.352   2.461   4.538  0.1046 -0.2469  0.2222
 3278TIP3    H131325   0.382   2.379   4.499 -0.9133 -1.5325  1.9732
 3278TIP3    H231326   0.279   2.435   4.594 -1.3457  2.1160 -0.4225
 3279TIP3   OH231327   4.487   0.992  12.101 -0.1065 -0.6372 -0.0637
 3279TIP3    H131328   4.567   0.960  12.141 -2.0392 -1.8350  3.2462
 3279TIP3    H231329   4.460   0.923  12.041  1.4726 -0.0298 -1.5393
 3280TIP3   OH231330   0.177   2.107  13.183 -0.1345 -0.6455 -0.1920
 3280TIP3    H131331   0.145   2.082  13.270  0.4896 -1.0743 -0.0810
 3280TIP3    H231332   0.267   2.136  13.197 -0.0271 -0.7173 -0.6928
 3281TIP3   OH231333   0.939   5.322   2.868 -0.1738  0.0587 -0.3209
 3281TIP3    H131334   0.897   5.236   2.862  1.5805 -0.7972 -0.9713
 3281TIP3    H231335   1.018   5.307   2.919  0.4313  1.1709 -0.8816
 3282TIP3   OH231336   2.587   0.912   3.203  0.0954 -0.2185  0.9173
 3282TIP3    H131337   2.666   0.864   3.228 -0.3890 -1.3922  0.2525
 3282TIP3    H231338   2.527   0.897   3.276 -0.2474 -1.1145  0.4699
 3283TIP3   OH231339   4.505   1.733  16.222  0.0175 -0.1176 -0.7111
 3283TIP3    H131340   4.554   1.802  16.266  0.5073 -2.5226  2.9403
 3283TIP3    H231341   4.413   1.757  16.232  0.2177  0.9735 -1.3560
 3284TIP3   OH231342   2.707   6.741   2.166  0.0875 -0.2022 -0.0662
 3284TIP3    H131343   2.617   6.708   2.158  0.2340 -0.6304 -0.0107
 3284TIP3    H231344   2.760   6.678   2.117  0.1874  0.8855 -1.3797
 3285TIP3   OH231345   5.509   4.141  16.952 -0.0647 -0.1806 -0.0149
 3285TIP3    H131346   5.547   4.215  16.999  2.0042 -1.4135  0.3753
 3285TIP3    H231347   5.502   4.171  16.862  0.8201  0.4583  0.1195
 3286TIP3   OH231348   3.513   1.842  15.532 -0.0192  0.0607 -0.2009
 3286TIP3    H131349   3.437   1.846  15.590  0.6595  1.1472  0.6506
 3286TIP3    H231350   3.487   1.781  15.463 -0.5826 -1.8569  1.6244
 3287TIP3   OH231351   5.344   3.766   2.235  0.0382 -0.6473  0.2040
 3287TIP3    H131352   5.290   3.842   2.259  1.4761 -0.5344  3.6018
 3287TIP3    H231353   5.425   3.804   2.201 -0.6172 -0.7910 -1.6385
 3288TIP3   OH231354   0.814   1.299   5.681  0.1494  0.7697 -0.1352
 3288TIP3    H131355   0.883   1.233   5.672  0.0876  0.6911 -0.0373
 3288TIP3    H231356   0.821   1.328   5.772 -2.6995 -2.3359  1.2877
 3289TIP3   OH231357   5.563   5.535  12.879 -0.0587  0.1349  0.7256
 3289TIP3    H131358   5.584   5.595  12.951 -0.1621 -0.6781  1.4553
 3289TIP3    H231359   5.639   5.477  12.873  1.2286  1.9092 -1.7269
 3290TIP3   OH231360   0.741   2.074   6.331  0.4606 -0.4591 -0.7815
 3290TIP3    H131361   0.689   2.009   6.285 -0.2043 -0.6757  0.2417
 3290TIP3    H231362   0.687   2.101   6.405  1.6645 -0.4437  0.1341
 3291TIP3   OH231363   3.511   2.908   4.848  0.3508  0.3508  0.9627
 3291TIP3    H131364   3.511   2.896   4.943  0.9108 -0.1961  0.9019
 3291TIP3    H231365   3.436   2.856   4.818 -0.0419  0.8107  1.1317
 3292TIP3   OH231366   1.546   1.980   5.249  0.2556  0.5907  0.1574
 3292TIP3    H131367   1.539   1.897   5.297  0.4674  0.5226  0.0711
 3292TIP3    H231368   1.540   2.047   5.317 -1.5314  0.5522  0.0724
 3293TIP3   OH231369   4.774   2.251  13.986 -0.2882 -0.3414 -0.0284
 3293TIP3    H131370   4.771   2.272  13.893 -0.3335 -2.1501 -0.4840
 3293TIP3    H231371   4.683   2.230  14.009  0.0997 -2.4860 -0.2776
 3294TIP3   OH231372   3.052   2.331  15.714  0.3938  0.6224 -0.6245
 3294TIP3    H131373   3.116   2.335  15.643 -0.2534  0.6900 -1.2091
 3294TIP3    H231374   3.060   2.243  15.749  0.8094  0.6305 -0.6962
 3295TIP3   OH231375   0.652   6.111   0.311 -0.4098 -0.4503  0.2446
 3295TIP3    H131376   0.682   6.115   0.221  1.0983 -0.7722  0.7143
 3295TIP3    H231377   0.695   6.184   0.355 -0.3607 -0.8683  0.9148
 3296TIP3   OH231378   3.566   4.902  16.080  0.3806  0.3098  0.4470
 3296TIP3    H131379   3.648   4.916  16.127  0.7544  2.1528 -0.6545
 3296TIP3    H231380   3.505   4.966  16.117  0.4359  1.2077 -0.9231
 3297TIP3   OH231381   0.363   6.265   0.874 -0.6722 -0.0422  0.9126
 3297TIP3    H131382   0.314   6.187   0.901 -0.7039  0.1672  1.4753
 3297TIP3    H231383   0.389   6.307   0.957 -0.1929  0.2534  0.6164
 3298TIP3   OH231384   5.225   4.409  13.513 -0.1363  0.0485  0.0977
 3298TIP3    H131385   5.144   4.439  13.473  0.8465  3.2391  0.1748
 3298TIP3    H231386   5.294   4.452  13.462  1.3095  0.9357  2.5917
 3299TIP3   OH231387   5.550   1.488  15.134  0.1219 -0.4286  0.2450
 3299TIP3    H131388   5.645   1.487  15.125 -0.0150 -0.3075 -1.8879
 3299TIP3    H231389   5.532   1.553  15.201  1.5180  0.5162 -0.2504
 3300TIP3   OH231390   5.676   4.442  13.233  1.3549 -0.1920 -0.3782
 3300TIP3    H131391   5.673   4.456  13.138 -0.5171 -0.1516 -0.3486
 3300TIP3    H231392   5.752   4.493  13.262  0.6690  1.6162 -1.5902
 3301TIP3   OH231393   3.079   5.168   3.562  0.1530  0.0480 -0.6469
 3301TIP3    H131394   3.059   5.180   3.655 -0.0054 -2.2684 -0.3107
 3301TIP3    H231395   3.164   5.125   3.561  0.8143  1.3080 -1.6691
 3302TIP3   OH231396   4.348   6.108   0.968  0.1713  0.4368 -0.0295
 3302TIP3    H131397   4.408   6.174   1.002 -0.3151  1.6463 -1.4513
 3302TIP3    H231398   4.269   6.156   0.943 -0.4231 -0.7642 -0.5699
 3303TIP3   OH231399   5.334   2.873   0.706 -0.7064 -0.5529  0.3877
 3303TIP3    H131400   5.413   2.827   0.679  0.6698  0.0303  3.0215
 3303TIP3    H231401   5.358   2.965   0.703 -2.1143 -0.2013 -1.0241
 3304TIP3   OH231402   1.538   0.231  11.375  0.1513  0.4931 -0.4331
 3304TIP3    H131403   1.589   0.310  11.388  2.2796 -0.7973 -0.3799
 3304TIP3    H231404   1.480   0.250  11.301 -0.9420  2.7458  0.9094
 3305TIP3   OH231405   3.792   4.913   1.488  0.2830 -0.5737 -0.4572
 3305TIP3    H131406   3.779   4.945   1.578  1.0818  0.2607 -0.6205
 3305TIP3    H231407   3.878   4.871   1.490  0.2922 -0.5769 -0.8235
 3306TIP3   OH231408   3.005   3.117   3.340  0.5829 -0.0832  0.5078
 3306TIP3    H131409   2.944   3.054   3.380  1.1692 -1.0701 -0.0968
 3306TIP3    H231410   3.041   3.166   3.414  1.4096 -1.6577  1.2149
 3307TIP3   OH231411   5.026   4.269  16.261 -0.1929  0.3956  0.5044
 3307TIP3    H131412   4.976   4.251  16.340  0.5234 -1.4160  0.6046
 3307TIP3    H231413   5.017   4.189  16.209 -2.3840  2.2606 -2.2638
 3308TIP3   OH231414   6.513   0.252  12.021 -0.2880  0.8717  0.3775
 3308TIP3    H131415   6.575   0.185  11.991 -1.1771  0.5366 -0.7936
 3308TIP3    H231416   6.515   0.247  12.116 -1.7219 -2.1450  0.3424
 3309TIP3   OH231417   6.286   2.367   0.202 -0.1246  0.4730  0.6529
 3309TIP3    H131418   6.373   2.406   0.197 -0.0441  0.1604 -1.2433
 3309TIP3    H231419   6.300   2.281   0.241  0.5179  0.2110 -0.1235
 3310TIP3   OH231420   0.425   1.548   3.955 -0.5634  0.0779  0.0010
 3310TIP3    H131421   0.403   1.578   4.043  0.5315 -0.6050  0.5298
 3310TIP3    H231422   0.347   1.568   3.902 -2.0986 -1.4479  1.5725
 3311TIP3   OH231423   2.536   2.185   6.367 -0.1218 -0.3059  0.0838
 3311TIP3    H131424   2.562   2.093   6.377  0.3877 -0.2086 -0.2884
 3311TIP3    H231425   2.571   2.228   6.445  1.8818  0.0356 -0.9326
 3312TIP3   OH231426   5.972   2.895  11.826  0.2829  0.2503  0.3257
 3312TIP3    H131427   5.941   2.853  11.746  0.4053  1.3010 -0.2894
 3312TIP3    H231428   5.969   2.826  11.892  1.6045 -1.0822 -0.9118
 3313TIP3   OH231429   1.075   0.557   3.820  0.3453  0.3704  0.3742
 3313TIP3    H131430   0.994   0.580   3.868  0.6470  1.1649  0.5320
 3313TIP3    H231431   1.049   0.557   3.728  0.4845  2.2146  0.2913
 3314TIP3   OH231432   0.887   1.463   3.633 -0.1758  0.3356 -0.5189
 3314TIP3    H131433   0.902   1.551   3.667 -1.8417  0.9864 -1.3460
 3314TIP3    H231434   0.881   1.475   3.538  0.0079 -0.7340 -0.6708
 3315TIP3   OH231435   1.601   4.588   4.725  0.2920  0.2836 -0.0986
 3315TIP3    H131436   1.603   4.505   4.678 -3.1428  0.8709 -1.6684
 3315TIP3    H231437   1.606   4.655   4.656  0.8325  1.3280  0.9129
 3316TIP3   OH231438   5.328   2.049   1.493 -0.0739 -0.5368 -0.5514
 3316TIP3    H131439   5.383   2.029   1.417 -0.4013  1.4897 -1.3877
 3316TIP3    H231440   5.358   1.989   1.561  1.2741 -1.3585 -1.8154
 3317TIP3   OH231441   3.579   1.407  11.125 -0.2128 -0.8615  0.3299
 3317TIP3    H131442   3.649   1.438  11.067  0.5420 -0.9843  1.1616
 3317TIP3    H231443   3.531   1.343  11.073 -0.0285 -0.3989 -0.4219
 3318TIP3   OH231444   4.326   1.651   0.969 -1.0693  0.2976  0.1584
 3318TIP3    H131445   4.257   1.660   1.035 -1.2096  0.1519  0.0340
 3318TIP3    H231446   4.321   1.731   0.918 -0.1156  0.9895  1.1123
 3319TIP3   OH231447   5.535   3.011  11.179  0.8138  0.1416 -0.0847
 3319TIP3    H131448   5.578   3.091  11.210 -2.1155  1.7131  0.2484
 3319TIP3    H231449   5.520   3.025  11.086 -1.7893  1.1481  0.3940
 3320TIP3   OH231450   5.104   4.814  15.380 -0.1654 -0.1954 -0.9780
 3320TIP3    H131451   5.104   4.840  15.472  0.1729 -0.6786 -0.8389
 3320TIP3    H231452   5.021   4.768  15.368  0.8813 -2.3918 -0.2510
 3321TIP3   OH231453   6.738   5.602   5.172 -0.4345  0.4363  0.4688
 3321TIP3    H131454   6.667   5.596   5.235  1.1596 -0.4057  2.3009
 3321TIP3    H231455   6.782   5.684   5.192 -1.5182  1.5629 -1.4532
 3322TIP3   OH231456   6.797   1.585   1.416 -0.2366  0.2670 -0.3284
 3322TIP3    H131457   6.729   1.525   1.386 -1.6901  0.6122  2.0088
 3322TIP3    H231458   6.878   1.533   1.413 -1.3397 -1.6371  0.9495
 3323TIP3   OH231459   5.490   6.327   1.221  0.3362  0.2122 -0.0347
 3323TIP3    H131460   5.517   6.373   1.300  2.1027 -1.6287  0.5220
 3323TIP3    H231461   5.484   6.235   1.247 -1.0985 -0.2012 -1.5648
 3324TIP3   OH231462   6.283   2.038   0.746  0.1212 -0.0475  0.0178
 3324TIP3    H131463   6.375   2.042   0.770  0.4711  0.4374 -1.2957
 3324TIP3    H231464   6.276   2.096   0.669 -1.5237  0.9314  0.8539
 3325TIP3   OH231465   6.400   2.524  14.165  0.2027 -0.1994  0.8885
 3325TIP3    H131466   6.371   2.536  14.255  0.1665 -1.6106  1.0897
 3325TIP3    H231467   6.486   2.567  14.162 -0.2379  0.7373  1.3054
 3326TIP3   OH231468   5.431   6.133  11.114 -1.2077 -0.0145  0.1692
 3326TIP3    H131469   5.372   6.059  11.100 -1.2716  0.1361 -0.3823
 3326TIP3    H231470   5.498   6.099  11.174 -0.8651 -0.7244 -0.5893
 3327TIP3   OH231471   3.984   4.014   5.808  0.3961  0.0003 -0.0313
 3327TIP3    H131472   3.927   4.067   5.864  0.2763  1.0985 -1.1617
 3327TIP3    H231473   3.947   3.926   5.813  1.6697 -0.5189  3.3568
 3328TIP3   OH231474   6.170   4.901  10.835  0.1228 -0.1051 -0.0663
 3328TIP3    H131475   6.207   4.841  10.900 -0.4095  0.0093  0.3478
 3328TIP3    H231476   6.176   4.853  10.752 -0.2277 -0.6964  0.2480
 3329TIP3   OH231477   5.131   5.609  16.410  0.1969  0.0486  0.3628
 3329TIP3    H131478   5.174   5.552  16.347 -0.1217  0.7242 -0.4991
 3329TIP3    H231479   5.068   5.553  16.454  0.7670 -0.5480  0.4287
 3330TIP3   OH231480   2.699   0.846  13.453  0.2888 -0.0978 -0.5374
 3330TIP3    H131481   2.681   0.758  13.421 -1.7130  0.5384 -1.2900
 3330TIP3    H231482   2.630   0.864  13.517  0.7003  0.9106 -0.3472
 3331TIP3   OH231483   4.665   5.414   1.261  0.5136  0.3182 -0.2501
 3331TIP3    H131484   4.594   5.461   1.304  0.5696 -0.6793  0.9672
 3331TIP3    H231485   4.696   5.475   1.194  0.5922  2.0353  1.2693
 3332TIP3   OH231486   5.168   0.600  14.922  0.1761 -0.3796  0.5774
 3332TIP3    H131487   5.117   0.551  14.857  1.1624 -1.7512  0.7759
 3332TIP3    H231488   5.103   0.641  14.979 -0.7152 -1.7054  0.5595
 3333TIP3   OH231489   2.603   2.593  16.025  0.3134 -0.5440  0.1469
 3333TIP3    H131490   2.556   2.535  15.964  3.3726 -2.1022 -0.9791
 3333TIP3    H231491   2.626   2.670  15.972  1.8989 -1.3458 -0.4074
 3334TIP3   OH231492   0.270   1.875   3.226  0.1530 -0.5116 -0.1916
 3334TIP3    H131493   0.250   1.791   3.267  1.2375 -0.9935 -0.5886
 3334TIP3    H231494   0.213   1.938   3.269  1.4015 -0.9456  2.2430
 3335TIP3   OH231495   5.993   6.733   1.729  0.2536 -0.0868 -0.6420
 3335TIP3    H131496   5.912   6.780   1.746  0.4847 -0.3028  1.3775
 3335TIP3    H231497   5.965   6.643   1.714  0.1133 -0.4247  1.2728
 3336TIP3   OH231498   0.082   3.419  16.887 -0.3750 -0.1034  0.1186
 3336TIP3    H131499   0.066   3.377  16.803  0.2636 -1.6008  0.7071
 3336TIP3    H231500   0.167   3.461  16.877 -1.2363  1.5757 -0.6366
 3337TIP3   OH231501   6.105   4.838   2.119  0.0707  0.2791  0.0323
 3337TIP3    H131502   6.034   4.846   2.182 -0.0680 -0.4842 -0.0183
 3337TIP3    H231503   6.085   4.758   2.069  0.9308  0.0748 -0.0066
 3338TIP3   OH231504   2.528   2.942   0.218  0.1664  0.1213 -0.4514
 3338TIP3    H131505   2.545   3.007   0.286 -0.0883  0.0199 -0.2863
 3338TIP3    H231506   2.614   2.920   0.183  0.1578  1.5433 -1.4489
 3339TIP3   OH231507   0.592   6.774   0.257  0.6689 -0.3205  0.4342
 3339TIP3    H131508   0.571   6.849   0.202 -0.5903  0.0660  1.3893
 3339TIP3    H231509   0.597   6.809   0.346  1.5116 -1.1278  0.7296
 3340TIP3   OH231510   6.589   0.963  16.376 -0.1529 -0.0532  0.0977
 3340TIP3    H131511   6.603   0.972  16.471  1.2310  2.4231 -0.2406
 3340TIP3    H231512   6.669   0.999  16.337 -0.8258 -0.7317 -2.0307
 3341TIP3   OH231513   1.844   0.687  13.315 -0.5370  0.1911  0.0417
 3341TIP3    H131514   1.806   0.747  13.379 -0.4268 -0.1923  0.4806
 3341TIP3    H231515   1.795   0.703  13.234  0.1102  1.5135 -0.1122
 3342TIP3   OH231516   3.614   4.716   6.046  0.4629 -0.3229 -0.7327
 3342TIP3    H131517   3.693   4.743   6.093  0.5746  0.6839 -1.4558
 3342TIP3    H231518   3.574   4.650   6.102  0.4518  1.0082  0.9208
 3343TIP3   OH231519   1.112   5.776  17.080  0.2152 -0.0180 -0.3197
 3343TIP3    H131520   1.170   5.794  17.005 -0.0359 -0.0504 -0.5237
 3343TIP3    H231521   1.171   5.774  17.155  0.3173  1.1760 -0.3516
 3344TIP3   OH231522   3.927   2.522   1.796 -0.2387  0.0105 -0.3302
 3344TIP3    H131523   3.967   2.581   1.733 -1.9586  0.5561 -0.9769
 3344TIP3    H231524   3.917   2.439   1.749 -0.5363  0.1014 -0.4330
 3345TIP3   OH231525   3.602   2.401  12.116 -0.0805  0.0615  0.0337
 3345TIP3    H131526   3.509   2.407  12.096 -0.1707  1.2889  0.7697
 3345TIP3    H231527   3.606   2.350  12.197 -0.1735  0.6636  0.4212
 3346TIP3   OH231528   4.739   5.189   4.902 -0.3816  0.0682  0.4727
 3346TIP3    H131529   4.819   5.158   4.944 -1.0600 -1.7782  0.4891
 3346TIP3    H231530   4.697   5.109   4.869 -1.0853  1.2205 -1.5507
 3347TIP3   OH231531   2.555   2.095  14.289 -0.7284 -0.3543  0.5573
 3347TIP3    H131532   2.625   2.058  14.342  0.7476  1.0017 -0.3624
 3347TIP3    H231533   2.592   2.175  14.252 -2.9089  0.6551  0.3654
 3348TIP3   OH231534   5.658   1.044   2.947  0.5726  0.0391 -0.6329
 3348TIP3    H131535   5.600   1.120   2.943 -0.9289 -1.0135  0.3870
 3348TIP3    H231536   5.693   1.036   2.858  0.0322  1.3531 -0.9833
 3349TIP3   OH231537   6.763   1.565  16.196  0.7456 -0.3937  0.4189
 3349TIP3    H131538   6.816   1.616  16.134 -0.0549 -0.9357 -0.7450
 3349TIP3    H231539   6.675   1.567  16.160  0.1268 -0.2345  1.8775
 3350TIP3   OH231540   0.564   5.096   3.538  0.4135  0.4493 -0.0371
 3350TIP3    H131541   0.634   5.042   3.574 -1.1617 -0.8955  1.1915
 3350TIP3    H231542   0.514   5.124   3.614 -0.8255  0.7247 -0.9167
 3351TIP3   OH231543   0.281   2.836  12.589  0.0815  0.7864 -0.1266
 3351TIP3    H131544   0.333   2.908  12.555  1.2038  0.0872  0.0730
 3351TIP3    H231545   0.345   2.774  12.625 -0.6307 -1.3300 -2.1951
 3352TIP3   OH231546   5.665   2.878  14.564  0.7420 -0.4762  0.4342
 3352TIP3    H131547   5.589   2.925  14.598  1.2243 -0.8231  2.0976
 3352TIP3    H231548   5.716   2.855  14.642  2.0151 -1.1830 -0.5569
 3353TIP3   OH231549   6.035   4.174   2.408 -0.0197  0.1927  0.0445
 3353TIP3    H131550   6.019   4.086   2.442 -0.0171  0.2739  0.2536
 3353TIP3    H231551   6.128   4.173   2.382  0.0519  0.2191  0.2983
 3354TIP3   OH231552   2.703   0.252  14.477  0.6111 -0.3283 -0.5607
 3354TIP3    H131553   2.714   0.347  14.477  0.0742 -0.2500 -1.4788
 3354TIP3    H231554   2.736   0.224  14.562 -1.2884  0.9128  0.6535
 3355TIP3   OH231555   2.632   4.200  16.361 -0.6945 -0.3705  0.4384
 3355TIP3    H131556   2.586   4.180  16.280 -0.0407  0.7846 -0.2598
 3355TIP3    H231557   2.565   4.238  16.418 -0.9480 -0.2097  0.0411
 3356TIP3   OH231558   5.498   2.404  12.728 -0.2317  0.0681 -0.1812
 3356TIP3    H131559   5.431   2.338  12.749 -0.8343  0.7904  0.2344
 3356TIP3    H231560   5.526   2.437  12.813  2.9177 -2.3401 -0.1250
 3357TIP3   OH231561   3.830   5.997  16.820 -0.3265  0.0594 -0.7697
 3357TIP3    H131562   3.906   5.991  16.762  0.1343  0.1523 -0.1776
 3357TIP3    H231563   3.822   6.090  16.840  0.4385 -0.1383  0.5258
 3358TIP3   OH231564   3.745   4.530  15.523  0.4260  0.9183  0.2865
 3358TIP3    H131565   3.756   4.435  15.513  0.1451  0.8762  0.3708
 3358TIP3    H231566   3.684   4.554  15.452  0.5391  1.0441  0.2319
 3359TIP3   OH231567   2.409   5.936  12.101  0.4963 -0.4125 -0.0258
 3359TIP3    H131568   2.410   5.881  12.180 -0.3203  0.0875  0.3394
 3359TIP3    H231569   2.340   6.000  12.117 -0.2177 -0.7955 -1.4922
 3360TIP3   OH231570   1.740   4.062  16.196  0.2150 -0.3800 -0.0638
 3360TIP3    H131571   1.819   4.075  16.143  0.9940 -2.5426  0.4299
 3360TIP3    H231572   1.697   3.987  16.155 -0.6544 -0.3255  0.7324
 3361TIP3   OH231573   6.048   4.951   3.552  0.1836 -0.0408  0.3092
 3361TIP3    H131574   6.059   5.004   3.473 -0.6564 -0.7877 -0.3315
 3361TIP3    H231575   5.959   4.915   3.545  0.2060 -0.3583  1.4496
 3362TIP3   OH231576   1.462   5.167  15.912  0.3967 -0.3207  0.1940
 3362TIP3    H131577   1.463   5.181  15.817  0.1222 -0.7846  0.1217
 3362TIP3    H231578   1.466   5.255  15.949  2.8315 -0.1875 -0.2322
 3363TIP3   OH231579   3.339   3.498   6.408 -0.7083 -0.2044 -0.1746
 3363TIP3    H131580   3.399   3.426   6.428  0.8058  0.8362 -0.7970
 3363TIP3    H231581   3.340   3.553   6.486  0.1972  0.5050 -0.6770
 3364TIP3   OH231582   2.958   0.273   1.554 -0.2697  0.2470  0.2279
 3364TIP3    H131583   3.008   0.313   1.482  0.6817  0.9894  1.2565
 3364TIP3    H231584   3.011   0.198   1.582  0.0309  0.7224  0.9754
 3365TIP3   OH231585   2.774   1.489  13.044 -0.5114  0.3310 -0.0131
 3365TIP3    H131586   2.831   1.480  13.120 -0.8158 -0.4963  0.1262
 3365TIP3    H231587   2.687   1.504  13.081 -0.4794  1.0595 -0.2203
 3366TIP3   OH231588   6.651   6.356   1.984  0.2940  0.2679 -0.0537
 3366TIP3    H131589   6.743   6.333   1.998  0.6825  1.8187  0.0215
 3366TIP3    H231590   6.635   6.335   1.892  0.1300 -1.8625  0.3986
 3367TIP3   OH231591   0.820   1.000   4.762  0.1237 -0.8931  0.2819
 3367TIP3    H131592   0.803   1.081   4.713  0.9164 -0.5502  0.5592
 3367TIP3    H231593   0.752   0.939   4.732 -1.0293  0.1408  0.7080
 3368TIP3   OH231594   3.127   2.770   0.446  0.3274  0.3619  0.4581
 3368TIP3    H131595   3.114   2.864   0.460 -3.2680 -0.1710  1.6001
 3368TIP3    H231596   3.115   2.731   0.532  2.3717 -1.1885  0.1240
 3369TIP3   OH231597   2.004   1.829  12.419  0.0953  0.3781  0.3058
 3369TIP3    H131598   1.956   1.911  12.412  0.2451  0.6556  1.9595
 3369TIP3    H231599   1.947   1.763  12.379  0.9412  1.5418 -3.1871
 3370TIP3   OH231600   3.794   6.440   4.012 -0.8098 -0.0785  0.0641
 3370TIP3    H131601   3.868   6.496   3.989 -0.1880 -0.8562  0.1284
 3370TIP3    H231602   3.718   6.498   4.006 -0.3010  0.5342 -0.8108
 3371TIP3   OH231603   0.029   4.581  14.935 -0.1362 -0.1199  0.4315
 3371TIP3    H131604  -0.026   4.574  14.857  0.1677 -1.4900  0.3144
 3371TIP3    H231605  -0.005   4.514  14.994  0.0226  0.5042  1.2380
 3372TIP3   OH231606   4.591   1.505   3.696  0.3392  0.5472  0.0188
 3372TIP3    H131607   4.610   1.469   3.782  0.5460 -0.2011 -0.3368
 3372TIP3    H231608   4.623   1.595   3.700  0.4298  0.4879  0.6928
 3373TIP3   OH231609   0.024   2.557   1.947 -0.9413  0.3227 -0.0068
 3373TIP3    H131610  -0.016   2.539   2.032  0.0806  0.3256  0.4996
 3373TIP3    H231611   0.059   2.472   1.919 -1.3299  0.3098 -0.4546
 3374TIP3   OH231612   4.194   2.702   0.839  0.0166 -0.4312  0.6541
 3374TIP3    H131613   4.282   2.719   0.805  0.4109 -2.4223  0.5562
 3374TIP3    H231614   4.142   2.778   0.812  0.7274 -1.0511 -2.8160
 3375TIP3   OH231615   5.603   0.481   5.602 -0.8260 -0.1111 -0.3498
 3375TIP3    H131616   5.683   0.533   5.594 -1.4546  0.6352 -2.4983
 3375TIP3    H231617   5.545   0.535   5.657  0.6133 -1.4127  2.7153
 3376TIP3   OH231618   1.341   0.200  16.526  0.2449 -0.4931  0.0994
 3376TIP3    H131619   1.318   0.292  16.521  1.3305 -0.2543 -0.8574
 3376TIP3    H231620   1.269   0.154  16.483 -0.2125 -0.0830  0.4230
 3377TIP3   OH231621   5.317   2.550  13.225  0.0844 -0.4061  0.3214
 3377TIP3    H131622   5.382   2.615  13.196 -1.0928  0.6253 -0.1133
 3377TIP3    H231623   5.369   2.478  13.261  1.5483 -0.6762 -2.1459
 3378TIP3   OH231624   4.779   2.659  11.668  0.4030 -0.5956  0.2832
 3378TIP3    H131625   4.829   2.589  11.709  1.1597  1.0336  2.3093
 3378TIP3    H231626   4.705   2.673  11.727  0.5161  0.6021  0.1579
 3379TIP3   OH231627   4.331   0.948  13.604  0.2923  0.6100 -0.0175
 3379TIP3    H131628   4.303   0.968  13.693  0.4244  0.5443  0.0413
 3379TIP3    H231629   4.412   0.998  13.592 -1.4465  3.3059 -1.3038
 3380TIP3   OH231630   6.495   1.116  12.215  0.1525  0.7060 -0.2496
 3380TIP3    H131631   6.487   1.169  12.136  1.1767  1.5718  0.2061
 3380TIP3    H231632   6.570   1.059  12.199  0.5947  1.1399  0.2232
 3381TIP3   OH231633   0.341   3.323   3.984 -0.1849 -0.6855  0.6225
 3381TIP3    H131634   0.340   3.416   4.006 -2.8977 -0.8882  1.7831
 3381TIP3    H231635   0.429   3.307   3.950  0.5549  2.1480  0.9598
 3382TIP3   OH231636   1.484   5.899   2.543  0.4105 -1.0351  0.5738
 3382TIP3    H131637   1.485   5.953   2.622 -0.7017 -0.6766  0.3530
 3382TIP3    H231638   1.477   5.809   2.575 -0.5995 -0.8567  0.8882
 3383TIP3   OH231639   1.736   0.489  12.187  0.0221 -0.1043 -0.8718
 3383TIP3    H131640   1.782   0.415  12.148 -0.5638 -1.0739  0.1897
 3383TIP3    H231641   1.791   0.515  12.261  0.2796  0.6050 -1.3062
 3384TIP3   OH231642   4.783   3.129   4.953  0.1935  0.0222 -0.2959
 3384TIP3    H131643   4.703   3.141   4.902 -0.2256 -1.1499  0.0383
 3384TIP3    H231644   4.854   3.128   4.889 -0.0130  1.3424 -0.5726
 3385TIP3   OH231645   5.274   4.596   4.148 -0.4868  0.3103 -0.7880
 3385TIP3    H131646   5.321   4.513   4.153 -0.6122  0.3179  1.4684
 3385TIP3    H231647   5.326   4.657   4.199 -2.5268  0.4710  1.2832
 3386TIP3   OH231648   1.761   0.801   4.960  0.0045 -0.4303 -0.2747
 3386TIP3    H131649   1.782   0.794   4.867  0.2293 -0.3985 -0.2271
 3386TIP3    H231650   1.846   0.808   5.003 -0.1170  0.1332 -0.1182
 3387TIP3   OH231651   0.874   1.852  15.387  0.1866 -0.1054 -0.0731
 3387TIP3    H131652   0.860   1.791  15.459  0.5701  0.6392  0.6457
 3387TIP3    H231653   0.787   1.878  15.359  0.0298  0.9932  1.3388
 3388TIP3   OH231654   5.222   2.261  11.771  0.5101 -0.0723 -0.2410
 3388TIP3    H131655   5.129   2.240  11.762 -0.0503  1.6835  0.8165
 3388TIP3    H231656   5.248   2.220  11.853 -0.6376  3.1242  1.9369
 3389TIP3   OH231657   0.914   3.578   5.448  0.1167 -0.6786  0.0425
 3389TIP3    H131658   0.877   3.662   5.421 -0.3346 -0.7940  0.2908
 3389TIP3    H231659   0.957   3.545   5.370  1.7494  0.5354  0.3498
 3390TIP3   OH231660   5.099   0.961   1.908 -0.4684 -0.0247  1.0049
 3390TIP3    H131661   5.166   0.931   1.971  0.8741  1.6150  0.4558
 3390TIP3    H231662   5.099   0.895   1.840 -0.2034 -0.6182  1.5662
 3391TIP3   OH231663   6.573   6.686  15.036 -0.3104  0.5877 -0.2356
 3391TIP3    H131664   6.482   6.689  15.005 -0.6126 -1.3596  0.3391
 3391TIP3    H231665   6.625   6.688  14.955 -0.9990 -1.4628 -0.7816
 3392TIP3   OH231666   1.430   5.781   0.475 -0.0663 -0.3710  0.2719
 3392TIP3    H131667   1.431   5.858   0.531 -1.1213 -1.2811  1.5969
 3392TIP3    H231668   1.440   5.816   0.386  1.6585  1.1058  0.9729
 3393TIP3   OH231669   2.700   0.751  15.045  0.0650  0.0030 -0.6023
 3393TIP3    H131670   2.699   0.703  15.127  0.4185  1.7196  0.4432
 3393TIP3    H231671   2.792   0.771  15.029 -0.1170  0.8158 -0.7102
 3394TIP3   OH231672   5.263   6.141  16.209 -0.3731 -0.0048 -0.2813
 3394TIP3    H131673   5.296   6.177  16.127  0.3870  0.6394  0.2901
 3394TIP3    H231674   5.171   6.124  16.192 -0.0441 -0.6730 -1.5236
 3395TIP3   OH231675   2.921   6.782  15.670  0.1978 -0.1137 -0.9168
 3395TIP3    H131676   2.995   6.744  15.622  1.4148  1.6860 -0.5663
 3395TIP3    H231677   2.953   6.793  15.759 -0.9359 -0.4502 -0.4543
 3396TIP3   OH231678   6.464   1.780   1.666 -0.0602 -0.1384 -0.3050
 3396TIP3    H131679   6.526   1.795   1.737 -0.6029  2.8600 -0.3326
 3396TIP3    H231680   6.390   1.736   1.707  0.3251  0.0537  0.6152
 3397TIP3   OH231681   1.077   3.241  14.055  0.2972  0.3627 -0.5411
 3397TIP3    H131682   1.060   3.210  14.144  1.4486 -0.5041 -0.5968
 3397TIP3    H231683   0.993   3.234  14.010  0.0812 -0.8465  0.0108
 3398TIP3   OH231684   4.704   6.562   2.032  0.1184  0.2568  0.0235
 3398TIP3    H131685   4.787   6.570   1.985 -0.5758  0.4915 -1.2031
 3398TIP3    H231686   4.664   6.483   1.998 -1.1927  1.3631 -1.1320
 3399TIP3   OH231687   1.476   3.953  14.364 -0.1222 -0.7036 -0.2697
 3399TIP3    H131688   1.478   3.992  14.452  0.1278 -1.3565  0.0245
 3399TIP3    H231689   1.418   4.009  14.314 -1.0606 -0.8815  0.5934
 3400TIP3   OH231690   4.039   5.148   1.587  0.3145 -0.1849 -0.0896
 3400TIP3    H131691   3.990   5.182   1.662  0.0949 -0.1004 -0.2703
 3400TIP3    H231692   4.079   5.067   1.619 -0.1416 -0.3827 -0.0101
 3401TIP3   OH231693   3.187   6.140  11.587  0.0075  0.0701  0.5681
 3401TIP3    H131694   3.126   6.098  11.647 -0.4480  0.8149  0.6414
 3401TIP3    H231695   3.179   6.234  11.605  0.9001  0.2107  0.3164
 3402TIP3   OH231696   5.034   5.385  16.805  0.1202 -0.4059  0.7859
 3402TIP3    H131697   5.112   5.343  16.843  0.6945 -0.6946 -0.6400
 3402TIP3    H231698   5.062   5.475  16.789 -0.1800 -0.2377  1.1754
 3403TIP3   OH231699   1.155   5.732  16.063 -0.2619  0.1213 -0.1240
 3403TIP3    H131700   1.145   5.804  16.001 -0.6253 -1.0930 -1.5394
 3403TIP3    H231701   1.120   5.656  16.017  1.6593 -1.3141  0.6430
 3404TIP3   OH231702   0.550   0.339  15.296 -0.3213 -0.0531 -0.5338
 3404TIP3    H131703   0.500   0.291  15.230 -0.0826 -0.6699 -0.2704
 3404TIP3    H231704   0.635   0.296  15.298 -0.3794 -0.1385  0.2943
 3405TIP3   OH231705   3.298   1.903  15.283 -0.3208  0.3709  0.1607
 3405TIP3    H131706   3.332   1.966  15.346  0.5443  1.0314 -0.9152
 3405TIP3    H231707   3.282   1.824  15.333  0.7937  0.7301  1.1111
 3406TIP3   OH231708   3.413   6.018   4.677 -0.4157  0.0203 -0.6646
 3406TIP3    H131709   3.459   6.001   4.596  0.4273  1.5925 -0.5512
 3406TIP3    H231710   3.481   6.046   4.739 -1.2880  0.7433  0.0001
 3407TIP3   OH231711   1.009   2.049  15.922 -0.2401  0.0173  0.6981
 3407TIP3    H131712   0.927   2.024  15.879 -2.0356 -0.3673  3.9734
 3407TIP3    H231713   1.069   1.976  15.906 -0.5455  0.1893 -1.5462
 3408TIP3   OH231714   2.450   3.171  15.815 -0.5645 -0.2610 -0.5481
 3408TIP3    H131715   2.372   3.210  15.854  0.0091  2.2172 -1.7023
 3408TIP3    H231716   2.501   3.245  15.783  0.6601 -1.9706 -2.8651
 3409TIP3   OH231717   4.991   6.050   3.243  0.3258 -0.0368  0.2906
 3409TIP3    H131718   4.960   6.139   3.226 -0.1357 -0.4053 -0.9275
 3409TIP3    H231719   5.023   6.052   3.333 -1.7671  0.7980  1.0735
 3410TIP3   OH231720   1.813   0.415   0.770 -0.4735 -0.2353 -0.2175
 3410TIP3    H131721   1.816   0.412   0.674  2.2185  2.3270 -0.3373
 3410TIP3    H231722   1.762   0.493   0.790  1.4631  0.9326  0.3144
 3411TIP3   OH231723   6.018   4.700  14.198 -0.0353 -0.5540  0.8349
 3411TIP3    H131724   6.107   4.673  14.177 -0.2031 -0.0214 -0.6458
 3411TIP3    H231725   6.025   4.791  14.226 -0.3897  0.3959 -1.9359
 3412TIP3   OH231726   4.332   1.684   4.288 -0.4389 -0.1278  0.5802
 3412TIP3    H131727   4.407   1.696   4.230  0.2691 -1.8211  1.1085
 3412TIP3    H231728   4.265   1.644   4.233  0.1539 -1.5258  0.8555
 3413TIP3   OH231729   0.209   3.852  15.450  0.2442 -0.3729 -0.1191
 3413TIP3    H131730   0.275   3.903  15.497  1.0860 -2.0110  0.5896
 3413TIP3    H231731   0.194   3.775  15.506 -0.4921 -1.2226 -1.4174
 3414TIP3   OH231732   1.213   5.448  15.771  0.7830  0.0960  0.8058
 3414TIP3    H131733   1.217   5.485  15.859 -0.0028 -1.0443  1.3461
 3414TIP3    H231734   1.156   5.372  15.780 -1.7809  1.6196 -1.3061
 3415TIP3   OH231735   2.253   4.471   5.023  0.2942  0.0684  0.7786
 3415TIP3    H131736   2.322   4.476   4.958  0.2349 -1.9049  0.4988
 3415TIP3    H231737   2.213   4.558   5.024  0.7775  0.3513 -1.2710
 3416TIP3   OH231738   0.807   2.757   2.558  0.2547  0.0146  0.2292
 3416TIP3    H131739   0.824   2.668   2.589  0.4699  0.5902  1.8670
 3416TIP3    H231740   0.890   2.785   2.520  0.6875  0.0813  1.1973
 3417TIP3   OH231741   6.242   5.435   4.739  0.1732 -0.5185 -0.3512
 3417TIP3    H131742   6.250   5.477   4.654  0.9237 -0.6573 -0.3567
 3417TIP3    H231743   6.328   5.394   4.754  0.1892 -0.1530  0.6517
 3418TIP3   OH231744   6.510   5.506  16.181 -0.7252 -0.0885 -0.1485
 3418TIP3    H131745   6.484   5.504  16.088  3.4508  2.0110 -1.6097
 3418TIP3    H231746   6.544   5.419  16.198 -2.1864 -0.7237 -0.2707
 3419TIP3   OH231747   1.387   3.360  13.062  0.2129 -0.1818  0.0245
 3419TIP3    H131748   1.409   3.443  13.103 -1.7451  0.5848 -0.3924
 3419TIP3    H231749   1.401   3.295  13.130 -2.0684  0.9514  1.6971
 3420TIP3   OH231750   3.960   4.936  14.388  0.1528  0.1247  0.3644
 3420TIP3    H131751   3.889   4.872  14.399 -1.4765  1.8203  0.3574
 3420TIP3    H231752   4.029   4.906  14.446 -1.6587 -0.1552  2.5089
 3421TIP3   OH231753   3.955   4.657  13.304  0.1551  0.3816  0.0365
 3421TIP3    H131754   3.904   4.738  13.300 -0.0341  0.2405 -0.5558
 3421TIP3    H231755   4.040   4.683  13.337 -0.4496  0.5437  1.5554
 3422TIP3   OH231756   3.001   6.735   3.593  0.2307  0.5489 -0.5624
 3422TIP3    H131757   3.065   6.733   3.664 -0.0978  0.0739 -0.2717
 3422TIP3    H231758   3.031   6.805   3.535  0.5381  0.8965  0.0110
 3423TIP3   OH231759   5.638   4.164  15.143 -0.4255  0.3908 -0.0836
 3423TIP3    H131760   5.660   4.125  15.228 -0.3043 -0.0481 -0.3154
 3423TIP3    H231761   5.554   4.206  15.157  0.4024  1.8520  0.7469
 3424TIP3   OH231762   1.209   1.621  17.019  0.6386 -0.3980  0.0143
 3424TIP3    H131763   1.199   1.687  17.089 -1.4850 -1.3348  0.6883
 3424TIP3    H231764   1.275   1.560  17.052 -0.7783 -1.1714  1.5479
 3425TIP3   OH231765   6.397   4.544   3.407 -0.8023  0.4105  0.0892
 3425TIP3    H131766   6.334   4.567   3.475 -0.7592 -1.2942  0.7372
 3425TIP3    H231767   6.401   4.449   3.408  0.6561  0.4187 -0.9882
 3426TIP3   OH231768   0.070   0.824   2.040  0.1812 -0.1943  0.3234
 3426TIP3    H131769   0.007   0.894   2.023 -0.8710 -1.5819 -2.0641
 3426TIP3    H231770   0.033   0.776   2.114 -0.9491 -0.2677 -0.2663
 3427TIP3   OH231771   5.686   0.510   2.158 -0.0065  0.5185 -0.3080
 3427TIP3    H131772   5.746   0.465   2.218  1.6289  1.7581 -0.9666
 3427TIP3    H231773   5.668   0.446   2.090 -0.4868 -0.3001  0.5534
 3428TIP3   OH231774   2.874   0.148  14.268  0.2809 -0.8569 -0.8882
 3428TIP3    H131775   2.830   0.063  14.271 -2.0937  0.3181  0.4498
 3428TIP3    H231776   2.833   0.198  14.338  3.1822  0.7064 -0.1447
 3429TIP3   OH231777   3.382   4.961  16.409 -0.0518 -0.0214 -0.3276
 3429TIP3    H131778   3.307   4.937  16.464 -1.3106  0.1741 -1.8867
 3429TIP3    H231779   3.455   4.971  16.470 -1.7182  1.6994  1.5200
 3430TIP3   OH231780   0.707   4.312  14.265  0.6067  0.5452 -0.2626
 3430TIP3    H131781   0.679   4.259  14.340 -0.2228 -0.9592 -1.5812
 3430TIP3    H231782   0.724   4.399  14.302 -1.0046  0.1925  1.4485
 3431TIP3   OH231783   0.783   3.302   1.513 -0.2306  0.7330 -0.7591
 3431TIP3    H131784   0.727   3.374   1.486 -1.5883  0.5376  1.3135
 3431TIP3    H231785   0.852   3.300   1.447 -1.9456  1.7870 -2.7173
 3432TIP3   OH231786   2.261   0.894  15.947 -0.3155 -0.1327 -0.4798
 3432TIP3    H131787   2.298   0.888  16.035  2.3523 -3.9998 -1.6224
 3432TIP3    H231788   2.167   0.879  15.960 -0.0882 -0.0286  1.7318
 3433TIP3   OH231789   0.852   0.895   0.302  0.4771 -0.2677  0.2916
 3433TIP3    H131790   0.809   0.810   0.292 -1.1535  0.5279  0.2605
 3433TIP3    H231791   0.878   0.898   0.394 -0.5916 -0.3225  0.6165
 3434TIP3   OH231792   0.964   2.737   3.833 -0.4283 -0.1983 -0.4969
 3434TIP3    H131793   0.972   2.832   3.848  0.3749 -0.4467  0.8282
 3434TIP3    H231794   0.870   2.721   3.832 -0.5796  0.3404  1.3729
 3435TIP3   OH231795   2.641   5.174  16.136  0.1330  0.3480 -0.1358
 3435TIP3    H131796   2.596   5.173  16.051 -2.3949 -0.0395  1.1066
 3435TIP3    H231797   2.619   5.089  16.175  1.5432  0.3793  0.7942
 3436TIP3   OH231798   5.335   0.039  15.035  0.0267 -0.4483 -0.2477
 3436TIP3    H131799   5.344   0.048  15.130 -1.2997 -1.0519 -0.0502
 3436TIP3    H231800   5.318  -0.054  15.021  1.6537 -0.6378 -1.2303
 3437TIP3   OH231801   1.831   1.495  14.432  0.4292  0.6353  0.2640
 3437TIP3    H131802   1.857   1.554  14.503  0.4518  1.1964 -0.2000
 3437TIP3    H231803   1.902   1.502  14.368 -0.1863  1.1331 -0.3959
 3438TIP3   OH231804   5.395   2.648  11.867 -0.3126  0.2489 -0.1603
 3438TIP3    H131805   5.317   2.591  11.866 -1.2092  1.4340 -0.7774
 3438TIP3    H231806   5.389   2.694  11.951  0.9270 -1.1937  0.7706
 3439TIP3   OH231807   5.737   4.361  16.297 -0.0667  0.6309 -0.3673
 3439TIP3    H131808   5.643   4.344  16.300 -0.0007  0.3822  1.4973
 3439TIP3    H231809   5.749   4.441  16.348  0.8898 -0.3340  1.0151
 3440TIP3   OH231810   0.101   2.984  14.762 -0.0808 -0.0897  0.5343
 3440TIP3    H131811   0.137   3.072  14.770  2.1519 -0.9858  1.2196
 3440TIP3    H231812   0.026   2.983  14.823 -0.4763  1.4518  0.1089
 3441TIP3   OH231813   6.741   3.498   3.210 -0.1978  0.3964 -0.8005
 3441TIP3    H131814   6.828   3.519   3.243 -0.7883  0.6683  0.6881
 3441TIP3    H231815   6.725   3.562   3.141  0.5416  0.7418 -0.6536
 3442TIP3   OH231816   0.255   5.719   2.826  0.0923  0.2799  0.0140
 3442TIP3    H131817   0.194   5.742   2.756  0.7251  2.0379 -0.0291
 3442TIP3    H231818   0.341   5.723   2.784  0.4023  0.3040  0.6431
 3443TIP3   OH231819   0.901   4.853  13.536  0.4821  0.2783  0.2745
 3443TIP3    H131820   0.983   4.822  13.574  1.1827  0.7562 -0.8156
 3443TIP3    H231821   0.920   4.942  13.506 -0.8229  0.9102  1.1897
 3444TIP3   OH231822   6.382   5.298   3.972 -0.6443 -0.3410 -0.2891
 3444TIP3    H131823   6.435   5.230   4.014  0.7086  0.2408 -0.9781
 3444TIP3    H231824   6.296   5.289   4.012  0.2647 -0.5675  1.7577
 3445TIP3   OH231825   6.438   6.345  15.668 -0.6095 -0.0447  0.5552
 3445TIP3    H131826   6.505   6.277  15.658 -1.0836 -0.6443  1.3252
 3445TIP3    H231827   6.444   6.396  15.587 -0.2912 -1.0481 -0.0830
 3446TIP3   OH231828   0.532   2.475   5.248  0.5569  0.0139  0.5830
 3446TIP3    H131829   0.595   2.528   5.296 -0.1260 -0.4158  2.0107
 3446TIP3    H231830   0.490   2.421   5.315  0.3140 -1.3958 -0.6474
 3447TIP3   OH231831   0.559   4.040  10.513  0.0241  0.4320 -0.1483
 3447TIP3    H131832   0.468   4.066  10.523 -0.6723 -1.6960 -0.4948
 3447TIP3    H231833   0.555   3.952  10.476  2.2406  0.6413 -1.0514
 3448TIP3   OH231834   3.681   5.771   1.078  0.0271 -0.4501 -0.3667
 3448TIP3    H131835   3.733   5.849   1.097  0.2241 -0.3285 -1.3410
 3448TIP3    H231836   3.696   5.755   0.985  0.7807 -2.2353  0.0331
 3449TIP3   OH231837   1.479   5.932  12.288  0.2774 -0.3017  0.1862
 3449TIP3    H131838   1.519   6.019  12.287 -0.2770 -0.0222  1.1002
 3449TIP3    H231839   1.513   5.889  12.209  1.0442  0.5141  0.0563
 3450TIP3   OH231840   5.677   5.159   1.690 -0.0743  0.0944 -0.1148
 3450TIP3    H131841   5.591   5.193   1.715 -0.3587  0.3776 -1.4019
 3450TIP3    H231842   5.657   5.092   1.624  0.7796  3.2731 -3.9800
 3451TIP3   OH231843   2.440   1.810   3.627 -0.1035 -0.6553 -0.2204
 3451TIP3    H131844   2.468   1.725   3.592 -2.9813 -1.6865 -0.2876
 3451TIP3    H231845   2.405   1.857   3.551  1.8684  0.8629 -0.2723
 3452TIP3   OH231846   6.341   2.228   1.124  0.4989 -0.1116  0.5882
 3452TIP3    H131847   6.401   2.287   1.078  0.8868  0.0276  1.2676
 3452TIP3    H231848   6.365   2.141   1.093  1.3630 -0.0983  1.1973
 3453TIP3   OH231849   3.176   0.304   5.322  0.0952 -0.1017 -0.1600
 3453TIP3    H131850   3.144   0.300   5.232  0.9569 -1.5734 -0.4358
 3453TIP3    H231851   3.226   0.223   5.334  1.2735  0.7571  1.1581
 3454TIP3   OH231852   0.455   2.309   0.757  0.6231 -0.0847 -0.2132
 3454TIP3    H131853   0.469   2.404   0.759 -0.6137  0.1013  0.3510
 3454TIP3    H231854   0.478   2.280   0.846  1.0449 -0.3240 -0.3982
 3455TIP3   OH231855   4.165   2.431  15.193  0.1780 -0.1906  0.5242
 3455TIP3    H131856   4.222   2.362  15.161  2.8606  1.0886  2.2148
 3455TIP3    H231857   4.149   2.408  15.285  1.5874  1.6116  1.2879
 3456TIP3   OH231858   1.520   0.426  13.381 -0.2431 -0.3745  0.0396
 3456TIP3    H131859   1.443   0.429  13.324 -1.0851 -1.7182  1.0374
 3456TIP3    H231860   1.511   0.502  13.438 -0.2256  0.0950 -0.5725
 3457TIP3   OH231861   4.383   3.783  16.004 -0.1424  0.5982  0.2998
 3457TIP3    H131862   4.476   3.781  16.025 -0.2335 -0.4425  0.6772
 3457TIP3    H231863   4.363   3.694  15.974 -1.6221 -0.1639  3.1412
 3458TIP3   OH231864   3.457   4.126  13.099  0.4482  0.2343 -0.2568
 3458TIP3    H131865   3.362   4.139  13.093  0.5892  1.4766  0.0120
 3458TIP3    H231866   3.494   4.197  13.046  1.2625  1.0324  1.3252
 3459TIP3   OH231867   1.558   1.516   0.578  0.0339  0.0588 -0.3400
 3459TIP3    H131868   1.518   1.554   0.657 -0.6879 -0.2159 -0.5622
 3459TIP3    H231869   1.604   1.438   0.610 -0.4029 -0.1484 -0.2103
 3460TIP3   OH231870   5.044   2.550   2.127 -0.2745 -0.0630 -0.7085
 3460TIP3    H131871   5.001   2.603   2.194 -2.3935 -1.1015 -1.1590
 3460TIP3    H231872   5.120   2.602   2.100  1.4352 -0.1209  3.2784
 3461TIP3   OH231873   1.082   4.835  11.870 -0.4518  0.0204  0.4897
 3461TIP3    H131874   1.111   4.914  11.915 -1.5446 -0.6281  2.4693
 3461TIP3    H231875   0.991   4.854  11.846 -0.7321 -0.6144  1.0092
 3462TIP3   OH231876   4.232   2.844  15.582 -0.2925 -0.1683 -0.2722
 3462TIP3    H131877   4.320   2.881  15.582 -0.7445  1.1336 -2.8205
 3462TIP3    H231878   4.183   2.898  15.644  0.4583 -0.3660  0.5232
 3463TIP3   OH231879   0.722   1.283  17.085 -0.2297 -0.2189  0.3365
 3463TIP3    H131880   0.745   1.234  17.164 -1.5176  1.5865  1.9364
 3463TIP3    H231881   0.627   1.279  17.081 -0.2628  0.7628 -0.4053
 3464TIP3   OH231882   5.251   6.518   0.285  1.0595  0.8610 -0.1775
 3464TIP3    H131883   5.290   6.482   0.365 -0.6405 -2.0152 -0.4821
 3464TIP3    H231884   5.316   6.503   0.217  1.2560  0.3511  0.1177
 3465TIP3   OH231885   6.254   3.203  16.257  0.0659  0.2927 -0.4846
 3465TIP3    H131886   6.319   3.159  16.201 -1.7692 -1.2995 -1.4804
 3465TIP3    H231887   6.242   3.288  16.217 -0.0037 -0.2047 -1.5604
 3466TIP3   OH231888   0.401   6.402  12.782  0.5499  0.8746 -0.1827
 3466TIP3    H131889   0.327   6.457  12.809 -0.7402 -0.5657 -0.6348
 3466TIP3    H231890   0.456   6.395  12.860 -0.3929  1.0488  0.5134
 3467TIP3   OH231891   2.813   1.822   1.688  0.0060 -0.2690  0.0076
 3467TIP3    H131892   2.829   1.852   1.778 -1.7307 -0.7863  0.5273
 3467TIP3    H231893   2.887   1.764   1.669  0.9945  0.7294  0.6624
 3468TIP3   OH231894   3.615   2.512  11.678 -0.0279 -0.0886  0.5227
 3468TIP3    H131895   3.631   2.585  11.738 -1.4396  0.8577 -0.2042
 3468TIP3    H231896   3.674   2.528  11.605 -0.3219  0.3318  0.3735
 3469TIP3   OH231897   0.966   4.300  14.498  0.1169  0.2831  0.0366
 3469TIP3    H131898   1.009   4.324  14.580  0.1881  0.8398 -0.1589
 3469TIP3    H231899   0.917   4.378  14.473  2.6510  1.3652 -2.0967
 3470TIP3   OH231900   0.042   1.968  16.023  0.3272 -0.0668 -0.5362
 3470TIP3    H131901   0.061   2.005  16.110  1.4083 -0.6100 -0.5216
 3470TIP3    H231902   0.060   1.875  16.033 -0.4278 -0.2794 -1.1129
 3471TIP3   OH231903   6.089   1.229   1.858 -0.3073  0.5379 -1.3369
 3471TIP3    H131904   6.071   1.142   1.822  0.4266 -0.0064 -0.4629
 3471TIP3    H231905   6.017   1.284   1.828 -1.1858 -0.5601 -1.2961
 3472TIP3   OH231906   1.100   4.034   5.368 -0.1681 -0.4132  0.4496
 3472TIP3    H131907   1.196   4.037   5.364 -0.0476 -0.3872  2.4927
 3472TIP3    H231908   1.075   4.117   5.407 -0.9906 -0.6562  0.4426
 3473TIP3   OH231909   2.266   4.582  11.336  0.0534 -0.0487  0.4643
 3473TIP3    H131910   2.352   4.609  11.368  1.7492  0.5235 -3.9316
 3473TIP3    H231911   2.213   4.662  11.337 -0.4216 -0.3081  2.7264
 3474TIP3   OH231912   4.619   1.760   5.877  0.1467  0.5991  0.2270
 3474TIP3    H131913   4.575   1.808   5.807 -0.6004 -0.4671 -0.0625
 3474TIP3    H231914   4.660   1.685   5.833 -3.2839 -2.1288  1.2496
 3475TIP3   OH231915   0.339   1.909   5.573 -0.0370 -0.1509 -0.8146
 3475TIP3    H131916   0.375   1.969   5.507 -1.2296  0.1199 -1.2359
 3475TIP3    H231917   0.338   1.960   5.653  1.0278 -0.3442 -0.6676
 3476TIP3   OH231918   1.492   3.832  16.897  0.1376  0.3349 -0.3916
 3476TIP3    H131919   1.519   3.874  16.978 -1.5462 -0.3743  0.5900
 3476TIP3    H231920   1.544   3.751  16.894 -0.4269 -0.0811  0.4790
 3477TIP3   OH231921   3.006   3.394   4.102  0.2812  0.7385 -0.2821
 3477TIP3    H131922   2.938   3.430   4.159  0.8525  0.5825  0.5118
 3477TIP3    H231923   3.005   3.450   4.024 -1.7340 -0.1184 -0.9362
 3478TIP3   OH231924   3.591   3.222   3.392  0.1607 -0.7632 -0.6000
 3478TIP3    H131925   3.602   3.202   3.485 -3.2108  1.1892  0.4032
 3478TIP3    H231926   3.536   3.152   3.358  0.8325 -1.1121 -0.9941
 3479TIP3   OH231927   1.416   6.074  11.131 -0.3414 -0.6885 -0.3471
 3479TIP3    H131928   1.381   5.997  11.086 -1.9573 -0.7021  0.8400
 3479TIP3    H231929   1.390   6.148  11.076 -0.2792 -0.8672 -0.6178
 3480TIP3   OH231930   2.088   2.556  15.418  0.4376  0.3565 -0.1542
 3480TIP3    H131931   2.031   2.541  15.493  0.3029 -2.4069 -0.7060
 3480TIP3    H231932   2.158   2.492  15.427  1.4670  1.2270 -1.4289
 3481TIP3   OH231933   3.418   3.967  14.780 -0.5558  0.3996 -0.2944
 3481TIP3    H131934   3.389   3.879  14.758  0.7114 -0.1497  0.1358
 3481TIP3    H231935   3.349   4.024  14.746 -1.1379 -0.7148 -1.0511
 3482TIP3   OH231936   2.292   0.040  12.040 -0.1252  0.2859 -0.0610
 3482TIP3    H131937   2.370  -0.011  12.061 -0.4350 -0.4504 -0.6735
 3482TIP3    H231938   2.258   0.001  11.960 -1.5799  0.0999  0.6171
 3483TIP3   OH231939   3.423   0.084  10.566  0.7713  0.6236  0.0475
 3483TIP3    H131940   3.499   0.108  10.619  0.2558  0.4060  0.9056
 3483TIP3    H231941   3.384   0.010  10.613 -0.4958  1.3168  0.1396
 3484TIP3   OH231942   3.025   6.466  15.784  0.3657 -0.4299 -0.6544
 3484TIP3    H131943   2.936   6.498  15.779 -0.1546 -1.1839  2.1920
 3484TIP3    H231944   3.077   6.529  15.734 -1.2394  2.1844  0.7880
 3485TIP3   OH231945   6.460   0.185  15.286  0.5582 -0.3111 -0.4277
 3485TIP3    H131946   6.539   0.232  15.258  1.4246 -1.0989  0.6517
 3485TIP3    H231947   6.390   0.249  15.274  1.3062  0.3348 -1.6064
 3486TIP3   OH231948   1.677   5.759  12.481  0.2077 -0.4443  0.1666
 3486TIP3    H131949   1.707   5.711  12.404 -0.3299  1.4295 -1.2939
 3486TIP3    H231950   1.718   5.846  12.473  0.2315 -0.2409  2.0696
 3487TIP3   OH231951   4.109   6.451  16.820  0.8726 -0.0356  0.4389
 3487TIP3    H131952   4.087   6.496  16.902  0.1415 -0.8714  0.7095
 3487TIP3    H231953   4.201   6.426  16.830  0.6488 -0.5791  1.2253
 3488TIP3   OH231954   6.526   6.049   1.943 -0.4389 -0.1274  0.3576
 3488TIP3    H131955   6.535   5.961   1.904  1.5557  0.5021 -0.7674
 3488TIP3    H231956   6.595   6.053   2.009  1.3030  1.4285 -1.4187
 3489TIP3   OH231957   4.432   0.424   5.814  0.0621 -0.3177  0.3179
 3489TIP3    H131958   4.366   0.385   5.757 -1.7215  0.8387  1.4823
 3489TIP3    H231959   4.383   0.456   5.889  1.8802  1.1866  0.9480
 3490TIP3   OH231960   2.540   2.397  11.648 -0.5571 -0.0062  0.8498
 3490TIP3    H131961   2.544   2.301  11.643 -0.8117 -0.0544  1.4549
 3490TIP3    H231962   2.549   2.416  11.741 -0.2629  0.5749  0.7040
 3491TIP3   OH231963   4.006   6.530  13.559  0.1995 -0.2990  0.3779
 3491TIP3    H131964   3.914   6.554  13.556  0.0038 -1.0563 -2.7222
 3491TIP3    H231965   4.053   6.610  13.537  0.1723 -0.3152  0.2603
 3492TIP3   OH231966   4.802   3.752  15.026 -0.1716 -0.1532 -0.4887
 3492TIP3    H131967   4.850   3.671  15.042 -1.5673 -0.8735  0.1885
 3492TIP3    H231968   4.766   3.741  14.937 -0.0444 -0.1044 -0.5475
 3493TIP3   OH231969   2.069   2.276  11.916 -0.5420 -0.2405 -0.1829
 3493TIP3    H131970   2.132   2.334  11.957  0.9728 -0.6806 -1.7915
 3493TIP3    H231971   2.005   2.334  11.876  0.5486  0.3243 -1.1495
 3494TIP3   OH231972   2.404   1.753   3.893 -0.1387 -0.4421 -0.1143
 3494TIP3    H131973   2.420   1.765   3.799  1.2064  0.3403  0.1869
 3494TIP3    H231974   2.388   1.842   3.926  3.1169 -0.1591  0.9952
 3495TIP3   OH231975   4.063   6.114  14.310  0.1169 -0.3472 -0.0160
 3495TIP3    H131976   3.973   6.136  14.286 -0.4865 -0.9164  1.6248
 3495TIP3    H231977   4.097   6.195  14.349  0.5155  0.0358 -1.1276
 3496TIP3   OH231978   1.992   4.943  12.287  0.0785  0.1405 -0.2715
 3496TIP3    H131979   2.034   4.893  12.217 -0.5420 -0.0705 -0.4971
 3496TIP3    H231980   1.930   5.000  12.242 -0.5424 -0.2128  0.1279
 3497TIP3   OH231981   4.497   5.320  12.062  0.1425 -0.2535  0.2757
 3497TIP3    H131982   4.549   5.378  12.117 -1.6191  0.8087  0.9146
 3497TIP3    H231983   4.559   5.255  12.029  2.0851  1.6223  0.0356
 3498TIP3   OH231984   5.982   2.305  15.049  0.4803 -0.2660 -0.1465
 3498TIP3    H131985   6.025   2.356  15.118  0.3614  0.0342 -0.2905
 3498TIP3    H231986   5.942   2.371  14.992 -0.6413 -0.5394  0.2835
 3499TIP3   OH231987   6.685   5.580   1.594 -0.1798 -0.1818 -0.1015
 3499TIP3    H131988   6.654   5.494   1.566  0.4729 -1.1141  1.8467
 3499TIP3    H231989   6.667   5.583   1.688  3.4438  0.1063  0.7409
 3500TIP3   OH231990   2.464   4.800   2.159 -0.6388  0.2765  0.0515
 3500TIP3    H131991   2.479   4.827   2.250  0.6516  0.3434 -0.1584
 3500TIP3    H231992   2.371   4.782   2.155 -0.7885  0.6324  1.2985
 3501TIP3   OH231993   2.625   1.553  16.594  0.0273 -0.1250  0.2128
 3501TIP3    H131994   2.564   1.571  16.523  0.2481 -0.3698 -0.0439
 3501TIP3    H231995   2.584   1.484  16.645 -0.0298 -0.1054  0.1926
 3502TIP3   OH231996   6.127   0.017   2.496 -0.0275  0.5317  0.8079
 3502TIP3    H131997   6.171  -0.043   2.436 -1.1520  0.3972  0.0796
 3502TIP3    H231998   6.078  -0.040   2.555 -0.1738  0.6975  0.8473
 3503TIP3   OH231999   0.177   6.477  11.308 -0.3891  0.0160  0.2841
 3503TIP3    H132000   0.200   6.385  11.306 -1.3465 -0.2380  0.0766
 3503TIP3    H232001   0.242   6.518  11.365 -0.0526 -0.8129  0.5026
 3504TIP3   OH232002   5.769   2.537   0.366 -0.2603 -0.3812 -0.4586
 3504TIP3    H132003   5.826   2.580   0.302  0.6265 -0.2021  0.4300
 3504TIP3    H232004   5.766   2.598   0.440  1.3154 -1.9347  0.9854
 3505TIP3   OH232005   4.745   2.956  11.892 -0.3165  0.3134 -0.4491
 3505TIP3    H132006   4.716   2.903  11.966  0.5929 -0.0074 -0.3062
 3505TIP3    H232007   4.667   2.966  11.838 -0.4458 -1.4634 -0.6515
 3506TIP3   OH232008   3.119   5.388   6.529  0.0759  0.2766  0.1601
 3506TIP3    H132009   3.089   5.360   6.616  1.2023  3.8864  1.9320
 3506TIP3    H232010   3.212   5.363   6.527  0.2128  0.7640  0.2947
 3507TIP3   OH232011   0.227   6.074   4.762  0.0646  0.6335 -0.3542
 3507TIP3    H132012   0.132   6.063   4.768 -0.0039  1.1323 -0.5484
 3507TIP3    H232013   0.261   6.011   4.825 -0.3471 -0.4819 -1.1955
 3508TIP3   OH232014   1.813   4.219  16.624  0.0862 -0.0406 -0.1825
 3508TIP3    H132015   1.854   4.232  16.539  2.3697 -1.6810  0.5771
 3508TIP3    H232016   1.781   4.306  16.648  1.7611  1.0326 -1.5581
 3509TIP3   OH232017   4.669   5.533   0.991 -0.3366  0.0875 -0.6828
 3509TIP3    H132018   4.613   5.473   0.942 -0.0338 -0.8493  0.0718
 3509TIP3    H232019   4.608   5.584   1.045 -0.5441 -0.2239 -0.6152
 3510TIP3   OH232020   0.936   2.882  16.213 -0.2897 -0.0933 -0.5433
 3510TIP3    H132021   0.952   2.975  16.225  2.3098 -0.3365 -1.4528
 3510TIP3    H232022   0.986   2.840  16.284  0.3802 -0.8331 -1.4215
 3511TIP3   OH232023   5.811   1.132  11.507 -0.2324 -0.3076  0.5378
 3511TIP3    H132024   5.731   1.126  11.560  0.0384  1.0203  1.1148
 3511TIP3    H232025   5.828   1.225  11.498  0.2064 -0.5205 -1.2064
 3512TIP3   OH232026   1.612   0.460   5.070 -0.3380 -0.0570 -0.3006
 3512TIP3    H132027   1.623   0.446   5.164  1.2075  1.6435 -0.1673
 3512TIP3    H232028   1.624   0.373   5.031  1.2572 -0.4416  0.9346
 3513TIP3   OH232029   6.473   5.639   2.273  0.8458 -0.0467 -0.0416
 3513TIP3    H132030   6.468   5.681   2.359  0.6803 -1.7749  0.8171
 3513TIP3    H232031   6.434   5.704   2.214 -3.1569 -0.4777  1.8084
 3514TIP3   OH232032   0.799   4.026  13.022  0.0049 -0.2974  0.4142
 3514TIP3    H132033   0.786   3.931  13.015  0.4348 -0.4986  1.9231
 3514TIP3    H232034   0.711   4.060  13.041  0.0358 -0.5322  1.0029
 3515TIP3   OH232035   0.371   2.712   0.472  0.3940  0.6251  0.0231
 3515TIP3    H132036   0.365   2.728   0.566  1.0701  0.3465  0.1183
 3515TIP3    H232037   0.420   2.631   0.465 -1.1075 -0.2666 -0.5295
 3516TIP3   OH232038   3.626   5.034  16.526 -0.4142  0.9012 -0.5197
 3516TIP3    H132039   3.686   5.022  16.600 -0.8427 -1.4216 -0.4787
 3516TIP3    H232040   3.640   5.125  16.498  1.3570  1.1490  1.0011
 3517TIP3   OH232041   2.443   0.241   2.872 -0.4714  0.0325  0.0872
 3517TIP3    H132042   2.466   0.154   2.904  1.5239 -0.1396 -1.5909
 3517TIP3    H232043   2.526   0.279   2.843 -1.7915  0.7855 -3.1698
 3518TIP3   OH232044   1.725   6.043  12.472  0.0056 -0.4602 -0.1155
 3518TIP3    H132045   1.794   6.108  12.462 -0.4510 -0.1982 -2.1559
 3518TIP3    H232046   1.665   6.081  12.535  0.8550  0.0869  0.3791
 3519TIP3   OH232047   0.912   0.352   4.490 -0.0098 -0.1384  0.4744
 3519TIP3    H132048   0.835   0.357   4.547 -0.9101 -0.8151 -0.6329
 3519TIP3    H232049   0.918   0.439   4.451 -0.8899 -0.3702 -0.2367
 3520TIP3   OH232050   4.385   5.511   2.311 -0.1744 -0.1108  0.7157
 3520TIP3    H132051   4.332   5.436   2.336 -1.3185 -0.2136 -1.7005
 3520TIP3    H232052   4.325   5.566   2.260  1.3631  1.0815  0.1252
 3521TIP3   OH232053   6.616   3.250   4.774  0.4959 -0.2669  0.0793
 3521TIP3    H132054   6.574   3.322   4.726  1.6370 -0.7143 -1.6339
 3521TIP3    H232055   6.592   3.171   4.726  2.0320 -0.6815 -0.0516
 3522TIP3   OH232056   6.071   3.504   0.845 -0.0167  0.0633 -1.1452
 3522TIP3    H132057   6.025   3.517   0.927  0.9524 -1.9036 -0.2252
 3522TIP3    H232058   6.002   3.499   0.779 -0.8173  1.3771 -0.4484
 3523TIP3   OH232059   2.660   2.073   5.731  0.1411  1.1695  0.1158
 3523TIP3    H132060   2.583   2.019   5.751  0.9872  0.3060  1.1657
 3523TIP3    H232061   2.634   2.124   5.655 -1.4603  0.8637  0.4186
 3524TIP3   OH232062   1.601   3.101  14.845 -0.1929  0.6317 -0.5381
 3524TIP3    H132063   1.641   3.155  14.912 -0.9158  2.7159 -1.7061
 3524TIP3    H232064   1.675   3.064  14.796  0.3174  1.0069 -0.0544
 3525TIP3   OH232065   4.479   1.933   0.101  0.2950  0.1826  0.1264
 3525TIP3    H132066   4.406   1.968   0.049 -0.0213 -0.0851  0.3844
 3525TIP3    H232067   4.496   2.000   0.167  0.8423  0.6219 -0.4490
 3526TIP3   OH232068   2.117   0.808   5.646 -0.2569  0.2082 -0.2443
 3526TIP3    H132069   2.111   0.778   5.736  0.4804 -1.4014 -0.7019
 3526TIP3    H232070   2.169   0.888   5.651  1.2149 -0.7551  0.6088
 3527TIP3   OH232071   6.023   2.170  13.601  0.2059 -0.1851  0.7388
 3527TIP3    H132072   6.035   2.077  13.580 -0.5189 -0.1115 -0.0765
 3527TIP3    H232073   6.112   2.205  13.604  0.4416 -0.5853 -0.5985
 3528TIP3   OH232074   5.581   3.856  11.642  0.4330  0.2128  0.3366
 3528TIP3    H132075   5.557   3.764  11.644  0.0810  0.2955  0.1146
 3528TIP3    H232076   5.510   3.900  11.690  0.1174  0.4645 -0.3476
 3529TIP3   OH232077   3.982   2.024  16.417 -0.3393 -0.2031 -0.5782
 3529TIP3    H132078   3.979   1.936  16.381 -0.2915 -0.4210 -0.0533
 3529TIP3    H232079   3.962   2.081  16.342  0.6540 -0.5911 -1.1601
 3530TIP3   OH232080   3.728   4.522  13.228  0.3579 -0.1547  0.2223
 3530TIP3    H132081   3.690   4.610  13.218 -1.8911 -1.1816 -1.0863
 3530TIP3    H232082   3.807   4.536  13.280 -0.1171  2.5886  0.3720
 3531TIP3   OH232083   2.739   1.596   4.215 -0.1154 -0.0395  0.7330
 3531TIP3    H132084   2.662   1.538   4.210 -0.3008  0.2938 -1.1398
 3531TIP3    H232085   2.726   1.647   4.294 -0.2379 -2.1312  2.1419
 3532TIP3   OH232086   0.943   1.880   1.336  0.8366  1.1242 -0.3742
 3532TIP3    H132087   0.936   1.888   1.241  0.4106 -1.2498 -0.6168
 3532TIP3    H232088   0.911   1.963   1.370 -3.3812  0.4790 -2.1867
 3533TIP3   OH232089   1.860   3.226   4.876  0.4524 -0.0971 -0.1318
 3533TIP3    H132090   1.849   3.303   4.931  0.4430  0.5189 -0.9672
 3533TIP3    H232091   1.808   3.158   4.918  1.0482  0.1393  1.0130
 3534TIP3   OH232092   1.733   2.685  16.982  0.5165  0.1109 -0.7160
 3534TIP3    H132093   1.815   2.674  16.935  0.5935 -2.5845 -0.1380
 3534TIP3    H232094   1.674   2.727  16.919  2.2444  2.0161 -1.1621
 3535TIP3   OH232095   2.479   0.081   6.095  0.5011 -0.0918  0.7913
 3535TIP3    H132096   2.532   0.161   6.104  1.5956 -0.3783 -2.0723
 3535TIP3    H232097   2.542   0.010   6.106  0.5288 -0.4507 -1.2696
 3536TIP3   OH232098   3.045   1.988   6.074  0.5551  0.7858 -0.0817
 3536TIP3    H132099   3.100   1.912   6.091  1.2000  1.3027  0.2162
 3536TIP3    H232100   3.089   2.033   6.002 -0.0859  0.6238 -0.5807
 3537TIP3   OH232101   3.222   4.342   0.603 -0.0986  0.2470  0.1424
 3537TIP3    H132102   3.224   4.341   0.507  0.4649 -1.1876  0.1390
 3537TIP3    H232103   3.230   4.435   0.626 -0.9703  0.6883 -1.1905
 3538TIP3   OH232104   0.290   2.215  12.327 -0.0215  0.1090 -0.7487
 3538TIP3    H132105   0.270   2.204  12.234 -0.0455  2.2558 -1.0535
 3538TIP3    H232106   0.235   2.288  12.355  0.8129  0.2232  0.6805
 3539TIP3   OH232107   2.632   1.125   3.868  0.0866  0.2246  0.8024
 3539TIP3    H132108   2.642   1.181   3.792  1.8290 -0.3960  0.5201
 3539TIP3    H232109   2.541   1.097   3.866 -0.0716  0.7631 -0.6609
 3540TIP3   OH232110   4.431   2.473   4.099 -0.3550  0.7593 -0.4488
 3540TIP3    H132111   4.411   2.481   4.192 -2.5336 -0.1911 -0.7514
 3540TIP3    H232112   4.421   2.561   4.064 -2.0826  0.7232 -0.1575
 3541TIP3   OH232113   2.740   6.188   5.143  0.0376  0.3568 -0.1739
 3541TIP3    H132114   2.722   6.240   5.221 -0.8851 -1.3635  0.8204
 3541TIP3    H232115   2.785   6.110   5.176 -2.1416 -1.3607 -1.0291
 3542TIP3   OH232116   1.787   0.847   3.795 -0.2134 -0.0865 -0.1626
 3542TIP3    H132117   1.714   0.788   3.777  0.9499 -1.0878 -1.8238
 3542TIP3    H232118   1.839   0.847   3.715  0.4215  2.3746  0.1528
 3543TIP3   OH232119   2.220   6.609  15.668  0.5829  0.1563  0.0198
 3543TIP3    H132120   2.204   6.702  15.653  0.8536  0.7230  2.6608
 3543TIP3    H232121   2.313   6.597  15.649  0.2608  0.0848 -1.6154
 3544TIP3   OH232122   0.647   3.778  15.523  0.0908 -0.1090  0.4487
 3544TIP3    H132123   0.629   3.847  15.587 -1.1881 -0.1459  0.1515
 3544TIP3    H232124   0.742   3.782  15.510  0.8334 -1.7392  4.1476
 3545TIP3   OH232125   0.762   3.956  11.823  0.2179 -0.2667  0.1993
 3545TIP3    H132126   0.679   3.988  11.787  1.3134  0.7422 -1.6156
 3545TIP3    H232127   0.790   4.025  11.884  0.4325  0.1467 -0.3530
 3546TIP3   OH232128   4.038   5.578   0.087 -0.0378  1.0167 -0.7211
 3546TIP3    H132129   4.116   5.615   0.044  0.4401  0.0763 -0.6795
 3546TIP3    H232130   4.031   5.627   0.169  1.6141 -0.1304  0.1451
 3547TIP3   OH232131   0.020   2.862  11.346 -0.0383  0.6443  0.7361
 3547TIP3    H132132   0.018   2.928  11.416  0.8804 -0.3304  1.7114
 3547TIP3    H232133   0.045   2.781  11.389  0.2250 -0.0643 -0.6713
 3548TIP3   OH232134   2.468   5.822  13.647 -0.0727 -0.3408  0.9389
 3548TIP3    H132135   2.421   5.882  13.588  2.2999  0.8972  0.1640
 3548TIP3    H232136   2.453   5.735  13.610 -3.2391 -0.2704  1.8244
 3549TIP3   OH232137   5.174   5.130  12.507 -0.3805  0.7469  0.1428
 3549TIP3    H132138   5.240   5.144  12.575 -0.0169  0.9351 -0.2379
 3549TIP3    H232139   5.165   5.035  12.501  0.8578  0.6493 -0.7161
 3550TIP3   OH232140   1.539   2.399   3.426  0.4466  0.0757  0.2810
 3550TIP3    H132141   1.595   2.346   3.482  0.3766 -1.1976 -0.7751
 3550TIP3    H232142   1.499   2.335   3.366 -0.4676  1.2141 -0.3669
 3551TIP3   OH232143   5.005   6.832  14.989 -0.1383  0.1356  0.1637
 3551TIP3    H132144   5.056   6.755  15.016  0.2250 -0.8430 -2.9189
 3551TIP3    H232145   5.064   6.881  14.931 -0.9822  1.8123  0.6487
 3552TIP3   OH232146   2.019   1.132   3.835 -0.3645 -0.2231 -0.1827
 3552TIP3    H132147   2.035   1.048   3.790 -1.2011  0.0114 -0.9457
 3552TIP3    H232148   1.940   1.117   3.885 -0.5588  0.1321 -0.3812
 3553TIP3   OH232149   0.515   3.124  15.917 -0.0142 -0.2860 -0.0674
 3553TIP3    H132150   0.590   3.148  15.971 -0.5267 -0.7695  0.8780
 3553TIP3    H232151   0.468   3.206  15.903  0.9976  0.1408 -1.1961
 3554TIP3   OH232152   2.496   3.737   3.617 -0.0703  0.0922  0.0293
 3554TIP3    H132153   2.506   3.655   3.666 -1.0811  0.2421  0.5126
 3554TIP3    H232154   2.557   3.729   3.544  2.3114  0.3353  1.8980
 3555TIP3   OH232155   3.742   2.872  14.873  0.3061  0.0553  0.1845
 3555TIP3    H132156   3.729   2.783  14.906  1.0932 -0.3531 -0.5610
 3555TIP3    H232157   3.685   2.878  14.797 -0.2641  0.4390  0.6269
 3556TIP3   OH232158   0.594   6.430  16.390  0.4041  0.4215 -0.3830
 3556TIP3    H132159   0.509   6.421  16.348  0.7464 -0.4673 -0.8929
 3556TIP3    H232160   0.656   6.392  16.328  1.0388  0.0127  0.4918
 3557TIP3   OH232161   3.409   5.448  16.106  0.1838 -0.4501  0.4839
 3557TIP3    H132162   3.420   5.535  16.066  1.5462 -0.2792  1.1633
 3557TIP3    H232163   3.376   5.393  16.035 -0.4075  0.5551 -0.0406
 3558TIP3   OH232164   2.106   0.741  13.823  0.0149  0.0252  0.5182
 3558TIP3    H132165   2.118   0.814  13.763 -1.3558 -0.4231 -0.3441
 3558TIP3    H232166   2.131   0.663  13.772  0.1296 -0.2421  0.9756
 3559TIP3   OH232167   4.008   3.038   5.317  0.2709  0.4983 -0.1546
 3559TIP3    H132168   3.964   2.953   5.324  0.6361  0.4227  3.8484
 3559TIP3    H232169   4.101   3.017   5.312  0.5385  0.4509  2.8096
 3560TIP3   OH232170   2.737   4.565  11.718  0.3069 -0.0941  0.0542
 3560TIP3    H132171   2.789   4.566  11.638 -1.5086 -1.1733 -1.2292
 3560TIP3    H232172   2.700   4.477  11.721 -0.7921  0.3857  1.3088
 3561TIP3   OH232173   0.689   1.376  13.318 -0.3099 -0.3619 -0.8805
 3561TIP3    H132174   0.606   1.406  13.355  0.3184 -2.0977  2.4056
 3561TIP3    H232175   0.754   1.437  13.354  0.2170 -1.4283  0.0270
 3562TIP3   OH232176   5.486   5.366   3.272 -0.1234  0.3973  0.2295
 3562TIP3    H132177   5.449   5.281   3.295 -2.1140  0.9167 -0.7966
 3562TIP3    H232178   5.579   5.358   3.292 -0.2302 -2.0396  0.0645
 3563TIP3   OH232179   2.904   4.667  12.482  0.2868 -0.1407  0.1739
 3563TIP3    H132180   2.982   4.712  12.449  1.3178 -1.9650 -0.0156
 3563TIP3    H232181   2.862   4.632  12.404 -0.7718  0.8362  0.2791
 3564TIP3   OH232182   0.366   1.705   4.179  0.1333  0.2697 -0.2161
 3564TIP3    H132183   0.365   1.766   4.105  0.2539 -0.2842 -0.6758
 3564TIP3    H232184   0.277   1.709   4.214 -0.1772 -0.1330 -0.9429
 3565TIP3   OH232185   1.308   0.885   0.523 -0.2181  0.1377  0.1929
 3565TIP3    H132186   1.401   0.899   0.510 -0.3872  0.2348 -0.9927
 3565TIP3    H232187   1.267   0.964   0.487 -0.8211 -0.4513 -0.4210
 3566TIP3   OH232188   0.173   1.270  14.267 -0.0202  0.6519 -0.0110
 3566TIP3    H132189   0.085   1.290  14.234 -0.2472 -2.7310 -1.8729
 3566TIP3    H232190   0.189   1.338  14.333 -4.0423  1.3983  0.4909
 3567TIP3   OH232191   4.712   0.147   0.546 -0.2925  0.0465  0.4444
 3567TIP3    H132192   4.712   0.225   0.490  0.7357  0.2842  0.7549
 3567TIP3    H232193   4.623   0.141   0.580 -0.1473  1.6149  1.1416
 3568TIP3   OH232194   5.132   5.022   6.114 -0.1162 -0.6327 -0.2514
 3568TIP3    H132195   5.175   4.958   6.170  1.1874 -1.8734 -2.5167
 3568TIP3    H232196   5.044   5.031   6.150  0.5045 -1.7004  1.6554
 3569TIP3   OH232197   3.342   4.236  11.974 -0.0287 -0.5109  0.5025
 3569TIP3    H132198   3.254   4.202  11.991 -0.7083 -0.5081 -2.3891
 3569TIP3    H232199   3.328   4.317  11.925  1.5544 -0.5089 -0.0289
 3570TIP3   OH232200   1.040   1.398  12.714  0.3887  0.0696  0.2352
 3570TIP3    H132201   1.126   1.381  12.754  0.6598 -1.1373 -0.7832
 3570TIP3    H232202   1.029   1.327  12.651 -1.6484 -0.1526  0.7748
 3571TIP3   OH232203   4.598   0.186   2.668 -0.1993 -0.0163  0.3503
 3571TIP3    H132204   4.676   0.182   2.723  0.2066 -1.0980 -0.2772
 3571TIP3    H232205   4.556   0.269   2.693  1.2861  0.7327  0.4944
 3572TIP3   OH232206   5.728   2.151  14.958  0.6120 -0.4021 -0.2014
 3572TIP3    H132207   5.799   2.115  15.010  0.9109  1.2718  0.6293
 3572TIP3    H232208   5.704   2.081  14.898  1.4994 -1.7493  0.9540
 3573TIP3   OH232209   1.938   2.306  15.033  0.2902 -0.8009  0.0377
 3573TIP3    H132210   2.012   2.251  15.006  0.3302 -0.7852  0.1167
 3573TIP3    H232211   1.925   2.286  15.125  0.7691 -0.1439  0.2572
 3574TIP3   OH232212   1.606   4.013   2.263 -0.6521  0.3813 -0.0805
 3574TIP3    H132213   1.563   4.066   2.196 -1.3756  0.2517  0.2779
 3574TIP3    H232214   1.663   4.074   2.310 -0.2638  0.5054 -0.7053
 3575TIP3   OH232215   6.419   2.314   5.916 -0.2794 -0.3756  0.4957
 3575TIP3    H132216   6.405   2.267   5.998 -1.8229 -0.4705  0.2217
 3575TIP3    H232217   6.477   2.258   5.865 -0.4708 -1.0120  0.9658
 3576TIP3   OH232218   1.567   4.597  11.407  0.2590  0.1061  0.4789
 3576TIP3    H132219   1.587   4.685  11.438 -1.1306 -0.0898  2.0843
 3576TIP3    H232220   1.555   4.546  11.487 -2.0390 -0.7906 -0.3416
 3577TIP3   OH232221   4.341   2.879   5.906  0.0579  0.0752  0.2412
 3577TIP3    H132222   4.321   2.914   5.993 -0.3483 -0.2638  0.2900
 3577TIP3    H232223   4.349   2.784   5.920  1.1787  0.1475  0.1192
 3578TIP3   OH232224   6.065   6.129  14.382 -0.5806  0.4769 -0.2003
 3578TIP3    H132225   6.030   6.193  14.444 -0.5798  0.2821  0.0058
 3578TIP3    H232226   6.069   6.048  14.432  0.1047  0.4809 -0.2351
 3579TIP3   OH232227   1.872   4.511  14.334 -0.3685 -0.0696 -0.0480
 3579TIP3    H132228   1.801   4.575  14.343 -0.7607 -0.4550 -0.3469
 3579TIP3    H232229   1.828   4.426  14.339  0.0922 -0.3121 -0.0934
 3580TIP3   OH232230   3.462   5.875  17.104  0.4851 -0.6991 -0.4816
 3580TIP3    H132231   3.462   5.918  17.019  2.1819 -1.0434 -0.6961
 3580TIP3    H232232   3.474   5.782  17.084  1.6356 -0.7041  0.1216
 3581TIP3   OH232233   6.133   4.636   1.202  0.0801  0.0002  0.6481
 3581TIP3    H132234   6.044   4.626   1.234  0.2978  1.9407  2.0309
 3581TIP3    H232235   6.188   4.621   1.279  0.8795 -0.0589  0.0772
 3582TIP3   OH232236   6.439   0.622  16.501 -0.3129 -0.4440 -0.0205
 3582TIP3    H132237   6.533   0.638  16.507 -0.7620  3.3979 -0.5500
 3582TIP3    H232238   6.413   0.663  16.419 -2.7894  1.2116  1.4504
 3583TIP3   OH232239   2.802   5.030  12.514  0.0365 -0.0714  0.1933
 3583TIP3    H132240   2.836   5.073  12.593 -1.7042 -0.5523  1.2431
 3583TIP3    H232241   2.770   4.945  12.544 -1.6329  0.1595 -0.8163
 3584TIP3   OH232242   5.918   4.502   2.680  0.9437 -0.0578 -0.5262
 3584TIP3    H132243   5.902   4.578   2.735  1.8451  1.0293 -1.7073
 3584TIP3    H232244   5.998   4.463   2.715  1.8047  0.9298 -1.3368
 3585TIP3   OH232245   4.725   3.424   5.048  0.3000 -0.3969  0.2849
 3585TIP3    H132246   4.778   3.495   5.011  0.8986 -0.6111  0.7027
 3585TIP3    H232247   4.651   3.467   5.089 -1.0002 -0.2175 -2.1127
 3586TIP3   OH232248   4.487   1.970  12.538 -0.0852  0.3540 -0.4341
 3586TIP3    H132249   4.408   2.025  12.536 -0.1045  0.3812  0.4730
 3586TIP3    H232250   4.456   1.884  12.508 -1.1834 -0.4438  2.5919
 3587TIP3   OH232251   4.724   1.185   3.110 -0.3856  0.5044  0.6010
 3587TIP3    H132252   4.654   1.144   3.160 -1.0648 -0.8497 -1.3603
 3587TIP3    H232253   4.785   1.114   3.090 -1.7104  0.2297 -3.0588
 3588TIP3   OH232254   2.893   3.159  11.592 -0.3073  0.4410  0.3805
 3588TIP3    H132255   2.838   3.226  11.552  0.9116  0.2244 -1.7958
 3588TIP3    H232256   2.974   3.204  11.613 -0.3871  0.1920  1.2907
 3589TIP3   OH232257   6.229   3.395  17.047 -0.1423  0.1282  0.6615
 3589TIP3    H132258   6.134   3.386  17.054 -0.2721  0.4329 -0.5278
 3589TIP3    H232259   6.259   3.311  17.013  0.2919 -0.7380  2.9561
 3590TIP3   OH232260   4.829   4.825   4.126 -0.0686  0.1981  0.3356
 3590TIP3    H132261   4.781   4.820   4.044  0.5909 -3.0401  0.0425
 3590TIP3    H232262   4.922   4.822   4.101  0.1695  0.1648  1.1657
 3591TIP3   OH232263   0.528   2.401  12.017  0.3722  0.5562 -0.3148
 3591TIP3    H132264   0.581   2.461  11.965  0.5111  0.9346  0.2472
 3591TIP3    H232265   0.580   2.386  12.096 -0.3257  0.8921  0.2194
 3592TIP3   OH232266   3.090   5.471  13.122 -0.0273 -0.1551 -0.4703
 3592TIP3    H132267   3.015   5.454  13.180 -1.7543 -0.1690 -2.5671
 3592TIP3    H232268   3.063   5.547  13.070  0.9540 -0.8308 -2.0215
 3593TIP3   OH232269   4.809   2.366   4.629 -0.2574  0.1073 -0.0352
 3593TIP3    H132270   4.787   2.316   4.550  1.0675 -0.0885 -0.2996
 3593TIP3    H232271   4.729   2.416   4.648 -0.5512  0.3211 -1.6285
 3594TIP3   OH232272   3.662   6.013  16.404  0.2179 -0.1744 -0.4341
 3594TIP3    H132273   3.657   5.992  16.498 -1.6975 -1.8825 -0.8430
 3594TIP3    H232274   3.755   6.003  16.382  0.3607 -2.1327  0.8057
 3595TIP3   OH232275   4.187   1.054  12.982  0.6815  0.0022  0.1912
 3595TIP3    H132276   4.183   0.964  13.016  0.6514 -0.7231 -1.6411
 3595TIP3    H232277   4.224   1.045  12.894 -0.3309  1.6757 -0.4493
 3596TIP3   OH232278   5.726   1.248  12.101  0.4230 -0.1077 -0.2906
 3596TIP3    H132279   5.806   1.294  12.125  0.6617 -0.6239 -0.0732
 3596TIP3    H232280   5.699   1.288  12.018  0.1442  0.9944  0.3181
 3597TIP3   OH232281   4.503   2.208  14.057 -0.1899 -0.6919 -0.6381
 3597TIP3    H132282   4.476   2.287  14.012 -1.0453 -0.7670 -0.2834
 3597TIP3    H232283   4.447   2.204  14.135  1.8804 -0.0661  0.9631
 3598TIP3   OH232284   3.314   5.437  12.082 -0.1844  0.0907 -0.0553
 3598TIP3    H132285   3.388   5.394  12.126  0.8346  1.0660 -0.7482
 3598TIP3    H232286   3.242   5.374  12.089  0.1959 -0.1614  2.1410
 3599TIP3   OH232287   0.309   2.254  10.859  0.0313  0.2256 -0.2412
 3599TIP3    H132288   0.362   2.176  10.846 -1.3169 -0.7145 -0.2857
 3599TIP3    H232289   0.312   2.300  10.775  0.6026  0.0849 -0.3022
 3600TIP3   OH232290   4.538   1.233  12.698 -0.0522  0.8113  0.9133
 3600TIP3    H132291   4.524   1.283  12.618  0.2532  2.6161  1.9223
 3600TIP3    H232292   4.481   1.275  12.762 -1.7953 -1.7993  1.2506
 3601TIP3   OH232293   3.674   1.186   0.588 -0.0994  0.2543  0.3296
 3601TIP3    H132294   3.669   1.110   0.646 -0.0205 -0.6213 -0.7920
 3601TIP3    H232295   3.657   1.152   0.501 -0.8237  1.6577 -0.1105
 3602TIP3   OH232296   5.233   1.279  14.219 -0.0491 -0.4567 -0.0620
 3602TIP3    H132297   5.158   1.286  14.279  0.5386  0.7368  0.5784
 3602TIP3    H232298   5.226   1.357  14.164  0.8896 -0.1833  0.2001
 3603TIP3   OH232299   0.021   2.527   0.054 -0.6521  0.7872  0.2041
 3603TIP3    H132300   0.014   2.464  -0.018  0.2894  1.6059 -0.6436
 3603TIP3    H232301   0.078   2.485   0.118  0.0019  0.7690 -0.3699
 3604TIP3   OH232302   1.646   1.736   3.076 -0.1884  0.2836  0.4225
 3604TIP3    H132303   1.611   1.659   3.121  1.5839 -0.7132  0.1982
 3604TIP3    H232304   1.703   1.778   3.140  0.0574  0.5393  0.0412
 3605TIP3   OH232305   3.282   0.177   0.187  0.5285  0.4345  0.0137
 3605TIP3    H132306   3.325   0.110   0.134  1.4741 -0.3505  1.6815
 3605TIP3    H232307   3.230   0.227   0.124  1.3387 -0.6224 -1.5893
 3606TIP3   OH232308   4.705   3.606  15.804  0.2164  0.7062  0.4852
 3606TIP3    H132309   4.776   3.545  15.822 -0.1399  0.7270  2.0886
 3606TIP3    H232310   4.639   3.554  15.758  1.8039  1.0220 -2.4335
 3607TIP3   OH232311   5.470   3.960  15.993  0.1208 -0.6666 -0.1569
 3607TIP3    H132312   5.444   4.052  15.989  0.7622 -0.4992 -0.6237
 3607TIP3    H232313   5.390   3.913  16.018  0.0249  0.1180  1.1294
 3608TIP3   OH232314   2.144   2.369  12.197 -0.3557 -0.0968  0.1304
 3608TIP3    H132315   2.174   2.282  12.224 -0.5629 -0.2983 -0.2918
 3608TIP3    H232316   2.223   2.423  12.199  0.3023 -0.8822 -2.0794
 3609TIP3   OH232317   5.332   4.891  14.008 -0.5056  0.2264 -0.4255
 3609TIP3    H132318   5.334   4.898  14.104 -2.0937 -0.5987 -0.2896
 3609TIP3    H232319   5.382   4.812  13.989  0.3427  0.7338 -0.3380
 3610TIP3   OH232320   6.336   6.446  16.880 -0.0185 -0.3630 -0.5827
 3610TIP3    H132321   6.275   6.495  16.825  0.8443  0.8993 -0.4471
 3610TIP3    H232322   6.279   6.394  16.937 -1.1198  2.4318  1.0760
 3611TIP3   OH232323   5.203   3.210  15.415 -0.0001 -0.2222 -0.4949
 3611TIP3    H132324   5.287   3.245  15.386  0.5910 -1.6154 -0.5371
 3611TIP3    H232325   5.188   3.133  15.360 -1.4491  0.1478 -0.6711
 3612TIP3   OH232326   4.466   3.125  15.246  0.2512  0.4399  0.5849
 3612TIP3    H132327   4.374   3.104  15.262 -0.0277  1.8924  1.0755
 3612TIP3    H232328   4.469   3.151  15.154  0.6238 -1.7184 -0.0624
 3613TIP3   OH232329   3.975   3.253   2.981  0.0441  0.7035 -0.0768
 3613TIP3    H132330   3.982   3.173   3.033  0.0118  0.4597 -0.4405
 3613TIP3    H232331   3.915   3.309   3.030 -2.1566 -0.5932 -1.1576
 3614TIP3   OH232332   4.290   0.523   2.843 -0.2303 -0.2940  0.0959
 3614TIP3    H132333   4.378   0.558   2.853  0.3765 -1.4841 -0.7557
 3614TIP3    H232334   4.295   0.434   2.879 -1.0568 -0.4068 -0.0288
 3615TIP3   OH232335   5.128   3.961   4.280  0.1686 -0.5253 -0.5646
 3615TIP3    H132336   5.213   3.935   4.316 -0.5504  0.9175  2.5499
 3615TIP3    H232337   5.065   3.905   4.327 -0.6970 -0.7793 -1.9848
 3616TIP3   OH232338   0.048   0.500  13.472 -0.2590 -0.1004  0.0141
 3616TIP3    H132339   0.076   0.411  13.455 -0.8382 -0.0816 -1.2004
 3616TIP3    H232340  -0.016   0.519  13.403  0.0110  1.3219  0.1084
 3617TIP3   OH232341   6.435   0.157   3.026 -0.3188  0.0677 -0.3011
 3617TIP3    H132342   6.346   0.166   2.992  0.0856  2.1876 -1.0128
 3617TIP3    H232343   6.485   0.121   2.952 -0.5397 -1.0199  0.0634
 3618TIP3   OH232344   4.950   2.228  11.828  0.7920  0.4114 -0.0653
 3618TIP3    H132345   4.962   2.133  11.829  0.0315  0.2741 -1.4035
 3618TIP3    H232346   4.935   2.252  11.920  0.8885 -0.7696  0.2675
 3619TIP3   OH232347   6.107   6.071   3.544 -0.1103 -0.2508  0.4239
 3619TIP3    H132348   6.069   6.153   3.514  1.0005  0.1742  0.1259
 3619TIP3    H232349   6.035   6.025   3.588 -1.2248  0.0551 -1.0130
 3620TIP3   OH232350   1.160   1.045   1.392 -0.6233 -0.0637 -0.2616
 3620TIP3    H132351   1.198   1.130   1.416  0.0108 -0.5886  0.6162
 3620TIP3    H232352   1.122   1.012   1.473  0.4410 -1.2920 -0.2453
 3621TIP3   OH232353   1.891   3.462   3.549  0.2754  0.7107 -0.0087
 3621TIP3    H132354   1.866   3.410   3.625  0.4764  2.3483  1.2309
 3621TIP3    H232355   1.985   3.449   3.540  0.2986  0.7379  0.2025
 3622TIP3   OH232356   4.160   3.925   4.885 -0.3014 -0.4292 -0.2349
 3622TIP3    H132357   4.234   3.922   4.945  0.0469  2.4841 -0.4080
 3622TIP3    H232358   4.084   3.907   4.941  0.2679 -0.6313  0.4945
 3623TIP3   OH232359   5.016   6.362   6.060 -0.3676  0.2677  0.5297
 3623TIP3    H132360   5.060   6.428   6.114 -0.8865  0.5350  0.6332
 3623TIP3    H232361   4.932   6.349   6.103 -1.5199  1.7303 -1.1435
 3624TIP3   OH232362   0.806   2.959  15.111  0.1706 -0.0174  0.4804
 3624TIP3    H132363   0.806   2.868  15.141 -0.6908  0.1921  1.1645
 3624TIP3    H232364   0.755   3.006  15.177  1.1228  1.0833  0.4765
 3625TIP3   OH232365   3.143   2.166  14.227 -0.0430  0.1117 -0.3599
 3625TIP3    H132366   3.155   2.161  14.132 -0.9295  1.4561 -0.5677
 3625TIP3    H232367   3.061   2.119  14.243  0.2257 -0.3125 -0.2313
 3626TIP3   OH232368   6.469   4.718   0.063 -0.0733  0.2901  0.6067
 3626TIP3    H132369   6.429   4.692   0.146 -0.6365 -0.4683  0.1009
 3626TIP3    H232370   6.539   4.654   0.049 -1.3477 -0.8860 -0.5508
 3627TIP3   OH232371   0.486   0.764   3.197  0.1105 -0.7076 -0.0879
 3627TIP3    H132372   0.545   0.755   3.122 -1.1042 -0.1044 -1.1471
 3627TIP3    H232373   0.521   0.839   3.246 -1.2385  1.4400 -2.1860
 3628TIP3   OH232374   5.613   0.837   6.508 -0.4169  0.1574 -0.4041
 3628TIP3    H132375   5.669   0.858   6.582  0.4918 -2.5106 -0.2134
 3628TIP3    H232376   5.673   0.808   6.439 -1.4172 -0.5141 -1.0311
 3629TIP3   OH232377   3.029   5.066  14.222  0.5492  0.0577  0.3847
 3629TIP3    H132378   3.006   5.150  14.182 -0.9558 -0.5702 -0.1139
 3629TIP3    H232379   2.976   5.062  14.302  1.7428  0.2265  1.2185
 3630TIP3   OH232380   2.542   6.145  16.173  0.1554 -0.5137 -0.0773
 3630TIP3    H132381   2.553   6.062  16.219  0.1283 -0.7198 -0.4368
 3630TIP3    H232382   2.626   6.159  16.128  0.0420 -0.5148 -0.2886
 3631TIP3   OH232383   3.762   2.265  15.527 -0.6127 -0.1750 -0.0360
 3631TIP3    H132384   3.745   2.253  15.620 -0.7232  1.7276  0.2278
 3631TIP3    H232385   3.725   2.187  15.485 -0.5821 -1.0415  1.4961
 3632TIP3   OH232386   5.122   3.258   0.510 -0.1787  0.4215 -0.2140
 3632TIP3    H132387   5.115   3.163   0.513 -2.0770  0.3848 -2.4823
 3632TIP3    H232388   5.031   3.288   0.515  0.3550  2.1118 -0.0670
 3633TIP3   OH232389   3.074   6.727  12.312 -0.3082  0.2399 -0.0830
 3633TIP3    H132390   3.034   6.735  12.399 -1.1314  0.6503 -0.4925
 3633TIP3    H232391   3.038   6.800  12.262 -0.3933 -0.4093 -0.9943
 3634TIP3   OH232392   6.095   1.010  11.195  0.2913  0.6188 -0.8498
 3634TIP3    H132393   6.189   1.027  11.200  0.6916 -1.2428 -1.1313
 3634TIP3    H232394   6.089   0.919  11.163 -1.6007  0.6814 -0.7907
 3635TIP3   OH232395   4.828   1.108   0.749 -0.7786 -0.1756 -0.2179
 3635TIP3    H132396   4.876   1.098   0.831 -1.8925 -1.4584  0.3288
 3635TIP3    H232397   4.759   1.172   0.769  0.8410  1.9673 -1.1119
 3636TIP3   OH232398   2.649   3.837  11.799  0.6188  0.6151  0.3914
 3636TIP3    H132399   2.581   3.811  11.737  0.4619 -0.2563  0.9145
 3636TIP3    H232400   2.731   3.807  11.760  0.5891  0.6536  0.2998
 3637TIP3   OH232401   5.994   1.920  13.195 -0.0657  0.0770 -0.0619
 3637TIP3    H132402   5.963   1.950  13.280 -2.1990  0.4441 -0.9061
 3637TIP3    H232403   5.968   1.990  13.134  3.1487  0.7968 -0.8390
 3638TIP3   OH232404   4.551   2.122   2.763 -0.3161  0.4381  0.4363
 3638TIP3    H132405   4.579   2.032   2.778  0.4736  0.3790 -1.1825
 3638TIP3    H232406   4.630   2.175   2.776 -0.6107  0.8182  0.6932
 3639TIP3   OH232407   0.858   4.300   5.220  0.2007  0.4611 -0.4636
 3639TIP3    H132408   0.869   4.285   5.126  2.9049  1.2722 -0.3635
 3639TIP3    H232409   0.835   4.392   5.227 -0.2186  0.3476 -0.3234
 3640TIP3   OH232410   3.123   3.575  14.348 -0.2770  0.2021  0.2169
 3640TIP3    H132411   3.046   3.574  14.290 -0.2828 -0.0380  0.2271
 3640TIP3    H232412   3.186   3.631  14.303  0.3388 -1.2640 -0.8370
 3641TIP3   OH232413   5.949   2.668   2.836  0.5856  0.1995  0.1913
 3641TIP3    H132414   5.972   2.575   2.834  1.6551  0.4254  1.1017
 3641TIP3    H232415   5.917   2.683   2.925 -0.6569  0.4709 -0.2868
 3642TIP3   OH232416   3.773   6.175  12.753 -0.9854  0.6013 -0.5573
 3642TIP3    H132417   3.857   6.217  12.737 -0.3333 -0.1953  0.6656
 3642TIP3    H232418   3.763   6.176  12.848 -0.8491 -2.0962 -0.4252
 3643TIP3   OH232419   4.531   1.618  14.925 -0.0366  0.1027  0.5602
 3643TIP3    H132420   4.613   1.668  14.935 -0.3949  1.2560 -1.5839
 3643TIP3    H232421   4.514   1.620  14.831 -2.9959  0.6588  1.0063
 3644TIP3   OH232422   5.059   6.336   2.144 -0.1613  0.9491 -0.5493
 3644TIP3    H132423   5.151   6.352   2.167 -0.9198  2.2236  1.9970
 3644TIP3    H232424   5.062   6.308   2.053  2.9007 -0.8367 -0.0471
 3645TIP3   OH232425   4.568   3.369  13.408  0.9586  0.5630  0.5976
 3645TIP3    H132426   4.550   3.458  13.437  0.2995  0.8086 -0.5147
 3645TIP3    H232427   4.502   3.316  13.452  0.3512  0.8495  0.0573
 3646TIP3   OH232428   1.608   3.582  16.887 -0.6500  0.9331  0.2187
 3646TIP3    H132429   1.654   3.499  16.897 -1.3794  0.3005 -1.3003
 3646TIP3    H232430   1.551   3.588  16.963  0.1483  0.5504  0.8607
 3647TIP3   OH232431   5.742   1.261  10.996 -0.2915 -0.0022  0.2520
 3647TIP3    H132432   5.761   1.352  11.021  0.4394  0.6873 -2.4480
 3647TIP3    H232433   5.782   1.209  11.065  1.8464  1.7022  0.4241
 3648TIP3   OH232434   6.220   1.319  13.873  0.1131 -0.1279  0.5297
 3648TIP3    H132435   6.225   1.233  13.830  0.8057 -0.2105  0.7588
 3648TIP3    H232436   6.216   1.381  13.800 -0.0717 -0.3348  0.3602
 3649TIP3   OH232437   5.712   0.468  16.407 -0.4800  0.0990  0.4465
 3649TIP3    H132438   5.633   0.515  16.380 -0.4045  1.5087  2.4513
 3649TIP3    H232439   5.695   0.443  16.498  0.0120 -2.7351 -0.1515
 3650TIP3   OH232440   5.261   6.079   3.195  0.0045  0.4947 -0.6244
 3650TIP3    H132441   5.170   6.049   3.202  0.8887 -2.2096  0.6444
 3650TIP3    H232442   5.283   6.065   3.102  0.2198 -2.7356 -0.2162
 3651TIP3   OH232443   2.777   5.096  13.681 -0.1126 -0.3993  0.7145
 3651TIP3    H132444   2.862   5.062  13.653  1.1574  1.2631  2.2961
 3651TIP3    H232445   2.777   5.086  13.776 -2.5833 -2.1920  0.6074
 3652TIP3   OH232446   5.221   3.805   0.433 -0.4434  0.2944  0.2051
 3652TIP3    H132447   5.289   3.842   0.377 -0.2526  0.1750  0.3580
 3652TIP3    H232448   5.149   3.868   0.429 -0.5159  0.1778 -0.3472
 3653TIP3   OH232449   1.429   1.484  17.075  0.2498 -0.1337  0.0285
 3653TIP3    H132450   1.506   1.540  17.091  0.7647 -0.7005 -0.3977
 3653TIP3    H232451   1.464   1.395  17.077  0.1956 -0.3419 -3.0364
 3654TIP3   OH232452   2.078   4.259   3.648  0.2752 -0.0687 -0.4998
 3654TIP3    H132453   2.109   4.298   3.567  1.2692 -0.4803 -0.3305
 3654TIP3    H232454   2.060   4.333   3.706 -1.5074  0.2754 -1.4527
 3655TIP3   OH232455   2.358   4.584   4.114  0.6001 -0.4723 -0.4791
 3655TIP3    H132456   2.293   4.645   4.080 -0.1616 -1.8387 -1.5518
 3655TIP3    H232457   2.347   4.589   4.209  0.2419  0.6913 -0.5591
 3656TIP3   OH232458   2.170   1.027   2.834 -0.0595 -0.1584 -0.0014
 3656TIP3    H132459   2.215   0.943   2.843 -1.0139 -0.6784  0.0864
 3656TIP3    H232460   2.109   1.013   2.762  0.5095  0.8070 -0.6940
 3657TIP3   OH232461   0.693   3.838  11.138 -0.4442 -0.6457  0.2303
 3657TIP3    H132462   0.675   3.754  11.096 -0.2689  0.1066 -1.4230
 3657TIP3    H232463   0.641   3.901  11.089  0.6289  0.4364  0.4443
 3658TIP3   OH232464   2.495   4.747   1.732  0.5025  0.0207  0.2641
 3658TIP3    H132465   2.559   4.761   1.802  0.5186  0.2233  0.2111
 3658TIP3    H232466   2.491   4.652   1.721  1.6799  0.0405 -0.5539
 3659TIP3   OH232467   5.734   6.774   3.777  0.0112 -0.7758 -0.0624
 3659TIP3    H132468   5.716   6.868   3.774  0.3988 -0.7108 -0.6828
 3659TIP3    H232469   5.812   6.766   3.832  0.0983 -0.7079 -0.1742
 3660TIP3   OH232470   1.891   1.943  11.393 -0.6080 -0.6717 -0.2134
 3660TIP3    H132471   1.933   1.950  11.307 -0.1185 -0.8484  0.0036
 3660TIP3    H232472   1.909   1.853  11.420  0.6317 -0.1608  0.7654
 3661TIP3   OH232473   6.790   2.396  16.925  0.3159 -0.0972 -0.0067
 3661TIP3    H132474   6.752   2.355  16.847  3.5132 -0.8365 -1.3354
 3661TIP3    H232475   6.795   2.325  16.989 -1.2955  0.2471  0.5601
 3662TIP3   OH232476   4.057   3.765  11.986  0.7675  0.2118 -0.8927
 3662TIP3    H132477   4.030   3.853  11.960 -1.6721 -0.2826 -0.3336
 3662TIP3    H232478   3.991   3.738  12.051  1.0996 -2.2348 -1.4543
 3663TIP3   OH232479   0.597   1.775   4.817  0.2591 -0.4897  0.1280
 3663TIP3    H132480   0.515   1.819   4.795  0.4328  0.5782  1.4954
 3663TIP3    H232481   0.664   1.844   4.814  0.7390 -0.8846  1.1445
 3664TIP3   OH232482   2.935   4.774  14.766  0.7022  0.0845  0.3247
 3664TIP3    H132483   2.871   4.704  14.780 -0.1022  0.1202 -2.5271
 3664TIP3    H232484   2.884   4.844  14.726  2.2278  0.8182 -0.3822
 3665TIP3   OH232485   5.550   1.509   3.626  0.1182  0.2680 -0.1372
 3665TIP3    H132486   5.548   1.547   3.538  0.1676 -0.4845 -0.4695
 3665TIP3    H232487   5.638   1.471   3.633 -0.0791 -0.1608  0.0284
 3666TIP3   OH232488   0.197   2.173   3.460 -0.9879 -0.7380 -0.2462
 3666TIP3    H132489   0.122   2.222   3.493 -0.6770 -0.9808  0.8754
 3666TIP3    H232490   0.256   2.240   3.424 -0.9141 -0.3603  0.5617
 3667TIP3   OH232491   0.958   3.179   4.070  0.2078  0.3020 -0.1541
 3667TIP3    H132492   1.020   3.195   4.140 -1.2776  0.8792  1.0810
 3667TIP3    H232493   0.872   3.177   4.113 -0.7211  0.3244 -1.8921
 3668TIP3   OH232494   2.309   3.056  12.742 -0.7584 -0.1158 -0.1880
 3668TIP3    H132495   2.284   3.005  12.665  1.4198  0.4134 -1.3232
 3668TIP3    H232496   2.366   3.125  12.708  1.4908 -0.7289  2.0378
 3669TIP3   OH232497   6.591   6.657   3.688 -0.6448 -0.1946 -0.3491
 3669TIP3    H132498   6.582   6.734   3.630 -1.7230 -0.7808 -0.9960
 3669TIP3    H232499   6.503   6.619   3.690  0.2514 -2.5377 -1.6490
 3670TIP3   OH232500   5.575   5.707   4.324 -0.4131  0.0205 -0.2076
 3670TIP3    H132501   5.617   5.792   4.306  0.9266 -1.0244 -2.4254
 3670TIP3    H232502   5.613   5.648   4.259 -1.7064 -2.1804  0.9501
 3671TIP3   OH232503   1.209   6.264  10.724 -0.0295 -0.6790  0.1667
 3671TIP3    H132504   1.184   6.297  10.637  0.7107 -0.8136 -0.1011
 3671TIP3    H232505   1.170   6.177  10.728 -2.6944  0.4300  1.1888
 3672TIP3   OH232506   6.635   2.762   1.597 -0.1674 -0.0452  0.0797
 3672TIP3    H132507   6.551   2.794   1.564  0.4967  0.0192 -1.6982
 3672TIP3    H232508   6.642   2.673   1.562  0.3443 -0.1841  0.5241
 3673TIP3   OH232509   0.820   3.107  10.881  0.2119  0.3747 -0.5150
 3673TIP3    H132510   0.804   3.198  10.906  2.6457  0.6059  0.5243
 3673TIP3    H232511   0.912   3.105  10.856 -0.2305 -1.4876 -2.2501
 3674TIP3   OH232512   0.855   4.674  14.662 -0.2529  0.0863  0.5101
 3674TIP3    H132513   0.798   4.627  14.601 -0.1022  1.4136 -0.7214
 3674TIP3    H232514   0.822   4.763  14.661 -0.9886 -0.0871  3.3459
 3675TIP3   OH232515   2.575   5.508   2.384  0.0936  0.1756  0.3090
 3675TIP3    H132516   2.574   5.589   2.436 -0.3298  0.3466  0.0387
 3675TIP3    H232517   2.603   5.441   2.446 -0.2774  0.3990  0.7318
 3676TIP3   OH232518   5.541   3.665  16.083  0.4975 -0.3420 -0.0257
 3676TIP3    H132519   5.522   3.683  16.175 -2.0201  1.6525 -0.8094
 3676TIP3    H232520   5.573   3.748  16.048 -0.8483 -0.3609 -1.4204
 3677TIP3   OH232521   1.297   1.887  12.293  0.2529  0.2156  0.0163
 3677TIP3    H132522   1.221   1.835  12.319  1.0907 -0.1917  1.8025
 3677TIP3    H232523   1.339   1.835  12.224 -0.3506 -0.1991 -0.0503
 3678TIP3   OH232524   2.593   4.683   4.307 -0.9247  0.0629  0.0562
 3678TIP3    H132525   2.599   4.637   4.223  0.6899 -0.8629  0.6185
 3678TIP3    H232526   2.657   4.753   4.300  0.2924 -0.9094  0.9951
 3679TIP3   OH232527   2.331   0.106   3.154 -0.2869  0.0017  0.1676
 3679TIP3    H132528   2.416   0.128   3.192  0.1976 -0.9282 -0.3397
 3679TIP3    H232529   2.351   0.082   3.063 -1.4380  2.4030 -0.8121
 3680TIP3   OH232530   5.308   6.811   0.331 -0.4821 -0.3333 -0.2321
 3680TIP3    H132531   5.260   6.807   0.414  0.2642 -1.1676  0.1766
 3680TIP3    H232532   5.263   6.748   0.274 -1.9523  1.3410 -1.0177
 3681TIP3   OH232533   1.361   5.066   0.277  0.3093  0.0807 -0.2176
 3681TIP3    H132534   1.272   5.097   0.261  0.6109  0.7977 -0.5499
 3681TIP3    H232535   1.416   5.144   0.265  1.1535 -0.6854 -1.6244
 3682TIP3   OH232536   3.883   6.630   3.710 -0.5484 -0.2051  0.0150
 3682TIP3    H132537   3.945   6.592   3.772 -0.9628  0.1331  0.6466
 3682TIP3    H232538   3.820   6.677   3.765 -1.0951 -0.1542 -0.6463
 3683TIP3   OH232539   6.374   1.133  11.670 -0.0678 -0.1147  0.1290
 3683TIP3    H132540   6.312   1.079  11.621 -1.2800 -0.2888  1.7465
 3683TIP3    H232541   6.321   1.170  11.741  1.7208 -0.3983  1.6782
 3684TIP3   OH232542   2.201   3.871  16.955 -0.0709 -0.1884  0.6328
 3684TIP3    H132543   2.116   3.856  16.997 -1.1885 -0.4219 -1.6165
 3684TIP3    H232544   2.180   3.901  16.867  2.1964  1.5360  0.5807
 3685TIP3   OH232545   1.839   2.167  11.717 -0.2158  0.2817 -0.0624
 3685TIP3    H132546   1.817   2.222  11.642  0.3948  0.6666  0.0362
 3685TIP3    H232547   1.933   2.150  11.708 -0.2882 -0.3049  0.2029
 3686TIP3   OH232548   2.111   3.000  16.630 -0.1690  0.0976  0.3226
 3686TIP3    H132549   2.157   3.063  16.684  1.4836 -0.2457 -0.6182
 3686TIP3    H232550   2.076   3.052  16.557 -0.7134  0.2602  0.6991
 3687TIP3   OH232551   5.201   2.143   1.815 -0.1222 -0.0312 -0.9046
 3687TIP3    H132552   5.260   2.079   1.775 -0.3309 -0.0732 -1.1452
 3687TIP3    H232553   5.187   2.209   1.747 -0.2782  0.0278 -0.8172
 3688TIP3   OH232554   6.495   3.340   3.196 -0.0568  0.2420 -0.1794
 3688TIP3    H132555   6.439   3.349   3.273 -1.2615 -0.2446 -0.9761
 3688TIP3    H232556   6.558   3.412   3.204 -0.9933  1.0135  0.5628
 3689TIP3   OH232557   2.267   1.538   5.872 -0.2137  0.2333 -0.0400
 3689TIP3    H132558   2.181   1.499   5.853  1.3790 -3.5688 -0.3468
 3689TIP3    H232559   2.268   1.549   5.967 -0.4366 -1.5053  0.1991
 3690TIP3   OH232560   5.987   1.636  11.963  0.0159  0.0099 -0.2947
 3690TIP3    H132561   5.968   1.619  12.056  0.0939 -0.5768 -0.3791
 3690TIP3    H232562   6.046   1.711  11.964  0.3681 -0.2661  0.1581
 3691TIP3   OH232563   6.536   4.257  11.133 -0.1450 -0.3031  0.2070
 3691TIP3    H132564   6.514   4.339  11.088 -0.6953  0.8215  2.3976
 3691TIP3    H232565   6.575   4.203  11.064 -0.4872  1.4735 -1.5072
 3692TIP3   OH232566   2.172   6.738   2.922 -0.2008 -0.0127 -0.0391
 3692TIP3    H132567   2.264   6.748   2.899 -0.3425  1.2369 -0.0890
 3692TIP3    H232568   2.170   6.658   2.975  0.7188 -0.7316 -1.0227
 3693TIP3   OH232569   6.337   1.523   5.109 -0.1760  0.0252 -0.4542
 3693TIP3    H132570   6.305   1.458   5.047 -2.4052  0.2465  0.3822
 3693TIP3    H232571   6.327   1.481   5.195  1.4164  0.2921 -0.1054
 3694TIP3   OH232572   6.588   1.380   1.386  0.0034  0.4885  0.2302
 3694TIP3    H132573   6.536   1.350   1.460  0.8330  1.6598  1.3386
 3694TIP3    H232574   6.525   1.421   1.327 -0.7803 -1.1913 -0.1323
 3695TIP3   OH232575   4.319   6.127  12.354  0.2793 -0.2801 -0.0228
 3695TIP3    H132576   4.374   6.203  12.335  1.0817 -0.4434  1.4599
 3695TIP3    H232577   4.305   6.085  12.269  0.4667  1.0838 -0.7573
 3696TIP3   OH232578   6.150   0.853   3.382 -0.2744 -0.1738 -0.0948
 3696TIP3    H132579   6.058   0.879   3.368 -1.9119 -3.0084  3.6028
 3696TIP3    H232580   6.183   0.918   3.444  1.4192  2.6024 -3.6107
 3697TIP3   OH232581   3.374   2.848  16.170 -0.4028  0.3768  0.4705
 3697TIP3    H132582   3.378   2.769  16.117  0.5022 -0.3650  1.5927
 3697TIP3    H232583   3.313   2.827  16.240 -0.8598  1.0058  0.2695
 3698TIP3   OH232584   6.158   4.429  15.194 -0.4527 -0.2112 -0.4800
 3698TIP3    H132585   6.181   4.455  15.105 -1.0316  0.6421 -0.3976
 3698TIP3    H232586   6.066   4.404  15.188 -0.0216 -1.9390 -0.4714
 3699TIP3   OH232587   1.424   2.634   3.535  1.0569 -0.4545 -0.0758
 3699TIP3    H132588   1.390   2.585   3.610 -0.7221 -1.5055 -1.4842
 3699TIP3    H232589   1.451   2.566   3.473  1.3560  0.3777 -0.8713
 3700TIP3   OH232590   3.293   3.698  14.155  0.0453 -0.3448  0.3013
 3700TIP3    H132591   3.341   3.623  14.118  0.7194 -0.3115  1.1017
 3700TIP3    H232592   3.360   3.760  14.180 -0.5126  0.5026 -0.2649
 3701TIP3   OH232593   1.494   6.669  15.078 -0.0135  0.0868 -1.1802
 3701TIP3    H132594   1.489   6.577  15.052  2.5138 -0.4477 -0.0633
 3701TIP3    H232595   1.433   6.678  15.150  1.7942 -1.5394  0.6638
 3702TIP3   OH232596   2.258   2.715   1.595 -0.1243 -0.1790  0.3592
 3702TIP3    H132597   2.348   2.684   1.583 -0.0434  0.0465  0.3707
 3702TIP3    H232598   2.217   2.702   1.510  0.5453  1.7302 -0.3128
 3703TIP3   OH232599   1.871   2.992   5.123 -0.4506  0.2218 -0.2728
 3703TIP3    H132600   1.796   2.933   5.117 -1.0756  1.0341 -0.5476
 3703TIP3    H232601   1.928   2.952   5.189 -1.4676 -0.0301  0.4659
 3704TIP3   OH232602   5.835   4.479   1.011 -0.2588 -0.2035 -0.1665
 3704TIP3    H132603   5.779   4.409   1.045 -1.7377  0.5476 -0.9620
 3704TIP3    H232604   5.776   4.554   1.001  1.1865  1.0470  0.2585
 3705TIP3   OH232605   1.196   4.923  12.560 -0.3356  0.9761  0.0579
 3705TIP3    H132606   1.190   5.010  12.600 -1.1559  0.5309  0.9346
 3705TIP3    H232607   1.130   4.871  12.605  0.2066 -0.1373 -0.3920
 3706TIP3   OH232608   3.227   4.165  14.722  0.2442  0.1754 -0.3606
 3706TIP3    H132609   3.221   4.258  14.745  0.8718  0.5273 -1.5423
 3706TIP3    H232610   3.137   4.133  14.731  0.2309  0.5600  1.3039
 3707TIP3   OH232611   1.472   4.203   5.843  0.6146 -0.3142 -0.2883
 3707TIP3    H132612   1.435   4.282   5.803 -1.3145 -1.2888 -0.5351
 3707TIP3    H232613   1.557   4.193   5.801  0.4394  1.0352 -1.0408
 3708TIP3   OH232614   0.120   3.316  15.909 -0.2954  0.1659 -0.2414
 3708TIP3    H132615   0.105   3.233  15.864  0.2866  0.0485 -0.2266
 3708TIP3    H232616   0.039   3.332  15.958 -0.0908 -0.8318  0.4541
 3709TIP3   OH232617   5.342   6.597  15.320  0.3667  0.5466  0.5284
 3709TIP3    H132618   5.307   6.613  15.408 -0.4605  1.8525 -0.0006
 3709TIP3    H232619   5.360   6.685  15.286  0.3774  0.0787 -0.7171
 3710TIP3   OH232620   2.161   5.739  15.164  0.2928  0.5048  0.4835
 3710TIP3    H132621   2.103   5.694  15.226 -0.2919 -0.0860 -0.4835
 3710TIP3    H232622   2.104   5.771  15.095  0.8166  1.9922  0.6860
 3711TIP3   OH232623   1.733   5.319  13.199 -0.7892 -0.8610  0.6244
 3711TIP3    H132624   1.743   5.247  13.137 -0.3909 -0.0908 -0.2331
 3711TIP3    H232625   1.669   5.377  13.159  0.9350  0.6590 -0.0891
 3712TIP3   OH232626   6.121   3.779  16.970  0.4185 -0.6512  0.1432
 3712TIP3    H132627   6.047   3.769  16.910  0.8447  0.5472 -0.6139
 3712TIP3    H232628   6.081   3.790  17.056 -0.2900 -0.2307 -0.2306
 3713TIP3   OH232629   1.701   2.604   1.363 -0.6042 -0.8700 -0.3253
 3713TIP3    H132630   1.705   2.637   1.274  0.9568  1.2305  0.4412
 3713TIP3    H232631   1.625   2.545   1.364 -1.8560  0.5799 -2.4999
 3714TIP3   OH232632   2.196   2.518   4.738 -0.2842  0.0442 -0.0887
 3714TIP3    H132633   2.260   2.548   4.802  0.2505 -1.3649  0.0812
 3714TIP3    H232634   2.241   2.448   4.691 -1.4249 -0.4286 -0.5098
 3715TIP3   OH232635   4.537   0.095   4.014 -0.0818  0.4392 -0.1575
 3715TIP3    H132636   4.546   0.060   4.102 -0.7189  1.0367  0.1495
 3715TIP3    H232637   4.455   0.057   3.981 -0.0889  0.5936 -0.3214
 3716TIP3   OH232638   3.956   6.103   1.785 -0.0355  0.0182 -0.4938
 3716TIP3    H132639   3.888   6.073   1.845  0.0460 -1.9483 -1.2944
 3716TIP3    H232640   3.964   6.197   1.802 -1.4933 -0.0875  1.0430
 3717TIP3   OH232641   0.144   5.136  13.251 -0.3411  0.2903 -0.4419
 3717TIP3    H132642   0.231   5.174  13.268  0.3146 -0.2775 -2.3215
 3717TIP3    H232643   0.105   5.193  13.185 -1.4703  0.6012  0.4660
 3718TIP3   OH232644   2.120   4.731  12.133  0.3294  0.4612  0.1726
 3718TIP3    H132645   2.178   4.672  12.085  0.0921  1.0718 -0.8963
 3718TIP3    H232646   2.039   4.733  12.081 -0.8416 -0.6819  1.8317
 3719TIP3   OH232647   3.061   1.080   2.159 -0.0633  0.2160 -0.9526
 3719TIP3    H132648   3.035   1.127   2.079 -2.9225  0.9502  0.3179
 3719TIP3    H232649   2.996   1.011   2.169 -0.2944  0.6800  1.1920
 3720TIP3   OH232650   2.486   2.888  15.820  0.4036 -0.0787 -0.5443
 3720TIP3    H132651   2.500   2.977  15.851 -1.6567  0.1059 -0.0518
 3720TIP3    H232652   2.404   2.861  15.859  0.4580 -1.8314 -1.5286
 3721TIP3   OH232653   0.756   3.084   0.774 -0.6247  0.4012 -0.2983
 3721TIP3    H132654   0.847   3.061   0.754 -0.9074  0.5426 -1.8544
 3721TIP3    H232655   0.704   3.019   0.726 -1.3620  1.5756 -1.1369
 3722TIP3   OH232656   1.778   0.615  14.155  0.6200  0.0381 -0.1689
 3722TIP3    H132657   1.757   0.632  14.063  0.0067  0.6456  0.0707
 3722TIP3    H232658   1.727   0.537  14.177  0.7088 -0.0634 -0.3192
 3723TIP3   OH232659   5.339   6.296  11.588 -0.3179 -0.2514  0.5467
 3723TIP3    H132660   5.290   6.256  11.516  0.2381 -0.0174  0.0407
 3723TIP3    H232661   5.308   6.386  11.592  0.8400  0.2212 -0.4914
 3724TIP3   OH232662   5.087   4.577  12.512 -0.2016 -0.2396  0.2939
 3724TIP3    H132663   5.066   4.522  12.587  0.3408  1.4886  1.7943
 3724TIP3    H232664   5.183   4.580  12.511 -0.2156  0.1825 -0.1415
 3725TIP3   OH232665   3.582   5.580   2.832  0.0043 -0.0540  0.6509
 3725TIP3    H132666   3.639   5.535   2.895 -0.1318 -0.0611  0.7687
 3725TIP3    H232667   3.622   5.666   2.820  0.0389 -0.0586  0.7348
 3726TIP3   OH232668   5.103   2.579  11.884 -0.5043  0.0532  0.1129
 3726TIP3    H132669   5.089   2.506  11.945  2.5610 -0.3119  0.5723
 3726TIP3    H232670   5.087   2.542  11.797 -2.4163 -0.1335  0.5159
 3727TIP3   OH232671   6.059   0.550   6.598  0.0979 -0.3399 -0.3486
 3727TIP3    H132672   6.091   0.581   6.683 -2.1893 -0.9784  0.8196
 3727TIP3    H232673   5.964   0.560   6.603 -0.0697  0.0304 -3.0420
 3728TIP3   OH232674   5.162   3.943   5.846  0.6095  0.9608  0.1652
 3728TIP3    H132675   5.137   3.882   5.915 -0.7056  1.3915  0.1165
 3728TIP3    H232676   5.217   4.008   5.890  1.0212  0.4088  0.4732
 3729TIP3   OH232677   1.711   2.881   6.453  0.5424 -0.2833 -0.2379
 3729TIP3    H132678   1.708   2.964   6.501  1.1101  0.1736 -0.9674
 3729TIP3    H232679   1.801   2.849   6.467 -0.3342 -2.0469  2.0931
 3730TIP3   OH232680   0.608   2.356   1.251 -0.5702  0.0141 -0.3015
 3730TIP3    H132681   0.634   2.421   1.186 -0.3545 -0.2312 -0.4616
 3730TIP3    H232682   0.559   2.406   1.316 -2.5137 -0.0327 -1.6257
 3731TIP3   OH232683   2.526   6.567   1.080 -0.0878 -0.3054  0.1065
 3731TIP3    H132684   2.616   6.595   1.065 -0.3754  0.4976 -0.1553
 3731TIP3    H232685   2.525   6.541   1.172  0.4356 -0.4134  0.0866
 3732TIP3   OH232686   4.287   2.738   5.019 -0.3994 -0.3945 -0.2979
 3732TIP3    H132687   4.246   2.733   5.105 -0.2650  0.3441 -0.1849
 3732TIP3    H232688   4.285   2.831   4.996  0.6180 -0.4261 -0.5761
 3733TIP3   OH232689   1.539   5.243   3.850  0.0963  0.7604 -0.1401
 3733TIP3    H132690   1.561   5.248   3.757  1.6053  1.7210  0.2363
 3733TIP3    H232691   1.448   5.211   3.852 -0.0609  1.0192 -1.9354
 3734TIP3   OH232692   0.725   6.754  16.439  0.5187 -0.3111 -0.7738
 3734TIP3    H132693   0.674   6.678  16.467  0.7991  0.2284  1.3525
 3734TIP3    H232694   0.797   6.759  16.502  0.7813  1.4461 -1.1552
 3735TIP3   OH232695   2.358   5.559   6.405  0.2037  0.0430 -0.4889
 3735TIP3    H132696   2.350   5.618   6.479 -0.6830 -2.0286  1.1635
 3735TIP3    H232697   2.452   5.541   6.399  0.3914  1.0209 -0.5320
 3736TIP3   OH232698   0.925   1.934  11.415  0.1376  0.2564 -0.0294
 3736TIP3    H132699   0.964   1.911  11.500 -2.3241  0.4815  1.2498
 3736TIP3    H232700   0.950   1.862  11.357  0.7415 -0.6158  1.2627
 3737TIP3   OH232701   4.211   6.809   4.704 -0.3400 -0.6835  0.6424
 3737TIP3    H132702   4.254   6.894   4.701 -0.6707 -0.5309 -0.0603
 3737TIP3    H232703   4.126   6.826   4.745 -0.4835 -0.6320  0.3313
 3738TIP3   OH232704   0.759   0.233  14.507 -0.0854 -0.1563 -0.6065
 3738TIP3    H132705   0.773   0.297  14.577 -2.1818 -1.3222  1.0044
 3738TIP3    H232706   0.841   0.183  14.504  0.2592  0.2888  0.6471
 3739TIP3   OH232707   4.870   2.382  15.917 -0.2324  0.2461  0.9041
 3739TIP3    H132708   4.787   2.338  15.901 -0.1228  0.1445  0.5992
 3739TIP3    H232709   4.849   2.450  15.981 -0.7340  0.7903  0.1873
 3740TIP3   OH232710   4.828   5.962  13.600 -0.1400  0.1802  0.1050
 3740TIP3    H132711   4.782   5.885  13.635 -0.3679 -0.1970 -0.9816
 3740TIP3    H232712   4.920   5.946  13.620 -0.3283  0.3107  1.1342
 3741TIP3   OH232713   2.621   1.274  16.510 -0.1565  0.6700  0.4324
 3741TIP3    H132714   2.683   1.273  16.583  0.6599 -1.0634 -0.2392
 3741TIP3    H232715   2.618   1.184  16.479 -2.0004  0.9871 -0.4313
 3742TIP3   OH232716   6.138   4.211   2.007  0.0573 -0.4888 -0.1982
 3742TIP3    H132717   6.184   4.171   1.934  1.5821  0.8015  0.0059
 3742TIP3    H232718   6.137   4.305   1.987 -0.4393 -0.2315  0.9197
 3743TIP3   OH232719   4.577   0.323  13.118  0.4648  0.7376 -0.3289
 3743TIP3    H132720   4.659   0.294  13.158 -0.6713 -1.0448  0.8822
 3743TIP3    H232721   4.576   0.281  13.032  0.5938  0.3310 -0.1350
 3744TIP3   OH232722   1.964   3.966  11.139  1.2105 -0.9168 -0.0997
 3744TIP3    H132723   2.005   3.884  11.112  3.4324  0.3199 -0.6909
 3744TIP3    H232724   2.037   4.024  11.159 -0.2301  1.5250 -1.4869
 3745TIP3   OH232725   4.125   4.510  11.447  0.3288 -0.0376 -0.5146
 3745TIP3    H132726   4.141   4.569  11.520 -1.9592 -1.5847  1.3696
 3745TIP3    H232727   4.094   4.567  11.376  0.5772  1.2677  0.3945
 3746TIP3   OH232728   1.133   4.792  14.613  0.1674  0.1645 -0.6279
 3746TIP3    H132729   1.048   4.796  14.657  0.4907 -1.0220  0.1309
 3746TIP3    H232730   1.115   4.755  14.527 -0.0537 -0.3318 -0.3692
 3747TIP3   OH232731   3.660   0.818   6.109 -0.2027 -0.4115 -0.3979
 3747TIP3    H132732   3.585   0.859   6.151 -0.4760 -2.0981  0.8734
 3747TIP3    H232733   3.735   0.843   6.164  0.1135  0.7674 -1.3189
 3748TIP3   OH232734   5.980   1.712  12.653  0.1088 -0.3957  0.1037
 3748TIP3    H132735   5.974   1.807  12.651 -0.8318 -0.4141  1.0186
 3748TIP3    H232736   6.035   1.693  12.729  0.7690 -0.5869 -0.4061
 3749TIP3   OH232737   5.736   4.668  12.356  0.2573 -1.0558  0.0574
 3749TIP3    H132738   5.755   4.579  12.328 -0.6603 -0.8443 -1.3299
 3749TIP3    H232739   5.701   4.711  12.278 -0.5876  0.1353  1.0500
 3750TIP3   OH232740   4.336   5.187  15.744  0.1414  0.4420 -0.0067
 3750TIP3    H132741   4.248   5.209  15.775  0.8981  1.2447  1.7112
 3750TIP3    H232742   4.361   5.261  15.689 -0.9978 -0.7383 -2.2555
 3751TIP3   OH232743   4.059   4.404  14.428 -0.0569 -0.7635  0.2725
 3751TIP3    H132744   4.009   4.351  14.366  0.6171 -0.9453 -0.1176
 3751TIP3    H232745   3.992   4.446  14.482 -0.6943  0.0733 -1.1076
 3752TIP3   OH232746   1.357   2.309  11.792 -0.0150  0.2190  0.0745
 3752TIP3    H132747   1.352   2.317  11.887  0.4014  0.5721  0.0716
 3752TIP3    H232748   1.295   2.375  11.759  0.0959  0.3351  0.0978
 3753TIP3   OH232749   6.514   6.160   0.567 -0.1552  0.1301  0.2172
 3753TIP3    H132750   6.576   6.126   0.502  0.3640 -0.7356  1.1504
 3753TIP3    H232751   6.481   6.241   0.527  0.7787  0.0603 -0.7615
 3754TIP3   OH232752   2.798   2.981  14.444  0.0920 -0.0568  0.2499
 3754TIP3    H132753   2.798   3.072  14.416  0.3239  0.2165  1.1177
 3754TIP3    H232754   2.888   2.964  14.472 -0.6469  0.4511  3.2190
 3755TIP3   OH232755   5.936   0.187  11.604  0.0668 -0.2851 -0.0607
 3755TIP3    H132756   5.875   0.120  11.635  0.5026 -0.8121 -0.3301
 3755TIP3    H232757   6.018   0.140  11.588  1.2657  0.7522  2.4160
 3756TIP3   OH232758   5.594   3.940   3.073 -0.0154  0.4507 -0.0904
 3756TIP3    H132759   5.643   4.020   3.091 -1.5062  1.3902 -0.0245
 3756TIP3    H232760   5.630   3.876   3.134  1.3376  0.9955 -0.2775
 3757TIP3   OH232761   4.966   4.367   2.531  0.0099  0.8498 -0.0940
 3757TIP3    H132762   5.009   4.281   2.531 -1.0765  0.1060  3.6728
 3757TIP3    H232763   4.974   4.398   2.441  4.9125 -0.8772 -0.5422
 3758TIP3   OH232764   4.300   2.953   1.624  0.5330 -0.1245 -0.0644
 3758TIP3    H132765   4.240   2.969   1.697  1.3801 -2.1560  1.1529
 3758TIP3    H232766   4.250   2.899   1.563  0.5493 -0.2922  0.0720
 3759TIP3   OH232767   0.347   1.147  13.088 -0.0009  0.2174 -0.2355
 3759TIP3    H132768   0.416   1.134  13.153 -0.5537 -2.0795 -0.0269
 3759TIP3    H232769   0.371   1.228  13.043  2.7620 -0.4605 -0.1122
 3760TIP3   OH232770   6.719   0.477   0.460 -0.5138  0.4209  0.2543
 3760TIP3    H132771   6.703   0.383   0.460 -0.1891  0.3642  0.3733
 3760TIP3    H232772   6.675   0.509   0.380 -2.5024  0.5040  1.3091
 3761TIP3   OH232773   6.313   5.846  16.013 -0.3511  0.4410  0.4369
 3761TIP3    H132774   6.279   5.934  16.031 -0.8316  0.4582 -0.4911
 3761TIP3    H232775   6.408   5.855  16.022 -0.3323  1.2577 -0.4371
 3762TIP3   OH232776   5.005   1.056   3.253  0.2118  0.0052 -1.0479
 3762TIP3    H132777   5.024   1.150   3.256 -0.4792  0.1303  0.4624
 3762TIP3    H232778   5.019   1.032   3.162  1.9595  1.2391 -1.1696
 3763TIP3   OH232779   0.364   5.416   4.278  0.0433 -0.7945 -0.5748
 3763TIP3    H132780   0.341   5.440   4.368  0.8670 -2.1222  0.0223
 3763TIP3    H232781   0.372   5.321   4.280 -1.4570 -1.0201 -2.4375
 3764TIP3   OH232782   6.520   3.198   5.017  0.0921 -0.4191 -0.1632
 3764TIP3    H132783   6.465   3.276   5.012 -0.0660 -0.4279  1.1322
 3764TIP3    H232784   6.588   3.213   4.951 -0.7376  0.1474 -0.9309
 3765TIP3   OH232785   1.345   2.874  11.834 -0.2066  0.4152 -0.3228
 3765TIP3    H132786   1.303   2.904  11.914  0.3220 -0.3198  0.2384
 3765TIP3    H232787   1.286   2.903  11.764 -0.8103  0.8201  0.3400
 3766TIP3   OH232788   5.941   5.258  10.886  0.0650  0.0717  0.2837
 3766TIP3    H132789   6.001   5.281  10.957 -0.1415  0.6077  0.2853
 3766TIP3    H232790   5.913   5.342  10.850 -1.0473 -0.1542  0.5823
 3767TIP3   OH232791   1.530   2.740   4.499 -0.4395 -0.0777 -0.2128
 3767TIP3    H132792   1.555   2.819   4.545  0.9485 -0.1655 -0.7849
 3767TIP3    H232793   1.531   2.671   4.566 -1.6529  0.3586  0.2839
 3768TIP3   OH232794   1.785   4.910   0.551  0.1170 -0.1924 -0.1368
 3768TIP3    H132795   1.761   4.914   0.643  0.5705 -0.6741  0.0068
 3768TIP3    H232796   1.727   4.843   0.514 -0.2496  0.1915 -0.2622
 3769TIP3   OH232797   0.290   6.483   1.248  0.4717  0.5428  0.0313
 3769TIP3    H132798   0.346   6.409   1.227  0.5697  0.9590 -1.2817
 3769TIP3    H232799   0.288   6.535   1.168 -1.0567  1.0195  0.3420
 3770TIP3   OH232800   2.221   4.528   4.670 -0.2143  0.0943 -0.3214
 3770TIP3    H132801   2.156   4.590   4.702  0.0687  0.7531 -0.9946
 3770TIP3    H232802   2.228   4.546   4.576  1.0519  0.1565 -0.2386
 3771TIP3   OH232803   4.651   4.467   0.398  0.7707 -0.9729  0.0460
 3771TIP3    H132804   4.648   4.391   0.457  2.2908 -0.8613  0.2933
 3771TIP3    H232805   4.649   4.428   0.310 -0.2093 -1.1963  0.1488
 3772TIP3   OH232806   5.523   6.737   3.507 -0.0454 -0.3056  0.2852
 3772TIP3    H132807   5.567   6.822   3.505 -0.9303  0.1790  0.7016
 3772TIP3    H232808   5.588   6.675   3.474  1.2944  0.2316  1.7960
 3773TIP3   OH232809   4.852   0.084  14.056  0.5965 -0.5731 -0.0049
 3773TIP3    H132810   4.908   0.065  13.981 -1.8467 -0.9542 -1.8892
 3773TIP3    H232811   4.844   0.180  14.057  3.4133 -0.2561  2.0609
 3774TIP3   OH232812   1.882   2.364  16.103  0.0314  0.0495 -0.3839
 3774TIP3    H132813   1.927   2.445  16.129 -0.1705 -0.6590  2.5716
 3774TIP3    H232814   1.803   2.394  16.058  0.5771  1.4475 -0.4839
 3775TIP3   OH232815   3.159   6.548   2.156 -0.0417  0.3868  0.7427
 3775TIP3    H132816   3.096   6.486   2.193 -0.1134 -0.5213 -0.8008
 3775TIP3    H232817   3.104   6.619   2.122  0.0132  1.1361  2.1589
 3776TIP3   OH232818   1.489   5.742  11.207 -0.5263 -0.4518  0.2950
 3776TIP3    H132819   1.421   5.777  11.149  0.9733  0.0754 -1.2014
 3776TIP3    H232820   1.508   5.814  11.268  0.7408  0.5224 -1.1669
 3777TIP3   OH232821   6.821   5.504   1.326 -0.0157  0.2579  0.0418
 3777TIP3    H132822   6.868   5.426   1.356  0.0875 -0.9820 -3.0191
 3777TIP3    H232823   6.770   5.532   1.402  1.4083 -1.6435  1.8008
 3778TIP3   OH232824   5.768   6.526   1.966 -0.1117  0.4836  0.2337
 3778TIP3    H132825   5.816   6.518   2.049  2.0242  0.0332 -0.9680
 3778TIP3    H232826   5.729   6.613   1.970 -0.8606  0.1105  2.0936
 3779TIP3   OH232827   1.600   3.600   2.071  0.0789 -0.2095 -0.1826
 3779TIP3    H132828   1.665   3.657   2.111  2.0845 -1.5814 -1.2930
 3779TIP3    H232829   1.574   3.646   1.991  0.1547  0.0778 -0.0426
 3780TIP3   OH232830   6.312   2.230  13.598  0.1602 -0.5374  0.1158
 3780TIP3    H132831   6.309   2.302  13.660  1.7564  0.4514 -0.9063
 3780TIP3    H232832   6.315   2.272  13.512  0.1486 -1.8379 -0.5440
 3781TIP3   OH232833   2.324   2.403   5.630 -0.0233 -0.6597  0.2067
 3781TIP3    H132834   2.311   2.309   5.623 -0.6783 -0.5767  0.1814
 3781TIP3    H232835   2.238   2.440   5.608  0.0694 -0.0846  0.7717
 3782TIP3   OH232836   2.617   4.781  12.607  0.2474 -0.0269  0.3598
 3782TIP3    H132837   2.646   4.742  12.524  0.9178  0.2425  0.4612
 3782TIP3    H232838   2.671   4.738  12.674  0.0332  0.0896  0.6110
 3783TIP3   OH232839   1.265   1.057   2.868  0.5536  0.4022 -0.2058
 3783TIP3    H132840   1.262   1.137   2.920 -0.1904  0.3590 -0.1718
 3783TIP3    H232841   1.309   1.083   2.787  3.2179  0.1036  1.0392
 3784TIP3   OH232842   0.621   5.151   2.111 -0.8404 -0.8452 -0.3005
 3784TIP3    H132843   0.676   5.229   2.118  0.7858 -2.1093  2.3162
 3784TIP3    H232844   0.551   5.177   2.051  1.1181  1.7030 -1.6915
 3785TIP3   OH232845   5.743   0.769  13.926  0.2464  0.3999  0.2143
 3785TIP3    H132846   5.685   0.738  13.996  0.4609  0.5913  0.4767
 3785TIP3    H232847   5.692   0.756  13.846 -1.8583  4.1704  0.6899
 3786TIP3   OH232848   5.704   5.821  11.529  0.1928  0.5979  0.1733
 3786TIP3    H132849   5.633   5.791  11.472 -0.1178  1.2848  0.1920
 3786TIP3    H232850   5.764   5.867  11.470  1.5384 -1.4509 -0.1606
 3787TIP3   OH232851   1.472   2.916   2.354 -0.0165 -0.2194 -0.2459
 3787TIP3    H132852   1.426   2.946   2.276  0.2297  1.0230  0.0694
 3787TIP3    H232853   1.480   2.821   2.342 -2.2789 -0.4222 -0.4842
 3788TIP3   OH232854   1.233   2.546   6.116 -0.1059 -0.4030  0.2478
 3788TIP3    H132855   1.183   2.474   6.156  0.8678 -0.8916  0.6100
 3788TIP3    H232856   1.177   2.622   6.126 -0.5263 -0.8214  1.1974
 3789TIP3   OH232857   4.407   1.166  14.303  0.1361 -0.3421 -0.4178
 3789TIP3    H132858   4.321   1.175  14.344  0.2883 -0.0717 -0.1642
 3789TIP3    H232859   4.394   1.199  14.214 -0.1329 -0.7186 -0.5261
 3790TIP3   OH232860   5.753   2.868  14.309 -0.4545  0.3651 -0.0397
 3790TIP3    H132861   5.755   2.774  14.294 -0.3408  0.2756  0.5243
 3790TIP3    H232862   5.710   2.878  14.394  2.4961  0.6081  1.5237
 3791TIP3   OH232863   5.752   6.341  13.925  0.1730  0.1745  0.4714
 3791TIP3    H132864   5.731   6.251  13.901  1.2399  0.2299 -0.8034
 3791TIP3    H232865   5.735   6.391  13.845  1.5029  0.7771  0.5453
 3792TIP3   OH232866   2.904   3.945   1.733  0.4267  0.3876 -0.0792
 3792TIP3    H132867   2.962   3.872   1.756 -1.4352 -1.3297 -0.6012
 3792TIP3    H232868   2.851   3.959   1.811 -0.7130 -0.3276 -0.7053
 3793TIP3   OH232869   5.810   4.429  12.269 -0.5230  0.3916  0.2078
 3793TIP3    H132870   5.891   4.435  12.319 -0.3603 -1.0435  0.1659
 3793TIP3    H232871   5.813   4.341  12.229 -1.5513  0.7589 -0.7358
 3794TIP3   OH232872   3.152   0.695   2.681  0.2151  0.4130  0.2864
 3794TIP3    H132873   3.131   0.646   2.601 -1.2995  3.1023 -1.1201
 3794TIP3    H232874   3.131   0.634   2.752 -0.4280 -1.3694 -1.3188
 3795TIP3   OH232875   5.538   3.047  15.066  0.3302  0.6144  0.2708
 3795TIP3    H132876   5.559   3.100  14.989 -0.1599  1.2036  0.5438
 3795TIP3    H232877   5.459   2.999  15.041  1.7429 -1.4110 -0.6591
 3796TIP3   OH232878   4.966   4.989   3.830  0.7062 -0.7865 -0.2722
 3796TIP3    H132879   4.901   4.960   3.894  1.4330 -2.0535 -0.0920
 3796TIP3    H232880   4.969   4.920   3.765  1.3544 -0.4016 -0.6665
 3797TIP3   OH232881   4.880   3.333  13.421  0.0545  0.1370 -0.0711
 3797TIP3    H132882   4.790   3.363  13.407  0.1941  0.9335  0.6572
 3797TIP3    H232883   4.883   3.248  13.377 -1.1851 -0.1159  0.2722
 3798TIP3   OH232884   5.509   4.973   2.317 -0.1382  0.0749 -0.4222
 3798TIP3    H132885   5.546   4.964   2.229  1.1293  2.2007 -0.1727
 3798TIP3    H232886   5.583   4.999   2.372 -1.0141 -0.6905  1.1844
 3799TIP3   OH232887   3.931   1.205  12.660  0.0109 -0.0185 -0.1925
 3799TIP3    H132888   3.970   1.284  12.622  1.1238  0.1067  1.1260
 3799TIP3    H232889   3.888   1.237  12.740  0.5337 -0.7601  0.3883
 3800TIP3   OH232890   0.262   4.469   2.776 -0.4521  0.3040 -0.4684
 3800TIP3    H132891   0.179   4.478   2.822 -0.8733 -1.4485 -0.8136
 3800TIP3    H232892   0.327   4.512   2.832 -1.3111  0.1974  0.6174
 3801TIP3   OH232893   0.439   1.747   1.595  0.0322 -0.2299 -0.0038
 3801TIP3    H132894   0.382   1.731   1.670 -0.6380  3.9577  0.5891
 3801TIP3    H232895   0.394   1.707   1.521 -1.0084 -1.4572  1.2401
 3802TIP3   OH232896   3.707   5.939  15.289  0.0221 -0.1618  0.2126
 3802TIP3    H132897   3.756   5.968  15.211  1.2350  0.6874  1.2472
 3802TIP3    H232898   3.772   5.942  15.360 -1.3934  0.4606  1.5305
 3803TIP3   OH232899   1.709   1.307   3.258 -0.1923 -0.2086  0.0812
 3803TIP3    H132900   1.642   1.370   3.231  1.2651  1.8364  1.0090
 3803TIP3    H232901   1.719   1.321   3.352 -1.5710 -3.6729  0.9290
 3804TIP3   OH232902   2.158   6.303   0.526 -0.2273 -0.0568 -0.2275
 3804TIP3    H132903   2.169   6.375   0.588 -0.4689 -0.3382  0.1487
 3804TIP3    H232904   2.157   6.224   0.581  3.1354 -0.6644 -0.8420
 3805TIP3   OH232905   2.794   4.075   0.863 -0.0552  0.2230  0.7939
 3805TIP3    H132906   2.744   4.140   0.813  2.2130  2.7676  1.5313
 3805TIP3    H232907   2.816   4.007   0.800 -1.2544  0.9406 -0.4368
 3806TIP3   OH232908   3.376   1.158   0.197 -0.6538  0.4926  0.7080
 3806TIP3    H132909   3.369   1.087   0.134  1.9671 -0.5893  1.4957
 3806TIP3    H232910   3.342   1.235   0.151 -2.4218 -0.9850 -0.5901
 3807TIP3   OH232911   5.601   1.883  13.139  0.3366 -0.0845 -0.1787
 3807TIP3    H132912   5.603   1.820  13.211 -1.2054 -1.9327 -1.6296
 3807TIP3    H232913   5.618   1.830  13.061 -0.5160  1.3709 -1.4020
 3808TIP3   OH232914   6.126   1.387   3.838  0.2307  0.5166  0.8689
 3808TIP3    H132915   6.103   1.332   3.912  0.2604 -1.4410 -0.4840
 3808TIP3    H232916   6.043   1.405   3.793  0.4366 -0.1423  0.2012
 3809TIP3   OH232917   5.063   6.599  12.005 -0.2286  0.0278 -0.3288
 3809TIP3    H132918   5.058   6.591  12.100  0.3558  3.3931  0.0935
 3809TIP3    H232919   4.973   6.617  11.977  0.1548  3.2851  0.2083
 3810TIP3   OH232920   2.616   0.435  17.054 -0.8431 -0.8654 -0.5023
 3810TIP3    H132921   2.620   0.427  16.959  2.4157  1.4751 -0.7280
 3810TIP3    H232922   2.565   0.514  17.069 -1.1911 -1.1255 -0.3090
 3811TIP3   OH232923   6.442   5.510  13.509 -0.1512 -0.5667  0.0954
 3811TIP3    H132924   6.524   5.466  13.531  0.3582  0.6949  0.8163
 3811TIP3    H232925   6.468   5.584  13.454 -0.9374 -0.8168 -0.6429
 3812TIP3   OH232926   6.763   1.159  13.056 -0.4046 -0.2595  0.1975
 3812TIP3    H132927   6.798   1.237  13.101 -0.2394 -0.6648  0.7866
 3812TIP3    H232928   6.754   1.186  12.965  1.2189 -0.0557  0.0663
 3813TIP3   OH232929   4.963   0.052  15.635  0.7441  0.1072 -0.4088
 3813TIP3    H132930   4.909   0.052  15.555  0.4615 -1.4316 -0.2469
 3813TIP3    H232931   4.957   0.142  15.667 -0.1649  0.4487 -1.4439
 3814TIP3   OH232932   4.970   0.086   5.756  0.0398 -0.0276 -0.3668
 3814TIP3    H132933   5.054   0.105   5.714  0.0960  1.0448  0.1929
 3814TIP3    H232934   4.923   0.169   5.755  0.2067  0.1641  2.0404
 3815TIP3   OH232935   0.326   6.697   0.154  0.1299 -0.7947  0.1637
 3815TIP3    H132936   0.411   6.727   0.187  0.5734 -1.1351 -0.6411
 3815TIP3    H232937   0.323   6.604   0.178 -0.0552 -0.7660  0.2567
 3816TIP3   OH232938   6.210   5.232   2.286 -0.4213  0.3383 -0.1071
 3816TIP3    H132939   6.290   5.285   2.289 -0.6439  0.6685  0.1945
 3816TIP3    H232940   6.219   5.177   2.208  0.0581  0.4387 -0.1214
 3817TIP3   OH232941   6.104   0.138   4.123 -0.3862 -0.2399 -0.2749
 3817TIP3    H132942   6.132   0.203   4.058  0.8689  0.0513  0.5100
 3817TIP3    H232943   6.021   0.106   4.090  0.3423 -0.3240 -2.1837
 3818TIP3   OH232944   4.308   2.367  12.720  0.6204 -0.3762 -0.5787
 3818TIP3    H132945   4.309   2.439  12.783  0.5734 -0.1520 -0.8360
 3818TIP3    H232946   4.378   2.309  12.749  0.6421 -0.2399 -0.3576
 3819TIP3   OH232947   3.285   4.356   6.373  0.7586  0.2415  0.2809
 3819TIP3    H132948   3.198   4.350   6.412  0.6132  2.2354  0.3375
 3819TIP3    H232949   3.341   4.391   6.442  1.2114  0.6820 -0.2933
 3820TIP3   OH232950   0.583   2.798   0.973  0.0810  0.5741  0.1378
 3820TIP3    H132951   0.625   2.833   1.051 -0.9376  0.8403  0.5672
 3820TIP3    H232952   0.559   2.875   0.921  0.7643  0.4006 -0.4581
 3821TIP3   OH232953   6.351   6.105  11.639  0.1124  0.1950  0.3150
 3821TIP3    H132954   6.340   6.024  11.690 -0.4271  0.0727  0.0200
 3821TIP3    H232955   6.278   6.104  11.577  0.5444  0.5295 -0.2099
 3822TIP3   OH232956   0.343   0.482   0.218 -0.2014 -0.0376 -0.5330
 3822TIP3    H132957   0.326   0.435   0.137  2.3291 -2.6917  0.3060
 3822TIP3    H232958   0.334   0.417   0.287  1.3669  1.1794  0.9261
 3823TIP3   OH232959   5.878   5.110  16.862  0.2242 -0.1241 -0.5551
 3823TIP3    H132960   5.931   5.060  16.800 -0.0227  1.8144 -2.4568
 3823TIP3    H232961   5.795   5.125  16.816  0.2831  1.9547 -0.0870
 3824TIP3   OH232962   1.971   2.851   0.863 -0.0753  0.4228  0.0699
 3824TIP3    H132963   1.933   2.788   0.803 -0.8958 -0.8736  1.8502
 3824TIP3    H232964   1.976   2.932   0.813 -0.7353 -0.5845 -1.7063
 3825TIP3   OH232965   3.051   1.303  14.990 -0.1390  0.3227 -0.1214
 3825TIP3    H132966   3.032   1.291  15.083 -3.4447  1.3443 -0.5513
 3825TIP3    H232967   3.042   1.216  14.951  0.3768  0.0525  0.3541
 3826TIP3   OH232968   1.017   5.484  11.125 -0.2327 -0.0691 -0.7261
 3826TIP3    H132969   1.070   5.405  11.133  1.9739  1.4242  0.6673
 3826TIP3    H232970   1.017   5.504  11.032  1.8317 -0.0529 -0.7617
 3827TIP3   OH232971   4.671   3.347  12.875 -0.1831  0.3314 -0.2034
 3827TIP3    H132972   4.733   3.282  12.910 -0.9538  0.2602  1.0919
 3827TIP3    H232973   4.651   3.403  12.950 -2.9916 -0.6710 -0.0718
 3828TIP3   OH232974   4.903   1.494  10.379 -0.1617  0.3663  0.4029
 3828TIP3    H132975   4.832   1.556  10.368 -0.4373  0.8010  3.6065
 3828TIP3    H232976   4.981   1.548  10.392 -0.2648  0.1481  2.3647
 3829TIP3   OH232977   2.877   4.464   0.411  0.0763 -0.0286  0.0186
 3829TIP3    H132978   2.966   4.496   0.403  0.9682 -2.5553 -1.0050
 3829TIP3    H232979   2.833   4.529   0.467  3.3475 -0.2445  3.2114
 3830TIP3   OH232980   2.564   0.684   0.579 -0.1147  0.4625 -0.0019
 3830TIP3    H132981   2.624   0.759   0.583 -0.3095  0.5610  1.1871
 3830TIP3    H232982   2.515   0.687   0.661  1.5989 -2.3965  1.2756
 3831TIP3   OH232983   4.282   5.532  14.013  0.4482 -0.2557 -0.4161
 3831TIP3    H132984   4.353   5.523  13.949  0.1706 -1.3629 -0.6082
 3831TIP3    H232985   4.280   5.447  14.058  0.2082  0.2845  0.6134
 3832TIP3   OH232986   3.972   5.706   0.628 -0.4763 -0.3045 -0.0329
 3832TIP3    H132987   3.972   5.644   0.555 -0.3703 -0.5855  0.2021
 3832TIP3    H232988   4.056   5.692   0.671  0.1132  0.9298 -0.7466
 3833TIP3   OH232989   4.710   2.902  13.032  0.2985 -0.5222  0.0444
 3833TIP3    H132990   4.749   2.987  13.014 -0.0133 -0.5469 -0.7698
 3833TIP3    H232991   4.620   2.910  13.001  0.6718 -1.6070 -1.3780
 3834TIP3   OH232992   5.641   5.684   5.437 -0.3389  1.1003  0.6786
 3834TIP3    H132993   5.661   5.765   5.484 -0.0536  1.1139  0.5407
 3834TIP3    H232994   5.550   5.694   5.409 -0.3625  1.2939  0.8207
 3835TIP3   OH232995   2.785   1.367  17.161 -0.7488 -0.0621 -0.0821
 3835TIP3    H132996   2.843   1.305  17.116 -1.4001  0.5243 -1.8131
 3835TIP3    H232997   2.767   1.434  17.095 -2.7580  0.1782  0.6640
 3836TIP3   OH232998   5.572   4.029   1.539  0.0184  0.5837 -0.1195
 3836TIP3    H132999   5.513   4.075   1.599 -1.9783 -2.1252  0.2064
 3836TIP3    H233000   5.659   4.042   1.576 -0.8065  1.5279  1.6300
 3837TIP3   OH233001   6.405   6.706   2.916 -0.3092 -0.0234 -0.4386
 3837TIP3    H133002   6.383   6.612   2.915 -2.5788  0.4206  0.2007
 3837TIP3    H233003   6.473   6.716   2.850  0.5303 -2.2393  0.0130
 3838TIP3   OH233004   5.994   4.237   1.324 -0.0371 -0.2883 -0.2250
 3838TIP3    H133005   6.007   4.224   1.230  0.6193  2.7637 -0.6396
 3838TIP3    H233006   6.058   4.304   1.348 -1.6448  0.5873  1.9377
 3839TIP3   OH233007   0.278   5.382  11.439 -0.4230 -0.1094  0.4078
 3839TIP3    H133008   0.213   5.312  11.429 -0.6981  0.2963 -0.9767
 3839TIP3    H233009   0.353   5.340  11.481 -0.3111 -1.4288 -1.0096
 3840TIP3   OH233010   6.162   4.906   5.697 -0.1322 -0.0760 -0.2130
 3840TIP3    H133011   6.101   4.869   5.633  0.4357  0.7102 -1.2280
 3840TIP3    H233012   6.158   5.000   5.684  0.7245  0.0378  0.2450
 3841TIP3   OH233013   4.253   0.064   5.046 -0.7314 -0.3430 -0.5872
 3841TIP3    H133014   4.176   0.110   5.078 -0.1770 -0.3255  0.8002
 3841TIP3    H233015   4.297   0.128   4.990 -2.0022 -0.5545 -1.8930
 3842TIP3   OH233016   2.862   1.320  11.557 -0.0662 -0.3370 -0.3386
 3842TIP3    H133017   2.923   1.393  11.550 -0.3641 -0.2486 -2.6046
 3842TIP3    H233018   2.840   1.298  11.467 -3.3493 -0.3826  0.3494
 3843TIP3   OH233019   5.535   1.304   3.885  0.2799 -0.2782  0.0946
 3843TIP3    H133020   5.487   1.222   3.872 -1.5272  0.7458  0.0391
 3843TIP3    H233021   5.502   1.362   3.817  1.8352  0.3903 -0.1212
 3844TIP3   OH233022   0.588   4.588   5.711 -0.4897  0.0337 -0.0498
 3844TIP3    H133023   0.566   4.508   5.664  0.9550 -1.2420  1.3382
 3844TIP3    H233024   0.679   4.575   5.740 -0.3774  1.9713  0.6279
 3845TIP3   OH233025   1.485   4.754   2.831 -0.2901  0.2111 -0.4336
 3845TIP3    H133026   1.490   4.763   2.736 -0.9074  2.8436 -0.2891
 3845TIP3    H233027   1.462   4.841   2.863 -0.8415 -0.7542  2.1008
 3846TIP3   OH233028   3.819   1.509  15.245  0.8466 -0.0135 -0.0566
 3846TIP3    H133029   3.839   1.572  15.176  1.0727 -0.3833 -0.3302
 3846TIP3    H233030   3.723   1.514  15.254  0.5979 -1.1419 -1.5562
 3847TIP3   OH233031   1.831   1.262  14.114 -0.5121 -0.2031  0.0841
 3847TIP3    H133032   1.791   1.274  14.028 -0.4230 -1.7344 -0.2105
 3847TIP3    H233033   1.883   1.341  14.129  0.9701 -0.6726 -2.1141
 3848TIP3   OH233034   0.317   0.443   2.511  0.1250  0.1961  0.4212
 3848TIP3    H133035   0.311   0.347   2.510 -0.3649  0.2045 -1.6956
 3848TIP3    H233036   0.398   0.461   2.558 -0.6898 -1.1444  2.5508
 3849TIP3   OH233037   5.498   6.555   4.646 -0.5794 -0.0471 -0.1277
 3849TIP3    H133038   5.556   6.485   4.677  0.6491  1.1462  0.3567
 3849TIP3    H233039   5.507   6.553   4.551 -0.7763 -0.7068 -0.1409
 3850TIP3   OH233040   6.502   2.686   4.361 -0.1422 -0.1816 -0.1475
 3850TIP3    H133041   6.414   2.673   4.397  0.2428  0.2454  0.9993
 3850TIP3    H233042   6.559   2.636   4.418  0.4632  0.2936 -0.3269
 3851TIP3   OH233043   3.236   6.241   1.597 -0.1539  0.0389  0.4937
 3851TIP3    H133044   3.314   6.188   1.613 -0.2583 -0.5580 -0.8259
 3851TIP3    H233045   3.269   6.319   1.552 -0.2447  0.0621  0.4653
 3852TIP3   OH233046   4.135   0.714  12.572 -0.2352 -0.3185  0.0257
 3852TIP3    H133047   4.105   0.706  12.662 -0.2430 -3.0392 -0.1356
 3852TIP3    H233048   4.062   0.757  12.526  0.0726  1.7958  1.3804
 3853TIP3   OH233049   5.252   5.261   6.778  0.2960 -0.2633  0.2530
 3853TIP3    H133050   5.182   5.268   6.714  0.7850 -0.7878 -0.3613
 3853TIP3    H233051   5.216   5.206   6.848 -0.7023  1.4153  1.1132
 3854TIP3   OH233052   1.451   5.333   1.641  0.0991 -0.1132 -0.1714
 3854TIP3    H133053   1.370   5.283   1.634 -1.5169  2.1307  1.3651
 3854TIP3    H233054   1.465   5.370   1.554  0.2415 -1.5468 -0.7883
 3855TIP3   OH233055   2.311   6.505   3.665  0.4269  0.0667 -0.0177
 3855TIP3    H133056   2.265   6.423   3.685  1.3461 -1.2421 -2.7110
 3855TIP3    H233057   2.399   6.493   3.700  0.1695  0.4978  0.7911
 3856TIP3   OH233058   5.648   1.958   3.534 -0.6954 -0.1513 -0.2273
 3856TIP3    H133059   5.735   1.919   3.520 -1.1837 -0.9903 -0.9830
 3856TIP3    H233060   5.624   1.930   3.622 -0.2107  0.0789 -0.0136
 3857TIP3   OH233061   1.514   4.891   3.506 -0.4374 -0.3896  0.3535
 3857TIP3    H133062   1.543   4.816   3.453  1.0755 -0.5584  1.3748
 3857TIP3    H233063   1.498   4.960   3.441  0.3929 -0.8947 -0.4208
 3858TIP3   OH233064   0.931   5.144  13.183  0.2674 -0.0342  0.3177
 3858TIP3    H133065   0.951   5.189  13.266  1.2631  0.8428 -0.3626
 3858TIP3    H233066   0.996   5.074  13.178 -1.9783 -2.4022  1.9175
 3859TIP3   OH233067   0.893   4.810   2.348  0.3141  0.1481 -0.3328
 3859TIP3    H133068   0.831   4.830   2.279  0.8096  0.3334 -0.7327
 3859TIP3    H233069   0.882   4.717   2.365  0.3045  0.0676 -0.7814
 3860TIP3   OH233070   6.788   1.936  12.884  0.0394  0.0617  0.3422
 3860TIP3    H133071   6.781   1.969  12.795 -2.1525  0.0428  0.4356
 3860TIP3    H233072   6.830   1.850  12.875 -0.2144  0.0329 -0.6844
 3861TIP3   OH233073   2.410   5.862  16.002 -0.2788 -0.3127  0.1039
 3861TIP3    H133074   2.321   5.835  15.980 -0.2404  0.0451 -0.5185
 3861TIP3    H233075   2.459   5.850  15.921 -0.5432  2.8033 -0.6171
 3862TIP3   OH233076   3.876   3.603   2.067  0.3511 -0.1778 -0.3099
 3862TIP3    H133077   3.965   3.620   2.099  0.4640 -3.5396  1.6036
 3862TIP3    H233078   3.842   3.690   2.045  3.8613  1.3098 -0.5898
 3863TIP3   OH233079   6.634   1.500  11.428  0.0813  0.5131 -0.2724
 3863TIP3    H133080   6.714   1.486  11.377  0.5311  3.0554 -0.3962
 3863TIP3    H233081   6.604   1.412  11.451  1.4256 -0.6023 -2.4946
 3864TIP3   OH233082   1.058   3.591   0.322 -0.3010 -0.2687 -0.1561
 3864TIP3    H133083   1.015   3.675   0.307  0.9548  0.3686 -0.3588
 3864TIP3    H233084   1.044   3.542   0.241  0.7322  0.5717 -0.8777
 3865TIP3   OH233085   2.374   5.271  15.062  0.3490  0.1946 -0.4639
 3865TIP3    H133086   2.344   5.214  15.132 -0.3609  1.1442  0.0148
 3865TIP3    H233087   2.298   5.323  15.037  0.4701 -0.3876 -2.2251
 3866TIP3   OH233088   2.774   2.825   1.094  0.7788 -0.2970 -0.1631
 3866TIP3    H133089   2.729   2.754   1.139  1.8788 -0.1231  1.3013
 3866TIP3    H233090   2.864   2.794   1.084  0.7851  0.0592 -1.4478
 3867TIP3   OH233091   5.952   2.467   4.624 -0.4083  0.6524 -0.2612
 3867TIP3    H133092   6.026   2.484   4.683  0.4968  0.2967 -1.2742
 3867TIP3    H233093   5.942   2.548   4.574 -0.3792  0.5217 -0.4770
 3868TIP3   OH233094   2.307   0.081  10.947 -0.0399 -0.2155  0.5382
 3868TIP3    H133095   2.339   0.046  11.030  1.4620  0.3316  0.2254
 3868TIP3    H233096   2.357   0.034  10.880 -0.7457 -0.1633 -0.0399
 3869TIP3   OH233097   5.793   0.697   4.747 -0.1983  0.0217  0.2410
 3869TIP3    H133098   5.771   0.786   4.720 -1.2963 -0.2609  0.1440
 3869TIP3    H233099   5.721   0.671   4.804 -0.7412 -1.3650 -0.9946
 3870TIP3   OH233100   0.898   0.551   6.068  0.1362 -0.4809 -0.0272
 3870TIP3    H133101   0.938   0.555   6.155  0.9055 -2.2851 -0.2498
 3870TIP3    H233102   0.968   0.520   6.011 -1.2325 -2.6514 -0.6545
 3871TIP3   OH233103   0.669   0.733   1.014  0.4343  0.4935 -0.0057
 3871TIP3    H133104   0.637   0.768   0.931 -0.4856 -1.4639 -0.5376
 3871TIP3    H233105   0.746   0.786   1.034  1.8754 -0.1825 -3.1265
 3872TIP3   OH233106   5.672   2.024   3.037 -0.3549 -0.2724 -0.1204
 3872TIP3    H133107   5.734   2.097   3.036  0.7844 -1.1870  0.8650
 3872TIP3    H233108   5.617   2.040   3.114 -1.3255  0.4885 -0.9414
 3873TIP3   OH233109   4.795   3.063   5.654 -0.1771  0.6847  0.2909
 3873TIP3    H133110   4.857   3.048   5.583 -1.0741 -1.9193 -0.0512
 3873TIP3    H233111   4.844   3.045   5.734  0.0500  0.6496  0.1431
 3874TIP3   OH233112   5.772   4.582   1.858  0.4304 -0.2820 -1.0210
 3874TIP3    H133113   5.719   4.504   1.874 -0.0001  0.1822 -0.1290
 3874TIP3    H233114   5.807   4.569   1.770  1.5602 -2.1618 -0.3372
 3875TIP3   OH233115   0.562   0.857  10.306  0.2050  0.1398  1.1842
 3875TIP3    H133116   0.583   0.765  10.322 -1.5561 -0.4048  0.6591
 3875TIP3    H233117   0.594   0.904  10.383  1.0362 -0.9226  1.5001
 3876TIP3   OH233118   2.059   0.346   2.095 -0.0355 -0.9873  0.2775
 3876TIP3    H133119   2.102   0.301   2.168  0.8646 -0.3424  0.1648
 3876TIP3    H233120   2.063   0.439   2.119  0.3055 -0.7637 -0.6113
 3877TIP3   OH233121   2.470   5.607  16.094  0.0162  0.5678 -0.5285
 3877TIP3    H133122   2.483   5.553  16.016 -1.2426  0.9929 -1.0546
 3877TIP3    H233123   2.444   5.693  16.059  1.2194  1.2966  0.3150
 3878TIP3   OH233124   2.584   3.936  12.123  0.6854 -0.2758  0.6527
 3878TIP3    H133125   2.626   3.910  12.205  1.2920  0.7024  0.6778
 3878TIP3    H233126   2.572   3.855  12.075  0.1298 -0.8982  1.7907
 3879TIP3   OH233127   1.097   3.637  15.016 -0.1067 -0.1376 -0.2773
 3879TIP3    H133128   1.032   3.679  14.959  0.3809 -0.3123 -0.9747
 3879TIP3    H233129   1.160   3.706  15.036 -0.5380  0.0531  0.4649
 3880TIP3   OH233130   4.900   3.320   6.005  0.1895  0.0348 -0.5706
 3880TIP3    H133131   4.864   3.354   5.923 -0.0731 -1.4794 -1.1199
 3880TIP3    H233132   4.993   3.311   5.988  0.1220 -0.3617 -0.7457
 3881TIP3   OH233133   0.781   1.392   3.001 -0.2083 -0.0717 -0.0641
 3881TIP3    H133134   0.853   1.364   2.944  0.0246  0.5914 -0.1043
 3881TIP3    H233135   0.726   1.446   2.944 -0.1349  0.3459  0.2564
 3882TIP3   OH233136   4.592   2.843  11.059 -0.2371  0.1331 -0.3156
 3882TIP3    H133137   4.640   2.768  11.092  0.1518  0.8817  0.8977
 3882TIP3    H233138   4.507   2.838  11.103  0.1234  0.8879  0.5110
 3883TIP3   OH233139   2.105   3.172   4.237  0.4351 -0.2788 -0.6103
 3883TIP3    H133140   2.038   3.175   4.168  0.1718 -1.9586 -0.4778
 3883TIP3    H233141   2.066   3.117   4.305  1.9306 -1.2679 -0.5101
 3884TIP3   OH233142   4.467   6.163   3.665  0.2241  0.8636 -0.0540
 3884TIP3    H133143   4.433   6.098   3.727  1.5737  0.6823  0.5432
 3884TIP3    H233144   4.441   6.247   3.701  0.5479  0.7349  0.5019
 3885TIP3   OH233145   1.741   2.079   0.882 -0.6082 -0.3182  0.0116
 3885TIP3    H133146   1.656   2.110   0.913 -1.4491  0.1428 -2.4935
 3885TIP3    H233147   1.720   2.005   0.825  0.7668 -0.7184 -0.0019
 3886TIP3   OH233148   1.692   1.822  16.340 -0.0460  0.4045  0.2630
 3886TIP3    H133149   1.744   1.759  16.292  0.8859  0.1515  1.5484
 3886TIP3    H233150   1.642   1.869  16.273 -0.3935 -1.3491 -0.7407
 3887TIP3   OH233151   5.439   1.668  11.955  0.0069 -0.0629 -0.1688
 3887TIP3    H133152   5.533   1.666  11.974  0.0592 -0.2205 -0.4382
 3887TIP3    H233153   5.414   1.575  11.951 -0.7060 -0.0567  2.5100
 3888TIP3   OH233154   5.948   6.572   4.817 -0.1755  0.0902  0.0350
 3888TIP3    H133155   6.018   6.635   4.836 -0.9138  1.2382 -0.9170
 3888TIP3    H233156   5.948   6.513   4.892  0.7712  1.0223  0.7976
 3889TIP3   OH233157   6.263   1.348   2.411  0.0346  0.0826 -0.7328
 3889TIP3    H133158   6.221   1.264   2.428 -0.8544  0.5618 -0.5221
 3889TIP3    H233159   6.341   1.325   2.360  1.1230 -1.1054  1.3194
 3890TIP3   OH233160   6.148   2.684  15.912 -0.5404  0.2790  0.1623
 3890TIP3    H133161   6.091   2.616  15.875  0.0279  0.1144 -0.4441
 3890TIP3    H233162   6.236   2.646  15.908 -0.5214  0.0100  2.2914
 3891TIP3   OH233163   4.276   3.780   4.685  0.3684  0.4869  0.4644
 3891TIP3    H133164   4.258   3.821   4.600  1.2145 -0.0162  0.0325
 3891TIP3    H233165   4.216   3.824   4.746 -1.1387  0.0000 -0.6045
 3892TIP3   OH233166   6.348   6.306  14.074  1.1618 -0.3406  0.2904
 3892TIP3    H133167   6.338   6.285  13.981 -2.9217 -0.4756  0.5736
 3892TIP3    H233168   6.329   6.223  14.119 -2.0221  0.7598  1.2111
 3893TIP3   OH233169   1.143   0.345   5.300 -0.2362  0.5532  0.3029
 3893TIP3    H133170   1.054   0.378   5.314  0.3838  1.4618  2.4578
 3893TIP3    H233171   1.162   0.293   5.377  0.6432 -0.7605 -0.7619
 3894TIP3   OH233172   3.157   1.315   1.542 -0.0726  0.4494  0.1459
 3894TIP3    H133173   3.173   1.369   1.619 -1.4310  0.5888  0.3441
 3894TIP3    H233174   3.104   1.370   1.484 -0.1636 -0.1214 -0.3198
 3895TIP3   OH233175   6.175   4.456  12.976  0.4208  0.5396  0.1782
 3895TIP3    H133176   6.140   4.375  12.937 -1.4177  2.1121 -1.7041
 3895TIP3    H233177   6.269   4.449  12.966  0.1557 -0.1207 -2.7936
 3896TIP3   OH233178   0.268   2.555  14.391  0.0314 -0.3328  0.1118
 3896TIP3    H133179   0.281   2.575  14.298  0.2085  1.8019  0.5390
 3896TIP3    H233180   0.223   2.632  14.426 -0.4201 -1.2869  1.7202
 3897TIP3   OH233181   6.598   2.911   1.863 -0.5381  0.4364  0.2615
 3897TIP3    H133182   6.588   2.863   1.945  2.3970  0.8608  0.9937
 3897TIP3    H233183   6.601   2.843   1.796  0.2616 -0.1913  0.9098
 3898TIP3   OH233184   3.776   6.306  12.383  0.2532  0.3734 -0.2035
 3898TIP3    H133185   3.788   6.264  12.298  1.4208  1.1383 -0.4398
 3898TIP3    H233186   3.683   6.328  12.387 -0.0523 -0.7674 -0.7522
 3899TIP3   OH233187   4.803   6.045  16.292  0.1178  0.3652 -0.1993
 3899TIP3    H133188   4.847   6.024  16.210  1.1715  0.4458  0.3194
 3899TIP3    H233189   4.857   6.002  16.359 -1.2293 -0.4571  0.3894
 3900TIP3   OH233190   1.742   5.272  12.696 -0.3303  0.1600 -0.3335
 3900TIP3    H133191   1.709   5.354  12.732 -1.1893 -0.8122  1.1900
 3900TIP3    H233192   1.714   5.205  12.758  0.7858 -1.2439 -1.2716
 3901TIP3   OH233193   4.459   0.976  13.879  0.2280 -0.6485  0.2887
 3901TIP3    H133194   4.494   0.995  13.966  0.5155 -0.1865  0.0739
 3901TIP3    H233195   4.528   1.005  13.819 -0.2048 -0.4438 -0.1115
 3902TIP3   OH233196   1.242   4.381   1.704 -0.4556 -0.7479  0.1348
 3902TIP3    H133197   1.195   4.384   1.620  1.2399 -0.0565 -0.8261
 3902TIP3    H233198   1.174   4.359   1.768 -2.2863  1.0935 -1.0478
 3903TIP3   OH233199   2.164   3.948   1.169 -0.4185 -0.1565  0.1537
 3903TIP3    H133200   2.091   3.897   1.132 -0.3625 -0.5976  0.6573
 3903TIP3    H233201   2.192   3.899   1.246  0.2519  0.1473  0.1078
 3904TIP3   OH233202   5.520   1.337   4.178  0.5443  0.1627  0.4157
 3904TIP3    H133203   5.534   1.253   4.222 -1.1248 -0.7132 -0.6234
 3904TIP3    H233204   5.547   1.322   4.088 -0.6582  0.4286 -0.0083
 3905TIP3   OH233205   3.658   4.338   5.985  0.3182 -0.2912  0.6943
 3905TIP3    H133206   3.631   4.398   6.054 -0.5167 -0.0830  0.1899
 3905TIP3    H233207   3.598   4.354   5.913  1.5551 -0.0698 -0.3268
 3906TIP3   OH233208   2.070   3.659   4.437 -0.0975  0.6576  0.1483
 3906TIP3    H133209   2.018   3.579   4.446 -1.1942  1.2893 -0.3946
 3906TIP3    H233210   2.112   3.670   4.523 -1.9128  0.8267  1.0613
 3907TIP3   OH233211   5.633   4.939  13.833 -0.1197  0.1406 -0.3745
 3907TIP3    H133212   5.552   4.950  13.883  0.8293  2.7627  0.6985
 3907TIP3    H233213   5.676   4.863  13.873 -1.5332 -0.6667 -0.3127
 3908TIP3   OH233214   5.903   4.667  10.565  0.3457 -0.5276 -0.2990
 3908TIP3    H133215   5.866   4.690  10.650  1.1603  2.3352 -0.5928
 3908TIP3    H233216   5.830   4.631  10.515 -0.9138  0.6279  0.6315
 3909TIP3   OH233217   5.962   5.231  12.150 -0.4867  0.1583 -0.3779
 3909TIP3    H133218   6.015   5.168  12.101 -0.1048 -0.1518  0.4231
 3909TIP3    H233219   6.013   5.312  12.147  0.2617 -0.2503  0.7541
 3910TIP3   OH233220   5.809   4.816   2.612 -0.2417  0.0612 -0.2223
 3910TIP3    H133221   5.755   4.890   2.585 -0.0387  0.7148  1.0495
 3910TIP3    H233222   5.850   4.785   2.531 -0.7530  0.9982 -0.8594
 3911TIP3   OH233223   1.679   2.576  10.897 -0.3571  0.0408 -0.3315
 3911TIP3    H133224   1.697   2.499  10.843 -1.0286 -0.0987 -0.3593
 3911TIP3    H233225   1.765   2.617  10.909 -0.2141  0.1642 -1.6414
 3912TIP3   OH233226   2.232   2.290   2.755 -0.6096 -0.6246  0.0309
 3912TIP3    H133227   2.326   2.295   2.770 -0.5475 -0.7067 -0.3091
 3912TIP3    H233228   2.205   2.210   2.800 -0.4810 -0.7071 -0.0369
 3913TIP3   OH233229   3.927   2.583  13.694 -0.0590  0.4055  0.4298
 3913TIP3    H133230   3.837   2.569  13.664 -0.3512  0.6522  1.1695
 3913TIP3    H233231   3.972   2.501  13.671  0.7866  1.8323 -4.1619
 3914TIP3   OH233232   0.506   6.705  16.750 -0.7439 -0.0263  0.0341
 3914TIP3    H133233   0.442   6.776  16.757 -0.2698  0.5548 -1.1551
 3914TIP3    H233234   0.460   6.627  16.781 -1.3567  0.7458  1.1376
 3915TIP3   OH233235   2.933   1.091  14.846 -0.2457  0.0359 -0.3684
 3915TIP3    H133236   2.845   1.067  14.816  0.0123  0.0825 -1.1989
 3915TIP3    H233237   2.981   1.112  14.766  0.5754 -0.1506  0.0535
 3916TIP3   OH233238   0.879   3.289  13.814  0.0543  0.1849  0.3000
 3916TIP3    H133239   0.874   3.383  13.795  1.3954  0.3823  0.7745
 3916TIP3    H233240   0.956   3.259  13.765 -0.4882 -0.7172 -0.0127
 3917TIP3   OH233241   0.723   6.547  15.383 -0.2552  0.3756 -0.7606
 3917TIP3    H133242   0.719   6.460  15.423  0.4546  0.4824 -0.4538
 3917TIP3    H233243   0.631   6.570  15.367 -0.4894 -0.0687 -0.0669
 3918TIP3   OH233244   5.857   1.940   3.976 -0.9072 -0.0880  0.0010
 3918TIP3    H133245   5.838   2.002   4.047  0.7086  1.4747 -0.8577
 3918TIP3    H233246   5.950   1.951   3.959 -0.7621 -2.1735 -0.7919
 3919TIP3   OH233247   0.031   6.729  10.308 -0.1930  0.0160  0.0307
 3919TIP3    H133248   0.003   6.679  10.231  1.4240 -3.1347  1.3230
 3919TIP3    H233249  -0.042   6.723  10.369 -0.3059 -0.0772 -0.1141
 3920TIP3   OH233250   2.195   2.981   1.844 -0.2263  0.0902 -0.0995
 3920TIP3    H133251   2.142   3.045   1.797 -1.2304  0.5164  1.5121
 3920TIP3    H233252   2.270   3.031   1.877 -0.3301  0.1501  0.0488
 3921TIP3   OH233253   3.774   6.425   4.869 -0.0165 -0.2210 -0.0216
 3921TIP3    H133254   3.836   6.394   4.934 -1.0553  0.0355  1.1342
 3921TIP3    H233255   3.825   6.484   4.813  0.7815 -0.0213  0.8894
 3922TIP3   OH233256   2.371   0.257   1.728  0.1874 -0.5766 -0.2256
 3922TIP3    H133257   2.414   0.321   1.785 -1.1598  1.5025 -1.4294
 3922TIP3    H233258   2.293   0.230   1.776  0.6587 -1.1968  0.2031
 3923TIP3   OH233259   5.363   4.888  15.981  0.1371 -0.0850 -0.3119
 3923TIP3    H133260   5.320   4.943  16.047 -1.9262 -1.7249 -0.1809
 3923TIP3    H233261   5.404   4.951  15.921  0.4633  1.4912  1.4505
 3924TIP3   OH233262   4.372   6.358   4.816 -0.0549 -0.9326  0.1402
 3924TIP3    H133263   4.367   6.350   4.912 -0.4938  2.3187  0.5137
 3924TIP3    H233264   4.364   6.452   4.800  0.6826 -1.3121 -3.0931
 3925TIP3   OH233265   3.289   5.868  16.495  0.0359 -0.5515 -0.3890
 3925TIP3    H133266   3.226   5.934  16.468  1.1449  1.0250  0.7173
 3925TIP3    H233267   3.361   5.875  16.432  1.8192  1.9265  1.6851
 3926TIP3   OH233268   6.089   5.759   0.601  0.1498  0.1759 -0.2202
 3926TIP3    H133269   5.999   5.760   0.569  0.0893  2.6102 -0.1441
 3926TIP3    H233270   6.097   5.839   0.653  2.0149 -0.6178  0.8067
 3927TIP3   OH233271   3.393   0.552   4.655  0.1126 -0.3246  0.0859
 3927TIP3    H133272   3.384   0.647   4.653  0.6439 -0.2521  0.6643
 3927TIP3    H233273   3.436   0.530   4.573  1.4442  0.1125  0.6440
 3928TIP3   OH233274   1.876   1.352  14.747 -0.2580 -0.7131 -0.3565
 3928TIP3    H133275   1.862   1.319  14.658 -2.0756 -0.4673 -0.2106
 3928TIP3    H233276   1.970   1.370  14.752 -0.0273 -1.2872 -2.0258
 3929TIP3   OH233277   2.056   1.826  17.142  0.6081  0.2423 -0.0819
 3929TIP3    H133278   2.007   1.887  17.087 -2.0068  0.1242  1.9105
 3929TIP3    H233279   2.046   1.861  17.230  1.5968 -1.4942  0.7633
 3930TIP3   OH233280   6.119   0.128  12.209  0.2384  0.0419 -0.9302
 3930TIP3    H133281   6.068   0.145  12.130 -1.8006  0.5342  0.4038
 3930TIP3    H233282   6.180   0.202  12.214 -0.4935  0.6908 -1.3832
 3931TIP3   OH233283   6.227   0.017  16.265  0.1725 -0.1897  0.0915
 3931TIP3    H133284   6.179   0.085  16.311  1.2767  1.5157 -1.1715
 3931TIP3    H233285   6.251   0.057  16.181  1.0182 -2.0740 -0.6240
 3932TIP3   OH233286   3.778   6.812  13.464 -0.6019 -0.6973  0.5225
 3932TIP3    H133287   3.853   6.850  13.417 -1.2045 -0.2266 -0.0741
 3932TIP3    H233288   3.790   6.841  13.555  0.0058 -0.7348  0.4601
 3933TIP3   OH233289   0.751   1.046   2.324 -0.7158  0.4561  0.3429
 3933TIP3    H133290   0.725   0.990   2.397 -2.6205 -1.5782 -1.7187
 3933TIP3    H233291   0.845   1.033   2.315 -0.7148 -0.4377  1.4527
 3934TIP3   OH233292   1.918   2.891   4.127  0.4924  0.4069 -0.2563
 3934TIP3    H133293   1.903   2.985   4.137 -0.2557  0.3298 -0.5714
 3934TIP3    H233294   1.908   2.855   4.215  2.8509  0.8636  0.2831
 3935TIP3   OH233295   1.196   2.713   1.791 -0.1098  0.0062  0.6446
 3935TIP3    H133296   1.235   2.713   1.878  1.1231  0.2967  0.0979
 3935TIP3    H233297   1.188   2.805   1.767  1.4125 -0.0798 -0.3454
 3936TIP3   OH233298   3.552   1.466  15.243 -0.3761 -0.6247 -0.1529
 3936TIP3    H133299   3.498   1.508  15.311 -0.1005 -1.5407  0.6518
 3936TIP3    H233300   3.492   1.454  15.169 -1.3122 -1.6762  0.7384
 3937TIP3   OH233301   6.587   4.982   3.900 -0.7826 -0.1144 -0.2434
 3937TIP3    H133302   6.597   5.029   3.983 -0.6887 -1.2636  0.4163
 3937TIP3    H233303   6.531   4.907   3.921 -1.2426 -0.1082 -1.3577
 3938TIP3   OH233304   3.270   3.132  12.781  0.4866  0.4176 -0.1080
 3938TIP3    H133305   3.183   3.150  12.747  0.1531  2.1730  1.4898
 3938TIP3    H233306   3.301   3.057  12.730 -0.5801  1.8346 -3.0016
 3939TIP3   OH233307   0.712   0.418   2.214  0.4413 -0.0543  0.2356
 3939TIP3    H133308   0.730   0.491   2.272  0.1498  1.1750 -1.1571
 3939TIP3    H233309   0.798   0.386   2.187  0.5931  0.9695 -0.5558
 3940TIP3   OH233310   0.964   6.162  13.841  0.3736 -0.3458  0.4464
 3940TIP3    H133311   0.994   6.241  13.795 -0.7724 -0.1306  0.0351
 3940TIP3    H233312   0.912   6.195  13.914 -0.7700 -0.7074 -0.1852
 3941TIP3   OH233313   1.258   6.681   5.776  0.0558  0.1972  0.0042
 3941TIP3    H133314   1.205   6.637   5.842  0.7710  0.8148  1.0142
 3941TIP3    H233315   1.346   6.684   5.814 -0.3421  4.4511  1.0877
 3942TIP3   OH233316   0.096   2.941  12.753 -0.9339 -0.4207 -0.0318
 3942TIP3    H133317   0.165   2.898  12.703  0.1799 -1.0649  1.9538
 3942TIP3    H233318   0.015   2.922  12.704 -0.2089 -2.9578 -0.3688
 3943TIP3   OH233319   1.673   6.148   0.151  0.5892  0.4482  0.0115
 3943TIP3    H133320   1.635   6.236   0.150 -0.2058  0.2247  2.8191
 3943TIP3    H233321   1.729   6.148   0.229  0.4854 -1.5652  0.1253
 3944TIP3   OH233322   5.961   2.702   1.994 -0.3750 -0.0047 -0.0834
 3944TIP3    H133323   5.888   2.646   2.020  0.0979 -0.0654  1.1914
 3944TIP3    H233324   6.029   2.640   1.966 -0.6862  0.0399 -0.9652
 3945TIP3   OH233325   0.619   6.102  15.407  0.6167 -0.2792 -0.6995
 3945TIP3    H133326   0.574   6.070  15.328  1.4662 -2.8198 -0.2705
 3945TIP3    H233327   0.579   6.052  15.478  1.3156  0.4200  0.1932
 3946TIP3   OH233328   3.894   4.141   1.331 -0.0574  0.1238 -0.8884
 3946TIP3    H133329   3.816   4.114   1.283 -1.0404  1.3358 -0.0163
 3946TIP3    H233330   3.865   4.212   1.387  1.5693  0.2569 -0.1532
 3947TIP3   OH233331   4.641   4.832  13.054 -0.1529  0.2226 -0.2764
 3947TIP3    H133332   4.601   4.893  12.992 -0.4329 -0.3071 -0.6259
 3947TIP3    H233333   4.570   4.810  13.115  0.2399  1.1011  0.5304
 3948TIP3   OH233334   0.815   1.334  11.713 -0.2161 -0.3673 -0.3863
 3948TIP3    H133335   0.768   1.251  11.707  1.7208 -1.5192 -0.5155
 3948TIP3    H233336   0.798   1.365  11.802 -0.3765 -1.2793 -0.0863
 3949TIP3   OH233337   3.484   6.370   6.887  0.2471 -0.1595  0.1280
 3949TIP3    H133338   3.538   6.347   6.811  1.6728  1.6641  0.5179
 3949TIP3    H233339   3.509   6.460   6.908 -1.3782 -0.0152  1.7120
 3950TIP3   OH233340   5.898   0.521  11.722 -0.1482 -0.2593  0.3982
 3950TIP3    H133341   5.986   0.556  11.735  1.2753 -1.3104 -4.4877
 3950TIP3    H233342   5.840   0.595  11.740  1.8119  1.0360  1.8293
 3951TIP3   OH233343   5.975   4.125  11.740 -0.4840 -0.4122 -0.1241
 3951TIP3    H133344   5.938   4.091  11.822  0.1977 -2.3800 -0.5698
 3951TIP3    H233345   6.062   4.084  11.734  0.8656  2.2682 -0.2473
 3952TIP3   OH233346   0.023   1.748  15.485  0.4799 -0.1289 -0.3552
 3952TIP3    H133347   0.084   1.675  15.478  0.7811  0.1932 -1.1513
 3952TIP3    H233348  -0.048   1.727  15.425 -0.7144 -0.9616  1.2544
 3953TIP3   OH233349   0.723   2.890   1.911 -0.1487  0.5752 -0.2625
 3953TIP3    H133350   0.723   2.935   1.995 -3.2470 -1.8667  1.2450
 3953TIP3    H233351   0.663   2.941   1.857 -1.6968 -0.2684  0.6011
 3954TIP3   OH233352   3.075   1.785   1.359 -0.0959  0.8140 -0.1464
 3954TIP3    H133353   3.044   1.874   1.373 -1.1973  0.1268  2.3602
 3954TIP3    H233354   3.010   1.746   1.300 -1.3917  0.8166  1.2219
 3955TIP3   OH233355   1.406   2.438   5.733 -0.0993  0.4539 -0.0515
 3955TIP3    H133356   1.428   2.424   5.826  0.9386  1.8869 -0.0413
 3955TIP3    H233357   1.318   2.475   5.734 -0.0502  0.5628  0.3717
 3956TIP3   OH233358   6.789   5.475  16.873  0.2560 -0.9236 -0.2118
 3956TIP3    H133359   6.825   5.465  16.785 -0.2264 -0.3200 -0.4825
 3956TIP3    H233360   6.828   5.555  16.906 -0.3316 -0.6074 -0.2642
 3957TIP3   OH233361   0.483   0.565  16.864 -0.3833  0.1353  0.3159
 3957TIP3    H133362   0.543   0.638  16.850 -0.6544  0.0806 -1.3060
 3957TIP3    H233363   0.518   0.495  16.808 -1.4273 -0.1943  0.0565
 3958TIP3   OH233364   1.952   0.825  15.988 -0.0412 -0.1454  0.1339
 3958TIP3    H133365   1.867   0.781  15.999 -0.8394  1.1508 -0.5208
 3958TIP3    H233366   1.980   0.800  15.900 -0.1117  0.0117  0.0655
 3959TIP3   OH233367   3.237   4.002  12.687 -0.1888  0.5569  0.4061
 3959TIP3    H133368   3.325   4.023  12.719  0.2586 -0.0131 -0.3875
 3959TIP3    H233369   3.180   4.016  12.762  0.6254  0.6221  1.0336
 3960TIP3   OH233370   3.170   6.023  14.700  0.1896  0.1680 -0.2330
 3960TIP3    H133371   3.171   6.093  14.765  1.2122  0.2266 -0.2996
 3960TIP3    H233372   3.130   5.949  14.745  0.0957  0.4677  0.1814
 3961TIP3   OH233373   1.697   2.059  13.675  0.0102  0.1601  0.1273
 3961TIP3    H133374   1.787   2.033  13.657  0.1786  0.8338 -0.0248
 3961TIP3    H233375   1.647   1.977  13.672  0.6415 -0.2398  0.3816
 3962TIP3   OH233376   6.303   0.889  12.626  0.6992  0.2143  0.1721
 3962TIP3    H133377   6.223   0.911  12.578  0.2328  0.2469  0.9429
 3962TIP3    H233378   6.366   0.866  12.558  1.2570  3.8321 -0.7839
 3963TIP3   OH233379   3.022   4.274  11.348  0.2463  0.2993 -0.0679
 3963TIP3    H133380   3.043   4.246  11.259 -0.8198  0.7333 -0.4679
 3963TIP3    H233381   3.023   4.369  11.345 -1.9507  0.3666 -0.1862
 3964TIP3   OH233382   3.542   2.701  16.795 -0.1250 -0.3004  0.2556
 3964TIP3    H133383   3.520   2.730  16.884 -1.2356  0.6414 -0.2928
 3964TIP3    H233384   3.631   2.668  16.802  0.1929  0.7186  1.5175
 3965TIP3   OH233385   3.590   4.210  16.793 -0.6863 -0.5796 -0.2498
 3965TIP3    H133386   3.643   4.172  16.723 -1.0335  1.7853 -1.9084
 3965TIP3    H233387   3.604   4.304  16.785 -2.3778 -0.1112  1.5633
 3966TIP3   OH233388   0.012   0.264  13.077  0.6328  0.5010 -0.0702
 3966TIP3    H133389   0.071   0.339  13.077 -0.0764  1.1727  2.3099
 3966TIP3    H233390   0.051   0.203  13.139 -1.2138  1.0937  1.8023
 3967TIP3   OH233391   2.966   5.019  16.560  0.0192 -0.2312  0.3478
 3967TIP3    H133392   2.881   5.024  16.604  1.1711  0.4191  2.6583
 3967TIP3    H233393   2.998   4.930  16.580 -0.1398 -0.5116 -0.6001
 3968TIP3   OH233394   0.735   4.588  14.889  0.4851 -0.2290  0.2525
 3968TIP3    H133395   0.786   4.590  14.808  1.1628  1.7504  0.6703
 3968TIP3    H233396   0.779   4.522  14.944  0.0122 -1.5873 -0.9403
 3969TIP3   OH233397   5.086   5.685   2.293  0.4489 -0.4237 -0.2855
 3969TIP3    H133398   5.105   5.637   2.212 -3.4488 -1.9006 -0.5492
 3969TIP3    H233399   5.071   5.616   2.358  0.4743  0.6380  0.8776
 3970TIP3   OH233400   6.145   6.466  14.152 -0.3156  0.0171 -0.2275
 3970TIP3    H133401   6.227   6.423  14.131 -0.7098 -0.4373 -0.8792
 3970TIP3    H233402   6.158   6.501  14.240 -0.0350 -1.6237  0.4279
 3971TIP3   OH233403   4.525   3.016  14.537 -0.4077 -0.2062 -0.5598
 3971TIP3    H133404   4.474   2.935  14.526  0.1902 -0.4739 -1.5083
 3971TIP3    H233405   4.479   3.081  14.484  1.7145 -1.1564 -3.9186
 3972TIP3   OH233406   0.650   6.409   5.728  0.0818  0.2496  0.2341
 3972TIP3    H133407   0.693   6.337   5.774 -1.6283 -0.5019  0.7343
 3972TIP3    H233408   0.652   6.481   5.791  1.9255  0.7438 -0.3200
 3973TIP3   OH233409   5.123   6.053  14.899 -0.3728  0.2004  0.1010
 3973TIP3    H133410   5.109   6.026  14.808  0.8665  1.0602 -0.3703
 3973TIP3    H233411   5.194   6.117  14.895  0.0426 -0.1020  1.7346
 3974TIP3   OH233412   2.461   2.575   5.264  0.3178  0.3599 -0.2522
 3974TIP3    H133413   2.511   2.656   5.255 -2.0703  1.7803 -2.1515
 3974TIP3    H233414   2.491   2.537   5.347  2.1861  2.6949  0.2485
 3975TIP3   OH233415   5.726   2.711   1.344  0.3197  0.1706  0.3482
 3975TIP3    H133416   5.700   2.743   1.430  0.1011 -0.7113  0.6160
 3975TIP3    H233417   5.779   2.782   1.307 -0.6987  1.1137  0.6490
 3976TIP3   OH233418   5.827   1.029   2.013  0.8050  0.8192 -0.3406
 3976TIP3    H133419   5.907   1.021   1.962  1.3398  0.8598  0.4659
 3976TIP3    H233420   5.779   1.100   1.972  0.4943 -0.1447 -1.7126
 3977TIP3   OH233421   0.402   4.217  15.287 -0.8046  1.2736 -0.3672
 3977TIP3    H133422   0.322   4.263  15.312 -0.2902  2.2022 -0.3905
 3977TIP3    H233423   0.453   4.213  15.367 -1.4003 -0.4714 -0.0322
 3978TIP3   OH233424   4.602   6.418   2.820  0.1832 -0.0184 -1.2527
 3978TIP3    H133425   4.582   6.329   2.791 -1.1608  0.0439 -0.5999
 3978TIP3    H233426   4.530   6.471   2.787  0.2702  0.5896 -0.4971
 3979TIP3   OH233427   4.504   6.607   6.418  0.5680  0.1468 -0.4972
 3979TIP3    H133428   4.584   6.571   6.456 -0.3073 -0.7032  0.6179
 3979TIP3    H233429   4.486   6.552   6.342  1.6677  1.0933 -1.4808
 3980TIP3   OH233430   0.170   4.351  14.122  0.6463  0.3860  0.0885
 3980TIP3    H133431   0.232   4.278  14.125 -0.9659 -1.0547  0.8138
 3980TIP3    H233432   0.202   4.413  14.187  0.4063 -1.1831  1.7890
 3981TIP3   OH233433   3.206   3.450  17.100 -0.5997  0.6489 -0.4631
 3981TIP3    H133434   3.299   3.431  17.086 -0.6359  0.1770 -0.0993
 3981TIP3    H233435   3.195   3.540  17.069 -0.4629  0.0298 -2.5087
 3982TIP3   OH233436   0.702   4.254   5.454  0.0837  0.1303 -0.2134
 3982TIP3    H133437   0.752   4.267   5.374 -0.3072 -2.8302 -1.0904
 3982TIP3    H233438   0.644   4.180   5.434 -2.9755  1.8377  1.5195
 3983TIP3   OH233439   6.408   3.251   4.002 -0.2267 -0.7530  0.1319
 3983TIP3    H133440   6.370   3.205   3.927 -0.3618 -1.1937  0.4697
 3983TIP3    H233441   6.438   3.181   4.060  0.7231 -0.4176  0.0676
 3984TIP3   OH233442   6.111   3.401   5.456  0.2528  0.0146 -0.0203
 3984TIP3    H133443   6.107   3.458   5.378 -2.6834 -0.2783 -0.1939
 3984TIP3    H233444   6.125   3.314   5.420 -0.4982 -0.0416 -0.1875
 3985TIP3   OH233445   6.720   5.256   5.229  0.4532  0.3223 -0.2172
 3985TIP3    H133446   6.712   5.254   5.134  1.5677 -0.2830 -0.3160
 3985TIP3    H233447   6.640   5.299   5.259 -0.2256 -0.0755 -1.3828
 3986TIP3   OH233448   1.825   4.261  13.731 -0.2956 -0.2145  0.2319
 3986TIP3    H133449   1.804   4.180  13.778  0.4167 -2.5018 -3.0330
 3986TIP3    H233450   1.750   4.276  13.674  0.2188  0.6145 -0.2419
 3987TIP3   OH233451   0.756   6.169  13.606 -0.1657 -0.2135 -0.0626
 3987TIP3    H133452   0.825   6.168  13.672 -1.5347 -1.3204  1.4208
 3987TIP3    H233453   0.717   6.256  13.613  1.9955  1.0318 -2.0179
 3988TIP3   OH233454   1.104   6.314  12.140 -0.4732 -0.7773 -0.4787
 3988TIP3    H133455   1.066   6.323  12.228 -0.3499 -0.9062 -0.4113
 3988TIP3    H233456   1.033   6.282  12.086 -0.4580 -1.0311 -0.3500
 3989TIP3   OH233457   0.238   2.111  13.678  0.0402 -0.0410  0.5738
 3989TIP3    H133458   0.284   2.103  13.762 -0.9542 -1.4212  1.0222
 3989TIP3    H233459   0.285   2.181  13.632  1.9464 -0.6840  1.4121
 3990TIP3   OH233460   2.822   4.541   2.034  0.3593 -0.1095 -0.1957
 3990TIP3    H133461   2.863   4.455   2.045  0.6086  0.0092 -0.1884
 3990TIP3    H233462   2.892   4.603   2.053  0.4829  0.0959 -1.2247
 3991TIP3   OH233463   5.300   5.796   2.412  0.2768 -0.0586  0.6417
 3991TIP3    H133464   5.318   5.739   2.486 -2.1411  0.5094  1.7462
 3991TIP3    H233465   5.229   5.753   2.364  1.3688 -0.1003 -1.0475
 3992TIP3   OH233466   2.884   0.814  15.419 -0.4310 -0.1180 -0.1864
 3992TIP3    H133467   2.803   0.855  15.390 -1.2816 -0.0882  2.0748
 3992TIP3    H233468   2.857   0.747  15.482  1.3338  1.4118  2.4044
 3993TIP3   OH233469   3.955   1.107  14.219  0.0626 -0.4052 -0.7295
 3993TIP3    H133470   3.866   1.091  14.250  0.9718 -1.9135  1.3215
 3993TIP3    H233471   3.966   1.046  14.146 -0.9127  0.6181 -1.7839
 3994TIP3   OH233472   2.237   1.270  15.111 -0.3092  0.6704  0.5147
 3994TIP3    H133473   2.331   1.271  15.093 -0.3411  2.4509  0.1911
 3994TIP3    H233474   2.230   1.283  15.205 -0.2244  1.6146  0.3987
 3995TIP3   OH233475   4.488   5.843   5.713 -0.6378  0.2448 -0.6419
 3995TIP3    H133476   4.500   5.788   5.635 -1.7469 -1.3300  0.2414
 3995TIP3    H233477   4.551   5.807   5.777 -0.9718  0.3722 -0.2413
 3996TIP3   OH233478   6.597   3.800   1.267  0.2097 -0.1562  0.7826
 3996TIP3    H133479   6.570   3.768   1.353 -0.3658 -0.3444  0.5360
 3996TIP3    H233480   6.545   3.879   1.253 -0.0196 -0.3719  0.4160
 3997TIP3   OH233481   5.459   4.874  16.651  0.1414  0.4954 -0.1276
 3997TIP3    H133482   5.421   4.798  16.694  2.2856 -0.5403  0.0597
 3997TIP3    H233483   5.427   4.869  16.561 -0.7478  0.1013  0.2037
 3998TIP3   OH233484   0.887   0.698   5.271 -0.0927  0.1687 -0.5347
 3998TIP3    H133485   0.865   0.742   5.188 -1.0153 -0.5684 -0.7000
 3998TIP3    H233486   0.808   0.648   5.293 -0.7476  2.0673  1.9467
 3999TIP3   OH233487   5.077   1.900   0.440 -0.3578  0.4250  0.3655
 3999TIP3    H133488   5.159   1.909   0.393 -1.5202  1.9803 -1.5013
 3999TIP3    H233489   5.099   1.923   0.531  1.6565 -1.3639  0.4156
 4000TIP3   OH233490   6.453   0.065   0.643 -0.3154 -0.0697  0.6784
 4000TIP3    H133491   6.517   0.093   0.577 -2.2335 -0.3760 -1.4363
 4000TIP3    H233492   6.410   0.145   0.671 -0.4835 -0.0934  0.4859
 4001TIP3   OH233493   3.502   6.133  11.699 -0.1659 -0.3943  0.3597
 4001TIP3    H133494   3.499   6.086  11.616  2.0380 -1.5023  0.8349
 4001TIP3    H233495   3.410   6.145  11.723 -0.8546 -0.0989 -2.1690
 4002TIP3   OH233496   5.279   1.724   0.574  0.1323  1.0362 -0.8754
 4002TIP3    H133497   5.238   1.787   0.633  0.6173  0.6965 -0.1695
 4002TIP3    H233498   5.208   1.665   0.549  0.3252 -0.0941  1.0526
 4003TIP3   OH233499   3.637   1.998   2.144  0.4443  0.0609  0.2341
 4003TIP3    H133500   3.645   2.048   2.225  1.6739  0.5248 -0.1527
 4003TIP3    H233501   3.545   1.971   2.142  0.3528  0.1879  1.6827
 4004TIP3   OH233502   6.140   6.802  15.292  0.1334 -0.2078  0.1194
 4004TIP3    H133503   6.098   6.733  15.240  0.0916 -2.3845  2.7961
 4004TIP3    H233504   6.232   6.777  15.295  0.3238  0.4913  0.2119
 4005TIP3   OH233505   4.462   4.979   4.709  0.4341  0.6668  0.2923
 4005TIP3    H133506   4.533   5.039   4.684  0.1859  0.4763 -0.9533
 4005TIP3    H233507   4.466   4.909   4.644 -0.0143 -0.0703  1.0484
 4006TIP3   OH233508   5.012   3.677  11.318 -0.1810  0.2418 -0.6152
 4006TIP3    H133509   5.004   3.583  11.332 -2.9926  0.7450  2.6260
 4006TIP3    H233510   5.085   3.704  11.373 -1.5181  0.2605  1.2563
 4007TIP3   OH233511   4.315   4.153   3.397  0.2944  0.3311 -0.1642
 4007TIP3    H133512   4.381   4.187   3.337 -0.1253  3.1822  0.8171
 4007TIP3    H233513   4.349   4.173   3.485 -0.0773 -1.7935  0.5207
 4008TIP3   OH233514   0.216   2.144  12.077 -0.2621  0.1344  0.8672
 4008TIP3    H133515   0.209   2.163  11.983  0.1684  0.9533  0.9935
 4008TIP3    H233516   0.176   2.057  12.087  1.2330 -0.7562 -0.3616
 4009TIP3   OH233517   3.836   2.425  11.248  0.2306 -0.1311 -0.4322
 4009TIP3    H133518   3.890   2.385  11.181 -0.9187 -0.5810 -1.1245
 4009TIP3    H233519   3.750   2.384  11.237 -0.1748  0.3291  0.8310
 4010TIP3   OH233520   6.668   4.114   0.832  0.2194  0.0176  0.0904
 4010TIP3    H133521   6.681   4.019   0.823  0.7143 -0.0256  1.1718
 4010TIP3    H233522   6.664   4.146   0.742  0.3129 -0.9926 -0.2863
 4011TIP3   OH233523   2.319   1.578  11.021 -0.4010 -0.3096  0.4245
 4011TIP3    H133524   2.342   1.586  10.928 -0.0467 -0.0887  0.5281
 4011TIP3    H233525   2.237   1.627  11.030 -0.4043 -0.2801  0.2414
 4012TIP3   OH233526   0.627   4.397   1.280 -0.4674 -0.1418  0.0715
 4012TIP3    H133527   0.535   4.412   1.259 -0.4234  1.2040  0.6836
 4012TIP3    H233528   0.625   4.340   1.357 -0.7155 -1.7803 -1.1107
 4013TIP3   OH233529   6.074   6.108   5.966 -0.1124 -0.1407 -0.3054
 4013TIP3    H133530   6.166   6.132   5.955  0.0159 -0.7859 -0.6744
 4013TIP3    H233531   6.040   6.172   6.029  0.8235 -0.4657  0.5657
 4014TIP3   OH233532   3.228   2.829  13.400 -0.4765 -0.1230 -0.2023
 4014TIP3    H133533   3.264   2.881  13.328 -2.1769  0.8612 -0.3996
 4014TIP3    H233534   3.300   2.820  13.462  0.5741  0.3228 -1.3285
 4015TIP3   OH233535   0.146   3.687  13.702 -0.0209  0.2923  0.3647
 4015TIP3    H133536   0.154   3.655  13.791  0.1693  0.9696  0.5945
 4015TIP3    H233537   0.054   3.713  13.694 -0.3578 -0.9685 -0.0554
 4016TIP3   OH233538   5.038   6.573   0.448  0.1946  0.0386 -0.4029
 4016TIP3    H133539   5.111   6.564   0.386 -0.2978  0.2593 -1.0286
 4016TIP3    H233540   5.073   6.541   0.531  1.1449  0.5456 -0.5915
 4017TIP3   OH233541   1.971   1.249  16.807 -0.2098  0.2879  0.3311
 4017TIP3    H133542   1.947   1.326  16.859 -1.9303  0.0807 -0.1077
 4017TIP3    H233543   1.919   1.177  16.845 -0.9446 -0.0181 -1.1695
 4018TIP3   OH233544   4.883   5.728  16.688 -0.2889  0.1052  0.1514
 4018TIP3    H133545   4.916   5.685  16.767 -0.0625  0.3986  0.2214
 4018TIP3    H233546   4.817   5.789  16.720  0.6790  1.1359  0.2728
 4019TIP3   OH233547   5.285   5.829   3.547 -1.1277  0.8347  0.0645
 4019TIP3    H133548   5.215   5.894   3.552 -2.3740 -0.4010 -0.7102
 4019TIP3    H233549   5.330   5.849   3.465 -2.2842  0.0320 -0.8149
 4020TIP3   OH233550   6.626   4.018  10.703  0.1171  0.2119 -0.3426
 4020TIP3    H133551   6.613   3.959  10.628 -0.6635 -0.4975  0.3344
 4020TIP3    H233552   6.705   4.068  10.681 -0.5931  0.6529 -2.0467
 4021TIP3   OH233553   4.403   0.438   3.419  0.0802 -0.1099  0.0243
 4021TIP3    H133554   4.449   0.521   3.421  0.1781 -0.1627 -0.0331
 4021TIP3    H233555   4.436   0.390   3.496  0.3146 -0.2514 -0.1649
 4022TIP3   OH233556   5.748   2.042  16.696 -0.5314  0.3735 -0.2479
 4022TIP3    H133557   5.733   1.948  16.710  0.3698  0.4248  1.2917
 4022TIP3    H233558   5.761   2.078  16.784 -3.1130  2.3872 -0.5615
 4023TIP3   OH233559   4.619   3.877  16.868 -0.6670 -0.0875 -0.0375
 4023TIP3    H133560   4.676   3.871  16.945  0.3762  1.8381 -0.6089
 4023TIP3    H233561   4.671   3.839  16.798 -0.0685  1.5955 -0.5435
 4024TIP3   OH233562   6.471   1.591   5.813 -0.2095 -0.0084 -0.5781
 4024TIP3    H133563   6.449   1.581   5.906 -0.4646  0.5956 -0.5677
 4024TIP3    H233564   6.539   1.526   5.797  2.1604  1.9965  0.7969
 4025TIP3   OH233565   1.656   0.847  13.444 -0.7137 -0.0850  0.1400
 4025TIP3    H133566   1.667   0.920  13.506 -0.2181 -2.4162  3.0207
 4025TIP3    H233567   1.573   0.807  13.468 -0.6056 -0.9385 -0.8522
 4026TIP3   OH233568   2.070   5.434   1.422  0.5700  0.6934 -0.0832
 4026TIP3    H133569   2.090   5.381   1.499 -1.6764 -2.7025 -1.5943
 4026TIP3    H233570   2.152   5.437   1.373  0.8335 -1.3490  0.1596
 4027TIP3   OH233571   3.394   4.357  15.375  0.1002  0.2803  0.1014
 4027TIP3    H133572   3.412   4.275  15.420  0.8136  0.6986  0.6039
 4027TIP3    H233573   3.394   4.423  15.444  3.7973  1.3457 -0.6638
 4028TIP3   OH233574   2.932   0.513   3.908  0.1429  0.6549 -0.0444
 4028TIP3    H133575   2.846   0.546   3.935  1.0474  1.9982  1.2867
 4028TIP3    H233576   2.969   0.475   3.987  0.5950 -0.3904 -0.7376
 4029TIP3   OH233577   6.226   3.281   0.783  0.6149  0.0616 -0.3582
 4029TIP3    H133578   6.222   3.280   0.688  1.5737  0.8775 -0.4304
 4029TIP3    H233579   6.176   3.359   0.809 -0.5303 -0.7356 -0.1215
 4030TIP3   OH233580   1.116   5.689  15.336 -0.0612 -0.2013 -0.3493
 4030TIP3    H133581   1.030   5.673  15.298  0.0523  1.7361 -1.5972
 4030TIP3    H233582   1.173   5.701  15.260  0.5661  1.9412  0.3969
 4031TIP3   OH233583   1.410   1.965  11.846  0.0917  0.1463 -0.3047
 4031TIP3    H133584   1.364   2.022  11.784  1.5104 -1.0046 -2.5578
 4031TIP3    H233585   1.503   1.975  11.823  0.9837  1.3637  3.1930
 4032TIP3   OH233586   4.633   0.578  11.312  0.0931 -0.0286  0.2173
 4032TIP3    H133587   4.725   0.579  11.285 -0.0849 -0.4996 -0.4714
 4032TIP3    H233588   4.598   0.662  11.282  0.0083 -0.3622 -0.6778
 4033TIP3   OH233589   1.884   2.191  10.667 -0.2528  0.5222  0.1942
 4033TIP3    H133590   1.952   2.234  10.615 -0.2189  0.4408  0.1717
 4033TIP3    H233591   1.824   2.154  10.603  0.5238 -0.7846  0.1692
 4034TIP3   OH233592   3.601   0.581  11.213  0.1116 -0.2402 -0.2168
 4034TIP3    H133593   3.676   0.630  11.180  0.3603  0.2026  0.9624
 4034TIP3    H233594   3.579   0.623  11.296 -0.7897 -1.0173 -0.0423
 4035TIP3   OH233595   6.687   6.150   3.580  0.0234 -0.2387  0.0178
 4035TIP3    H133596   6.782   6.144   3.575  0.2324  1.2500  1.4362
 4035TIP3    H233597   6.665   6.112   3.665 -0.8487 -1.9831 -0.9226
 4036TIP3   OH233598   4.916   0.214   3.681 -0.1535  0.5260 -0.3613
 4036TIP3    H133599   4.853   0.265   3.630 -0.7104 -0.4147 -0.6541
 4036TIP3    H233600   4.897   0.236   3.772 -1.9479 -0.8491 -0.3551
 4037TIP3   OH233601   1.359   2.259   6.268  0.0977 -0.2966 -0.1766
 4037TIP3    H133602   1.417   2.280   6.340 -0.2062 -1.5836  0.4830
 4037TIP3    H233603   1.271   2.264   6.306 -0.1679  0.4582 -0.8532
 4038TIP3   OH233604   3.919   2.886   3.873  0.6037 -0.1791 -0.3643
 4038TIP3    H133605   3.886   2.891   3.963 -0.4179 -0.6075 -0.6982
 4038TIP3    H233606   3.925   2.792   3.855  2.0703 -0.1153 -0.3100
 4039TIP3   OH233607   3.827   5.675   5.691 -0.3973 -0.0979  0.0851
 4039TIP3    H133608   3.834   5.759   5.646 -0.8452  1.5005  2.7836
 4039TIP3    H233609   3.746   5.683   5.743 -1.0506 -2.6494 -0.4126
 4040TIP3   OH233610   2.875   3.957   2.261  0.0675  0.3787  1.2321
 4040TIP3    H133611   2.841   4.020   2.198  2.4916 -0.3973 -1.0090
 4040TIP3    H233612   2.797   3.925   2.307 -1.9464  0.5734 -1.7666
 4041TIP3   OH233613   2.894   3.362   0.421 -0.4935  0.0076 -0.1789
 4041TIP3    H133614   2.928   3.295   0.362 -1.4520 -1.6557  1.1001
 4041TIP3    H233615   2.956   3.435   0.413 -0.5015 -0.1841 -3.1096
 4042TIP3   OH233616   3.790   3.169   0.739 -0.5151 -0.2607  0.0623
 4042TIP3    H133617   3.705   3.134   0.765 -1.0828 -1.0693 -2.5488
 4042TIP3    H233618   3.820   3.110   0.669  2.3115 -0.1147  1.0153
 4043TIP3   OH233619   4.287   4.039  16.926  0.2603  0.2029  0.0542
 4043TIP3    H133620   4.255   4.032  16.836  1.1358 -0.1905 -0.2386
 4043TIP3    H233621   4.234   4.109  16.965  0.4377  0.9620 -1.0186
 4044TIP3   OH233622   2.591   5.202   1.953 -0.0672 -0.5798 -0.2105
 4044TIP3    H133623   2.630   5.182   1.868 -0.0446 -1.1148 -0.0752
 4044TIP3    H233624   2.514   5.255   1.932  0.5006  0.1530 -0.5015
 4045TIP3   OH233625   0.216   3.898   6.284  0.2078  0.2109 -0.9579
 4045TIP3    H133626   0.219   3.942   6.369 -1.8856 -1.0499 -0.1471
 4045TIP3    H233627   0.304   3.908   6.249  0.5982  2.5189  0.4315
 4046TIP3   OH233628   1.361   1.855  14.867  0.0215 -0.2323 -0.0050
 4046TIP3    H133629   1.292   1.885  14.926 -1.0606  0.0400 -1.3496
 4046TIP3    H233630   1.334   1.767  14.841  0.9713 -0.7229  0.5922
 4047TIP3   OH233631   3.379   4.846   3.732  0.0106  0.3064  0.3514
 4047TIP3    H133632   3.426   4.770   3.767  0.2810  0.8681  1.2613
 4047TIP3    H233633   3.417   4.921   3.778 -1.8084  0.7867  1.1814
 4048TIP3   OH233634   6.207   1.064  15.100  0.3832  0.0871 -0.6003
 4048TIP3    H133635   6.273   1.113  15.052 -0.7150 -0.0693 -2.3674
 4048TIP3    H233636   6.210   1.100  15.189  1.7314  1.1602 -1.0471
 4049TIP3   OH233637   1.488   3.165  15.593 -0.3622 -0.3733 -0.1432
 4049TIP3    H133638   1.561   3.106  15.609 -0.5442  0.1032  2.9141
 4049TIP3    H233639   1.410   3.112  15.613 -0.7452 -0.1792 -1.0805
 4050TIP3   OH233640   4.895   0.611  12.097  0.0896  0.2853  0.0114
 4050TIP3    H133641   4.852   0.527  12.078 -0.2763  0.2376  1.0276
 4050TIP3    H233642   4.890   0.659  12.014  0.8464 -0.9242 -0.7667
 4051TIP3   OH233643   3.913   2.140   0.187 -0.5242  0.4742  0.5631
 4051TIP3    H133644   3.838   2.093   0.224 -0.3280  0.7613  1.3471
 4051TIP3    H233645   3.887   2.233   0.191 -0.7119  0.4818 -0.5232
 4052TIP3   OH233646   2.652   5.582   5.629  0.3723  0.3242  0.0861
 4052TIP3    H133647   2.604   5.534   5.561 -3.2868  2.0975  1.1715
 4052TIP3    H233648   2.668   5.516   5.697  0.6019 -0.5954 -0.8295
 4053TIP3   OH233649   1.207   2.285   4.486 -0.0702  0.6568 -0.0051
 4053TIP3    H133650   1.158   2.299   4.405  0.2216 -1.0719 -0.5225
 4053TIP3    H233651   1.298   2.274   4.457  0.3222  1.8311  0.7451
 4054TIP3   OH233652   4.323   3.389   1.784 -0.0264  0.5267 -0.0208
 4054TIP3    H133653   4.277   3.328   1.726 -0.9153  1.8696 -0.7858
 4054TIP3    H233654   4.259   3.457   1.803  0.7454  0.9204  1.3082
 4055TIP3   OH233655   0.050   2.550  15.501 -0.3315 -0.5248 -0.2227
 4055TIP3    H133656   0.031   2.473  15.446 -2.1416 -0.8491  0.7812
 4055TIP3    H233657  -0.000   2.536  15.581 -0.5483  1.6047  0.0834
 4056TIP3   OH233658   3.164   6.702  14.895  0.1968  0.8703  0.2171
 4056TIP3    H133659   3.179   6.633  14.960 -0.8360 -0.8222 -1.2421
 4056TIP3    H233660   3.098   6.759  14.935  0.7619  0.7987  1.2812
 4057TIP3   OH233661   4.551   2.468  16.484  0.1107 -0.0517 -0.5965
 4057TIP3    H133662   4.485   2.458  16.415 -1.2048  0.7089  0.5164
 4057TIP3    H233663   4.622   2.410  16.457 -1.3229 -1.4982 -1.4541
 4058TIP3   OH233664   0.762   2.577  14.133 -0.0442 -0.1650 -0.1532
 4058TIP3    H133665   0.731   2.487  14.121 -1.5760  0.3886 -0.5278
 4058TIP3    H233666   0.797   2.578  14.222  2.1957 -1.7081 -0.9143
 4059TIP3   OH233667   2.734   6.345   4.873 -0.1299 -0.5087  0.2040
 4059TIP3    H133668   2.689   6.358   4.956  0.2886  0.2386  0.3197
 4059TIP3    H233669   2.672   6.373   4.806  1.6162  5.3455  0.4759
 4060TIP3   OH233670   4.831   3.055  13.272  0.5127  0.6666  0.5786
 4060TIP3    H133671   4.805   3.089  13.187  0.3735  0.1166  0.3947
 4060TIP3    H233672   4.808   2.962  13.269  1.4351  0.4176  0.8366
 4061TIP3   OH233673   0.812   2.142  16.203 -0.2527  0.0983 -0.8987
 4061TIP3    H133674   0.776   2.063  16.163 -0.1509  0.3352 -1.4663
 4061TIP3    H233675   0.766   2.149  16.287  1.0163 -1.5665  0.0044
 4062TIP3   OH233676   5.847   2.996  10.103 -0.0119  0.1542 -0.6113
 4062TIP3    H133677   5.867   3.073  10.049  1.1709  0.1567 -0.1890
 4062TIP3    H233678   5.906   2.928  10.069 -0.7352 -0.4435 -0.6844
 4063TIP3   OH233679   3.014   1.860   5.435 -0.3602 -0.4910  0.4985
 4063TIP3    H133680   3.107   1.855   5.414 -0.6682 -1.0999 -0.8821
 4063TIP3    H233681   2.988   1.770   5.451 -0.6870 -0.3034  1.0583
 4064TIP3   OH233682   1.107   1.573   2.309  0.7936 -0.5835 -0.2856
 4064TIP3    H133683   1.174   1.641   2.315  2.2401 -2.0275  0.6368
 4064TIP3    H233684   1.025   1.618   2.330  1.5693  1.0648 -0.6772
 4065TIP3   OH233685   6.523   6.446   1.518 -0.1566 -0.1296  0.2410
 4065TIP3    H133686   6.549   6.403   1.437 -2.9229 -0.1370 -0.7143
 4065TIP3    H233687   6.523   6.376   1.583  0.5310 -0.4373 -0.0777
 4066TIP3   OH233688   1.392   1.444  11.464 -0.2393  0.5707  0.5842
 4066TIP3    H133689   1.439   1.484  11.538 -0.2260  0.5966  0.5620
 4066TIP3    H233690   1.427   1.488  11.387  0.8170 -0.4718  0.4364
 4067TIP3   OH233691   3.503   1.588   3.065  0.1604  0.1679  0.2943
 4067TIP3    H133692   3.574   1.560   3.123 -0.3551 -0.4160  0.6635
 4067TIP3    H233693   3.435   1.521   3.076  0.3874 -0.4477 -1.6371
 4068TIP3   OH233694   2.488   2.733   3.677 -0.1977  0.1906 -0.5424
 4068TIP3    H133695   2.465   2.702   3.765  1.0283  0.8684  0.0408
 4068TIP3    H233696   2.549   2.667   3.644 -0.4919  0.0478 -0.8002
 4069TIP3   OH233697   2.203   3.458  14.385  0.0434 -0.3662 -0.7910
 4069TIP3    H133698   2.294   3.486  14.390 -0.0983  0.0462 -0.4271
 4069TIP3    H233699   2.152   3.539  14.393 -0.3979 -0.7700  0.9462
 4070TIP3   OH233700   5.504   3.149  15.759  0.2459 -0.6769  0.4236
 4070TIP3    H133701   5.455   3.229  15.780  0.2256  0.0097 -1.9778
 4070TIP3    H233702   5.593   3.167  15.788 -0.4124 -1.2099  3.0990
 4071TIP3   OH233703   1.382   6.052   0.575  0.8697 -0.8138  0.3457
 4071TIP3    H133704   1.421   6.093   0.498  0.6153  0.2185  0.7544
 4071TIP3    H233705   1.438   6.079   0.648 -1.4858  2.2183  1.2430
 4072TIP3   OH233706   2.271   2.675  12.123 -0.0186  0.0494  0.1075
 4072TIP3    H133707   2.236   2.692  12.210  2.8664 -0.1364  1.4371
 4072TIP3    H233708   2.286   2.761  12.085 -0.7070  0.1428  0.0443
 4073TIP3   OH233709   0.293   4.200   0.740  0.3592 -0.4785  0.3315
 4073TIP3    H133710   0.344   4.130   0.781 -0.2361 -0.5978  0.8883
 4073TIP3    H233711   0.319   4.279   0.788  0.3426 -0.4717  0.3297
 4074TIP3   OH233712   4.669   2.376   0.510  0.1196  0.1414 -0.5056
 4074TIP3    H133713   4.619   2.372   0.592  2.1227  1.3953  0.8679
 4074TIP3    H233714   4.631   2.449   0.462 -0.5577 -0.1063 -0.3625
 4075TIP3   OH233715   5.387   6.791   1.339 -0.3415  0.5307  0.5380
 4075TIP3    H133716   5.305   6.840   1.331 -0.0082  1.1352  0.7148
 4075TIP3    H233717   5.405   6.759   1.251 -0.1607  1.4128  0.2423
 4076TIP3   OH233718   3.321   0.773  12.130  0.1176 -0.0121  0.4152
 4076TIP3    H133719   3.235   0.764  12.170 -0.4621  0.5040 -0.6709
 4076TIP3    H233720   3.343   0.866  12.141  0.8471 -0.2689  1.2696
 4077TIP3   OH233721   6.509   3.054   3.769 -0.2112  0.3752 -0.4928
 4077TIP3    H133722   6.418   3.057   3.739  0.1069 -0.7883 -1.6623
 4077TIP3    H233723   6.538   2.965   3.750  1.4565  0.9827 -1.0141
 4078TIP3   OH233724   5.136   0.380   0.917  0.0973 -0.3736 -0.0368
 4078TIP3    H133725   5.116   0.290   0.894  0.0852 -0.1411 -1.0115
 4078TIP3    H233726   5.232   0.385   0.911  0.1147 -0.3827  0.2480
 4079TIP3   OH233727   0.121   2.503   0.977 -0.0180 -0.3952  0.0141
 4079TIP3    H133728   0.201   2.526   1.024  0.1410  0.6449 -0.7609
 4079TIP3    H233729   0.057   2.570   1.003 -0.9421 -1.6969  1.3151
 4080TIP3   OH233730   1.290   3.375  15.707 -0.0460  0.1641  0.5689
 4080TIP3    H133731   1.231   3.449  15.688 -0.1846 -0.0682  0.0803
 4080TIP3    H233732   1.242   3.298  15.676  0.7800  0.0321 -0.4386
 4081TIP3   OH233733   4.234   2.596   1.987  0.3136 -0.9236  0.1953
 4081TIP3    H133734   4.298   2.651   1.942 -0.5698  0.2934  0.3824
 4081TIP3    H233735   4.286   2.545   2.049  1.0695  0.3785  0.6763
 4082TIP3   OH233736   4.582   3.239  16.095 -0.0715 -0.4399  0.1618
 4082TIP3    H133737   4.668   3.197  16.085  0.3973  0.0866  1.6415
 4082TIP3    H233738   4.539   3.227  16.011  1.8806  0.1834 -0.9867
 4083TIP3   OH233739   5.194   2.388  12.075 -0.0007  0.7673 -0.2648
 4083TIP3    H133740   5.247   2.313  12.049  0.7852  1.2416 -0.0740
 4083TIP3    H233741   5.231   2.415  12.160  0.5203  2.0817 -0.8811
 4084TIP3   OH233742   2.819   4.608  15.681  0.2236  0.0319  0.0715
 4084TIP3    H133743   2.913   4.601  15.700  0.4829 -1.2499 -1.4137
 4084TIP3    H233744   2.815   4.617  15.585 -1.1854 -0.8793  0.0161
 4085TIP3   OH233745   0.232   6.661   2.194 -0.0809  0.2286  0.1332
 4085TIP3    H133746   0.212   6.737   2.249 -1.1074 -1.1120  1.6783
 4085TIP3    H233747   0.268   6.596   2.255  0.4214 -0.6796 -1.0949
 4086TIP3   OH233748   5.072   6.237   2.547 -0.0177 -0.0405  0.4333
 4086TIP3    H133749   5.029   6.323   2.555  0.1608  0.0293  0.6560
 4086TIP3    H233750   5.068   6.200   2.635 -0.3484 -0.3855  0.2735
 4087TIP3   OH233751   4.634   2.530  10.843  0.0095 -0.0999  0.1613
 4087TIP3    H133752   4.653   2.586  10.918  0.1275 -0.0391  0.0858
 4087TIP3    H233753   4.631   2.442  10.879 -0.4420 -0.0196  0.3289
 4088TIP3   OH233754   4.176   4.135  14.338  0.6558  0.0802 -0.2704
 4088TIP3    H133755   4.132   4.083  14.406  1.4515  1.0167  1.0006
 4088TIP3    H233756   4.126   4.217  14.335  0.7269  0.1068 -0.6998
 4089TIP3   OH233757   1.558   2.419   0.162 -0.4267 -0.1341  0.8898
 4089TIP3    H133758   1.476   2.371   0.176  0.8457 -2.4015  0.9455
 4089TIP3    H233759   1.572   2.417   0.068 -0.4981  0.4313  0.8589
 4090TIP3   OH233760   0.810   0.552  14.952 -0.1105  0.4678 -0.0555
 4090TIP3    H133761   0.726   0.573  14.992  0.3142  0.8803  0.6542
 4090TIP3    H233762   0.870   0.619  14.987  1.2106 -1.5659  1.8988
 4091TIP3   OH233763   2.497   3.756  13.775  0.0031 -0.3536  0.4490
 4091TIP3    H133764   2.582   3.756  13.819  1.0845  0.3696 -1.5138
 4091TIP3    H233765   2.479   3.664  13.756  1.8666 -0.3686 -1.7350
 4092TIP3   OH233766   4.040   2.739   4.823  0.1895  0.8154 -0.3970
 4092TIP3    H133767   4.026   2.646   4.839  0.8085  0.6726 -0.6656
 4092TIP3    H233768   4.015   2.781   4.906  0.3874  0.3678 -0.1045
 4093TIP3   OH233769   5.419   4.621  12.469 -0.4005  0.1072 -0.1800
 4093TIP3    H133770   5.422   4.657  12.381  0.3413  1.4959  0.3751
 4093TIP3    H233771   5.408   4.698  12.526 -0.9531 -0.7621  0.9386
 4094TIP3   OH233772   6.694   0.841  17.052  0.2954 -0.2487  0.2744
 4094TIP3    H133773   6.743   0.759  17.054  1.1293  0.2091 -0.7408
 4094TIP3    H233774   6.632   0.830  16.979  1.1627  0.4298 -0.5816
 4095TIP3   OH233775   2.070   1.654   0.602  0.1435  0.5524  0.4133
 4095TIP3    H133776   2.161   1.659   0.570  0.0607 -0.3261  0.0243
 4095TIP3    H233777   2.047   1.562   0.594 -1.2471  0.9699 -0.7881
 4096TIP3   OH233778   3.568   4.210  15.650 -0.6371  0.7714 -0.3303
 4096TIP3    H133779   3.621   4.268  15.705 -2.4997  3.6352 -1.3669
 4096TIP3    H233780   3.494   4.185  15.706 -0.6161  0.6222 -0.3685
 4097TIP3   OH233781   2.219   0.896   4.135  0.0642  0.3226  0.3245
 4097TIP3    H133782   2.263   0.823   4.178 -0.2118  1.1679  2.1086
 4097TIP3    H233783   2.170   0.855   4.063 -0.7531 -1.3723  1.7765
 4098TIP3   OH233784   6.153   0.116   4.970 -0.0216 -0.6102  0.3540
 4098TIP3    H133785   6.247   0.115   4.989  0.1661 -1.3145 -0.5655
 4098TIP3    H233786   6.124   0.203   4.999  1.0476 -0.1190  0.0000
 4099TIP3   OH233787   3.340   0.293   3.691 -0.2691 -0.3939  0.6586
 4099TIP3    H133788   3.374   0.287   3.601  1.5324  1.0046  1.1819
 4099TIP3    H233789   3.247   0.313   3.680  0.0252  0.3108 -0.9071
 4100TIP3   OH233790   1.496   6.531  13.936  0.3749  0.2667  0.0805
 4100TIP3    H133791   1.531   6.618  13.920  0.8963  0.6747  2.9892
 4100TIP3    H233792   1.405   6.546  13.964 -0.0546 -0.2955 -0.9299
 4101TIP3   OH233793   2.224   5.152  11.570  0.1042 -0.2040  0.2873
 4101TIP3    H133794   2.208   5.221  11.634  2.0662  0.4715  0.1155
 4101TIP3    H233795   2.167   5.173  11.496  1.0610  1.5666  0.0156
 4102TIP3   OH233796   3.101   2.790  12.218 -0.1637  0.0520  0.3564
 4102TIP3    H133797   3.005   2.795  12.220 -0.1439  1.1001 -0.6759
 4102TIP3    H233798   3.130   2.881  12.212  0.8034 -0.3411 -1.8549
 4103TIP3   OH233799   3.242   2.305  13.853 -0.4001  0.5085  0.2357
 4103TIP3    H133800   3.183   2.319  13.778  1.3769 -0.6408 -1.4854
 4103TIP3    H233801   3.191   2.250  13.913 -1.5051  0.5300 -0.6333
 4104TIP3   OH233802   6.543   4.548  15.180  0.2406  0.5559 -0.4143
 4104TIP3    H133803   6.536   4.620  15.242 -0.6090  0.6083 -0.5574
 4104TIP3    H233804   6.515   4.585  15.096 -1.2279 -0.1627 -0.2930
 4105TIP3   OH233805   3.933   4.259  16.565  0.0773  0.2740 -0.0344
 4105TIP3    H133806   3.890   4.312  16.499 -1.2633  1.3471  1.6059
 4105TIP3    H233807   3.899   4.171  16.552 -1.5325  0.8187  0.2876
 4106TIP3   OH233808   1.754   0.630  17.033  0.2554 -1.0106  0.1139
 4106TIP3    H133809   1.840   0.603  17.067  1.7061  1.2510 -1.4285
 4106TIP3    H233810   1.720   0.690  17.099  0.6324 -0.6309 -0.0370
 4107TIP3   OH233811   4.992   2.136  15.795  0.2790  0.0474 -0.0043
 4107TIP3    H133812   5.084   2.112  15.812  0.5787  1.9585  1.3641
 4107TIP3    H233813   4.975   2.208  15.855 -2.1016 -0.1570 -0.3608
 4108TIP3   OH233814   5.362   2.134   6.799  0.2820 -0.0670 -0.2750
 4108TIP3    H133815   5.407   2.188   6.733  0.8858 -0.4096 -0.1449
 4108TIP3    H233816   5.311   2.198   6.850  0.7307  0.3404 -0.3287
 4109TIP3   OH233817   3.063   0.447   2.824 -0.6288  0.2517 -0.1184
 4109TIP3    H133818   2.993   0.456   2.759 -1.1740  0.5686  0.5046
 4109TIP3    H233819   3.018   0.424   2.905  0.2410 -2.9369 -0.4159
 4110TIP3   OH233820   2.876   3.535  10.455  0.3078 -0.4729 -0.1434
 4110TIP3    H133821   2.807   3.585  10.498 -0.0126 -1.3730  0.4211
 4110TIP3    H233822   2.868   3.446  10.492  1.2289 -0.7952 -0.6835
 4111TIP3   OH233823   1.406   2.381   2.763 -0.4694  0.1892  0.0592
 4111TIP3    H133824   1.461   2.401   2.687 -0.1472  2.1554  0.7625
 4111TIP3    H233825   1.386   2.466   2.802 -3.0007 -0.5445  0.5565
 4112TIP3   OH233826   1.086   0.526   4.721  1.1551 -0.1917  0.5054
 4112TIP3    H133827   1.158   0.536   4.658  1.3121 -0.6726  0.6065
 4112TIP3    H233828   1.108   0.586   4.792  0.0615  1.7380 -0.6987
 4113TIP3   OH233829   1.712   3.774   0.865 -0.3292  0.2957 -0.2701
 4113TIP3    H133830   1.783   3.832   0.838 -2.2969  2.8080 -0.4806
 4113TIP3    H233831   1.653   3.772   0.790 -1.7761  0.4917  0.8219
 4114TIP3   OH233832   1.580   4.132   1.204  0.9998 -0.7905  0.0233
 4114TIP3    H133833   1.630   4.051   1.191  1.9778 -0.5663  2.0301
 4114TIP3    H233834   1.489   4.102   1.214  0.9753 -1.3854 -1.6429
 4115TIP3   OH233835   0.461   1.245   2.318 -0.2312 -0.3115  0.4019
 4115TIP3    H133836   0.486   1.177   2.255  1.3820  0.7232 -0.1194
 4115TIP3    H233837   0.379   1.212   2.356  0.4124 -2.4713  0.0722
 4116TIP3   OH233838   0.297   3.103  15.638 -0.2920  0.3615  0.4132
 4116TIP3    H133839   0.335   3.190  15.625  1.3621 -0.6235 -2.0557
 4116TIP3    H233840   0.366   3.042  15.610 -2.3746 -1.6500 -0.6475
 4117TIP3   OH233841   3.055   4.869  10.811 -0.0779  0.2466 -0.0354
 4117TIP3    H133842   2.969   4.840  10.782 -0.4248  0.4823  0.7202
 4117TIP3    H233843   3.078   4.940  10.752 -0.8293  0.8089  0.3285
 4118TIP3   OH233844   1.013   0.753  13.903 -0.1051  0.2095  0.1149
 4118TIP3    H133845   1.081   0.713  13.850 -0.4281  0.4030 -0.4481
 4118TIP3    H233846   1.058   0.821  13.953  0.0572  0.5341 -0.4751
 4119TIP3   OH233847   3.169   3.389  11.042 -0.4827 -0.2205 -0.1569
 4119TIP3    H133848   3.211   3.469  11.073 -0.7165  0.2006 -0.9196
 4119TIP3    H233849   3.225   3.319  11.076  0.2410  0.2924 -0.2577
 4120TIP3   OH233850   4.030   6.704   2.107  0.1903 -0.5006 -0.7030
 4120TIP3    H133851   4.002   6.762   2.037  0.8266  1.9616  0.9593
 4120TIP3    H233852   3.972   6.723   2.180  2.0636  0.0528  0.7325
 4121TIP3   OH233853   4.792   2.181   2.826  0.6448  0.0515 -0.2390
 4121TIP3    H133854   4.886   2.161   2.831  1.1335  2.2187  0.1607
 4121TIP3    H233855   4.774   2.231   2.905 -0.0252  2.6294 -1.8932
 4122TIP3   OH233856   2.247   0.600  11.934  0.0012  0.1703  0.7178
 4122TIP3    H133857   2.270   0.595  12.027 -1.4201  0.3021  1.1004
 4122TIP3    H233858   2.155   0.623  11.933 -0.3106 -0.9484 -0.7212
 4123TIP3   OH233859   2.470   0.186  10.226 -0.2533  0.2856  0.2365
 4123TIP3    H133860   2.425   0.104  10.245  0.3157  0.2275  1.4380
 4123TIP3    H233861   2.421   0.252  10.276 -0.2111  0.5384 -0.0554
 4124TIP3   OH233862   1.354   0.852  14.816 -0.1432 -0.1306  0.1863
 4124TIP3    H133863   1.337   0.761  14.843  1.3013 -1.3324 -2.6258
 4124TIP3    H233864   1.361   0.848  14.721  2.7458  2.4188  0.1489
 4125TIP3   OH233865   6.537   6.400  16.308 -0.0811 -0.1780  0.0248
 4125TIP3    H133866   6.592   6.328  16.338  0.6477  0.6422  0.7383
 4125TIP3    H233867   6.504   6.439  16.389  1.1259  1.4703 -0.2232
 4126TIP3   OH233868   2.025   4.106  14.543 -0.3624  0.2453 -0.3152
 4126TIP3    H133869   2.055   4.086  14.632  0.7412 -0.4902 -0.8297
 4126TIP3    H233870   1.940   4.061  14.536 -1.5760  2.1473  1.0773
 4127TIP3   OH233871   2.473   0.502  14.770  0.3109  0.2410  0.2363
 4127TIP3    H133872   2.514   0.579  14.730  0.1554  0.6923  0.9350
 4127TIP3    H233873   2.445   0.531  14.856 -0.3035 -0.4305  0.2778
 4128TIP3   OH233874   6.376   3.208  16.509 -0.0187  0.4901 -0.1427
 4128TIP3    H133875   6.410   3.297  16.521  1.6464 -0.2235  0.8090
 4128TIP3    H233876   6.330   3.211  16.425  0.9339  1.9807 -0.6576
 4129TIP3   OH233877   6.299   1.965  13.307  0.2487  0.3264 -0.6373
 4129TIP3    H133878   6.281   2.059  13.301  0.5283  0.3274 -1.6416
 4129TIP3    H233879   6.252   1.927  13.232 -0.3490 -0.4145  0.0970
 4130TIP3   OH233880   0.135   0.678   0.803 -0.2678 -0.0910  0.3963
 4130TIP3    H133881   0.117   0.721   0.719  0.5099  0.3715  0.4512
 4130TIP3    H233882   0.137   0.585   0.782  2.3190  0.1026 -0.6336
 4131TIP3   OH233883   5.144   2.861  16.356 -0.8226  0.0907  0.1511
 4131TIP3    H133884   5.117   2.917  16.430 -1.5463  1.8810 -1.3827
 4131TIP3    H233885   5.238   2.877  16.347 -1.0548  1.3231 -0.4083
 4132TIP3   OH233886   2.361   4.265   3.205  0.2069 -0.0650 -0.5732
 4132TIP3    H133887   2.354   4.343   3.150  0.9144 -0.0821 -0.6938
 4132TIP3    H233888   2.311   4.198   3.158 -0.7476  0.4146 -0.2675
 4133TIP3   OH233889   1.402   1.482   2.027  0.2602 -0.1194 -0.4511
 4133TIP3    H133890   1.441   1.406   2.070 -0.0761 -0.1229 -0.1390
 4133TIP3    H233891   1.386   1.454   1.937 -1.2844 -0.9533  0.0453
 4134TIP3   OH233892   3.356   5.365   2.752 -0.2941 -0.0379 -0.6036
 4134TIP3    H133893   3.345   5.326   2.838  2.0379  1.2503  0.3716
 4134TIP3    H233894   3.383   5.455   2.770 -0.4812  0.4935 -2.7100
 4135TIP3   OH233895   1.745   5.369  12.451  0.2135  1.0394 -0.3256
 4135TIP3    H133896   1.656   5.342  12.427  0.3860  0.6302 -0.5127
 4135TIP3    H233897   1.753   5.344  12.543  0.4608  0.1891 -0.5660
 4136TIP3   OH233898   1.423   1.745   5.991 -0.2203  0.8450  0.4462
 4136TIP3    H133899   1.365   1.718   6.062 -0.2614 -0.1396  0.0545
 4136TIP3    H233900   1.406   1.839   5.981 -0.7643  0.8443  1.2269
 4137TIP3   OH233901   0.873   6.087   5.003 -0.0237 -0.1297 -0.0580
 4137TIP3    H133902   0.902   6.117   5.089  0.5457  0.4328 -0.4355
 4137TIP3    H233903   0.820   6.159   4.969  0.5445  0.0569 -0.5702
 4138TIP3   OH233904   3.094   3.119  14.196  0.2973 -0.2439  0.0174
 4138TIP3    H133905   3.101   3.025  14.211 -0.5454 -0.4931 -1.0329
 4138TIP3    H233906   3.098   3.129  14.101  1.7199  0.9167  0.1677
 4139TIP3   OH233907   6.777   0.101   0.203 -0.4130  0.3469 -0.1884
 4139TIP3    H133908   6.803   0.063   0.119  0.6367 -1.1387  0.7496
 4139TIP3    H233909   6.705   0.160   0.182 -0.6335 -0.5182 -2.0349
 4140TIP3   OH233910   1.720   2.176  14.625  0.5575 -0.5876  0.2798
 4140TIP3    H133911   1.708   2.175  14.530 -0.2223  0.4665  0.3566
 4140TIP3    H233912   1.642   2.220  14.659  1.7921  0.9576  1.2516
 4141TIP3   OH233913   5.804   5.758   2.955 -0.2045  0.8151  0.4939
 4141TIP3    H133914   5.868   5.728   2.890 -1.3235  0.2569 -0.3819
 4141TIP3    H233915   5.827   5.709   3.034  0.2247  0.3473  0.0896
 4142TIP3   OH233916   1.030   3.560  14.631  0.5950 -0.6572  0.0064
 4142TIP3    H133917   1.009   3.484  14.685  1.8244 -1.5582 -0.7269
 4142TIP3    H233918   1.124   3.573  14.642  0.4331  0.6575 -0.0205
 4143TIP3   OH233919   2.881   3.889   0.494  0.0862 -0.1959 -0.1280
 4143TIP3    H133920   2.790   3.864   0.508  0.3458  0.3921  3.8815
 4143TIP3    H233921   2.879   3.984   0.481  0.1049 -0.2784 -0.7701
 4144TIP3   OH233922   0.828   3.544  13.736  0.9270 -0.0019  0.2005
 4144TIP3    H133923   0.868   3.615  13.786  1.7865  0.1900 -0.7181
 4144TIP3    H233924   0.876   3.544  13.653  1.5088 -2.2009  0.4707
 4145TIP3   OH233925   1.600   4.565  16.182  0.0874 -0.5649 -0.0778
 4145TIP3    H133926   1.570   4.478  16.154  2.9210 -2.9236  3.3051
 4145TIP3    H233927   1.653   4.596  16.109  0.4647 -2.5733 -0.7311
 4146TIP3   OH233928   1.689   0.406  13.835  0.1959 -0.3478 -0.3456
 4146TIP3    H133929   1.708   0.495  13.864 -2.1920  0.2446 -0.4231
 4146TIP3    H233930   1.710   0.407  13.741 -0.4482  0.3446 -0.4935
 4147TIP3   OH233931   1.603   0.184  13.013  0.1168  0.2725 -0.5352
 4147TIP3    H133932   1.614   0.190  12.918 -2.2619 -1.1503 -0.9805
 4147TIP3    H233933   1.522   0.231  13.031 -1.6239 -2.7257  0.1420
 4148TIP3   OH233934   1.011   1.777  15.024  0.0615 -0.5694  0.1700
 4148TIP3    H133935   0.955   1.731  14.962  0.0966  0.7460 -0.8843
 4148TIP3    H233936   1.039   1.856  14.978  1.2345 -0.2398  1.3654
 4149TIP3   OH233937   1.632   2.563  12.410 -0.2017 -0.2048  0.0674
 4149TIP3    H133938   1.678   2.505  12.349 -1.6290 -1.8428  0.4721
 4149TIP3    H233939   1.671   2.649  12.396  0.6502 -0.8710 -1.9533
 4150TIP3   OH233940   3.088   6.782  15.902 -0.6089  0.2258  0.7135
 4150TIP3    H133941   3.159   6.718  15.899 -0.6755  0.1814 -0.4187
 4150TIP3    H233942   3.072   6.796  15.995 -0.6471 -1.4619  0.9833
 4151TIP3   OH233943   0.142   5.974  16.459  0.0112  0.6392 -0.3176
 4151TIP3    H133944   0.220   5.961  16.514  1.4638  0.0933 -2.3946
 4151TIP3    H233945   0.074   5.923  16.503  0.7896  1.0629  1.5164
 4152TIP3   OH233946   3.192   3.648   4.926 -0.3940 -0.4792  0.1165
 4152TIP3    H133947   3.258   3.582   4.903  1.0900  0.9493  0.0425
 4152TIP3    H233948   3.203   3.717   4.860 -0.1331  0.9720  1.5982
 4153TIP3   OH233949   4.875   2.571   5.291 -0.0159 -0.2604  0.0494
 4153TIP3    H133950   4.853   2.581   5.383  0.4269  2.1964 -0.0455
 4153TIP3    H233951   4.964   2.535   5.292 -0.8607 -2.4882  0.4934
 4154TIP3   OH233952   4.402   4.698  11.380  0.1107 -0.3168  0.4390
 4154TIP3    H133953   4.316   4.718  11.341  0.8511  2.6655  0.1503
 4154TIP3    H233954   4.391   4.718  11.473  0.6224  0.6353  0.3030
 4155TIP3   OH233955   3.796   5.004   4.923 -0.2588  0.2198 -0.1320
 4155TIP3    H133956   3.755   5.053   4.852  2.1508  1.0365 -1.0826
 4155TIP3    H233957   3.840   5.070   4.976  0.8879 -0.6565  0.0704
 4156TIP3   OH233958   1.759   3.771   2.283  0.1856  0.0725 -0.3661
 4156TIP3    H133959   1.822   3.840   2.305 -0.2312  0.0467  1.0599
 4156TIP3    H233960   1.674   3.809   2.309 -0.0372 -0.9965  0.5351
 4157TIP3   OH233961   2.392   4.006   3.989 -0.0792 -0.0151 -0.2787
 4157TIP3    H133962   2.364   3.933   3.934  1.9501 -1.9606  1.0673
 4157TIP3    H233963   2.472   3.974   4.030 -0.9803  1.6431  3.0722
 4158TIP3   OH233964   2.188   0.081   0.692 -0.1131 -0.2288  0.4617
 4158TIP3    H133965   2.180  -0.013   0.707  0.4613 -0.2129  0.9218
 4158TIP3    H233966   2.112   0.119   0.735  1.3792 -0.1978  3.3172
 4159TIP3   OH233967   1.390   2.135   2.868 -0.4863  0.2344 -0.2428
 4159TIP3    H133968   1.435   2.134   2.952 -1.9406  1.0844  0.5850
 4159TIP3    H233969   1.418   2.217   2.826 -0.5279  0.2956 -0.1500
 4160TIP3   OH233970   2.638   3.897   4.937  0.1636  0.2748  0.5608
 4160TIP3    H133971   2.709   3.836   4.915 -0.5006  0.0523 -1.1335
 4160TIP3    H233972   2.620   3.880   5.030  1.9951  0.0231  0.9091
 4161TIP3   OH233973   5.005   2.091  16.833  0.2015 -0.0789 -0.2196
 4161TIP3    H133974   5.097   2.112  16.845  0.1597  0.3651 -0.6008
 4161TIP3    H233975   4.986   2.023  16.897  1.0239 -0.8306 -0.7430
 4162TIP3   OH233976   6.045   0.628   0.179  0.2681 -0.1763 -0.9436
 4162TIP3    H133977   5.972   0.566   0.177 -1.9374  2.1915  0.1757
 4162TIP3    H233978   6.080   0.620   0.268  1.8173 -1.6817 -1.6361
 4163TIP3   OH233979   2.977   3.896   0.207 -0.1547 -0.7577  0.7400
 4163TIP3    H133980   2.932   3.917   0.289 -1.2532 -0.9474  0.2074
 4163TIP3    H233981   2.918   3.835   0.163  0.9250 -1.5012  0.2785
 4164TIP3   OH233982   3.963   2.072   5.781 -0.0915 -0.1435 -0.0424
 4164TIP3    H133983   3.920   1.987   5.792 -0.6440  0.1607  0.1893
 4164TIP3    H233984   3.923   2.127   5.847 -0.7063  0.6723 -1.0689
 4165TIP3   OH233985   6.118   0.252  16.385  0.5058 -0.1779 -0.4609
 4165TIP3    H133986   6.140   0.345  16.377  2.8776 -0.4352  1.6490
 4165TIP3    H233987   6.130   0.233  16.478 -1.9647 -2.1846 -0.4353
 4166TIP3   OH233988   0.302   5.334  15.391  0.4461 -0.1196  0.1033
 4166TIP3    H133989   0.371   5.334  15.457 -0.8504  0.1687  1.5062
 4166TIP3    H233990   0.320   5.412  15.338  0.0169  1.1569  1.7595
 4167TIP3   OH233991   5.731   2.304  16.262 -0.3673 -0.9432  0.0456
 4167TIP3    H133992   5.644   2.341  16.250 -1.4330 -3.6495 -1.4057
 4167TIP3    H233993   5.725   2.254  16.344 -1.0066 -3.0397 -1.2027
 4168TIP3   OH233994   1.157   3.950  15.569 -0.2356 -0.4498  0.3106
 4168TIP3    H133995   1.188   3.903  15.492 -3.1796 -1.3331 -0.4573
 4168TIP3    H233996   1.171   4.042  15.549  1.4738 -0.7538 -0.0841
 4169TIP3   OH233997   5.973   1.143   2.567 -0.2398 -0.0051  1.0973
 4169TIP3    H133998   6.003   1.163   2.656  0.8911  0.0116  0.7297
 4169TIP3    H233999   6.048   1.101   2.525 -0.0976  1.6239 -0.4270
 4170TIP3   OH234000   2.466   1.185  14.944  0.5721 -0.3326  0.1851
 4170TIP3    H134001   2.532   1.250  14.918  0.9234 -1.0980 -0.9165
 4170TIP3    H234002   2.517   1.113  14.982  0.2089 -0.0846  1.1498
 4171TIP3   OH234003   4.879   2.344   1.147 -0.0756 -0.3609  0.0682
 4171TIP3    H134004   4.864   2.273   1.209  0.9362  0.0182  0.7717
 4171TIP3    H234005   4.798   2.396   1.151  0.7296  0.8872  2.7472
 4172TIP3   OH234006   4.915   0.512   3.060  0.1639  0.2452 -0.1380
 4172TIP3    H134007   4.958   0.449   3.002 -1.1896 -1.3479  0.5328
 4172TIP3    H234008   4.925   0.475   3.147 -1.3251  0.5662  0.1840
 4173TIP3   OH234009   3.131   0.744  15.225 -0.5407  0.3567 -0.1839
 4173TIP3    H134010   3.070   0.784  15.287  0.5991  1.3648  0.3121
 4173TIP3    H234011   3.097   0.767  15.139 -1.6727 -0.3516  0.0504
 4174TIP3   OH234012   1.020   0.317  14.919 -0.1410  0.6099  0.1054
 4174TIP3    H134013   1.040   0.410  14.908 -0.2157  0.4517 -1.6768
 4174TIP3    H234014   1.094   0.272  14.878 -0.6456 -0.0993 -0.0506
 4175TIP3   OH234015   0.747   3.778  16.508 -0.3196  0.4150  0.3945
 4175TIP3    H134016   0.762   3.861  16.462  1.8732  0.5282  1.1929
 4175TIP3    H234017   0.759   3.711  16.441 -0.8074  0.6861  0.0295
 4176TIP3   OH234018   4.054   1.679  10.628 -0.0521 -0.1891  0.1042
 4176TIP3    H134019   4.102   1.703  10.549  0.3214 -0.5955  0.2026
 4176TIP3    H234020   3.972   1.728  10.622 -0.0125 -0.1860 -0.5172
 4177TIP3   OH234021   2.101   5.259   2.877 -0.2695  0.3137 -0.1746
 4177TIP3    H134022   2.096   5.224   2.966 -0.0073  2.9997  1.0007
 4177TIP3    H234023   2.079   5.352   2.887  2.1771  1.2734 -2.4851
 4178TIP3   OH234024   6.019   2.525   3.887 -0.2163  0.1559  0.0034
 4178TIP3    H134025   6.075   2.545   3.962 -1.4958 -0.9825  1.3090
 4178TIP3    H234026   5.996   2.611   3.851  0.0197  0.7494  1.2178
 4179TIP3   OH234027   0.757   2.754  14.374  0.2759  0.2908  0.6837
 4179TIP3    H134028   0.835   2.700  14.364 -0.0253 -0.3444  1.6575
 4179TIP3    H234029   0.790   2.844  14.371  0.8370  0.0621 -0.4849
 4180TIP3   OH234030   1.106   1.494   6.383  0.5439  0.2546 -0.2907
 4180TIP3    H134031   1.016   1.481   6.351  0.8287 -0.9118 -0.6906
 4180TIP3    H234032   1.096   1.548   6.461 -0.5751 -0.3869  0.0439
 4181TIP3   OH234033   3.913   4.698  15.641  0.0728  0.6561 -0.0908
 4181TIP3    H134034   3.916   4.618  15.692 -0.9365  1.2875  1.0252
 4181TIP3    H234035   3.888   4.670  15.553 -2.4479 -0.0864  0.7885
 4182TIP3   OH234036   4.888   1.357   2.532 -0.1343  0.0021  0.2372
 4182TIP3    H134037   4.916   1.426   2.592 -1.8690  0.2076  0.8759
 4182TIP3    H234038   4.827   1.304   2.584  1.2212 -2.1039 -0.2041
 4183TIP3   OH234039   5.514   6.258   5.287 -0.0091 -0.4973 -0.2955
 4183TIP3    H134040   5.545   6.174   5.322  0.9800  0.8206  2.2753
 4183TIP3    H234041   5.569   6.323   5.330 -1.7711  1.5658 -0.9966
 4184TIP3   OH234042   1.344   3.819  16.203  0.0759  0.1353  0.5068
 4184TIP3    H134043   1.423   3.837  16.152  0.6647 -0.4565  1.1819
 4184TIP3    H234044   1.376   3.776  16.282 -0.9491 -0.3580  0.6700
 4185TIP3   OH234045   4.127   5.494   2.690 -0.1236 -0.2774  0.0920
 4185TIP3    H134046   4.059   5.427   2.700  0.0741 -0.7418 -1.4244
 4185TIP3    H234047   4.208   5.449   2.715 -0.2371  0.0005  0.9926
 4186TIP3   OH234048   5.130   4.592   1.930  0.0484 -0.1962  0.6250
 4186TIP3    H134049   5.151   4.590   1.836 -1.0771 -1.7631  0.3808
 4186TIP3    H234050   5.215   4.579   1.973  1.0879  3.2994 -0.0046
 4187TIP3   OH234051   0.092   6.597   3.862 -0.2845  0.0719 -0.2335
 4187TIP3    H134052   0.182   6.573   3.884  0.5108  3.0826  0.3273
 4187TIP3    H234053   0.062   6.529   3.803  1.7779 -1.8897  0.8451
 4188TIP3   OH234054   6.206   5.126   1.277 -0.4293  0.1549  0.0422
 4188TIP3    H134055   6.215   5.032   1.296  0.1151 -0.1243 -1.4485
 4188TIP3    H234056   6.273   5.167   1.331  2.1908 -0.7729 -2.2462
 4189TIP3   OH234057   2.496   2.779   0.551  0.1265  0.2927 -0.1025
 4189TIP3    H134058   2.507   2.700   0.604  1.0205 -0.5644 -1.4962
 4189TIP3    H234059   2.410   2.814   0.576 -0.1973 -1.0097  0.6629
 4190TIP3   OH234060   0.098   0.254  16.790  0.3210  0.0407 -0.4059
 4190TIP3    H134061   0.034   0.191  16.759  0.5231 -0.6583  0.5398
 4190TIP3    H234062   0.047   0.333  16.810  0.2294  0.6296 -2.7248
 4191TIP3   OH234063   3.058   3.574   1.910 -0.3711 -0.3254  0.0988
 4191TIP3    H134064   3.149   3.599   1.926 -0.2584 -0.5318 -0.2206
 4191TIP3    H234065   3.011   3.609   1.985  0.1829 -1.4442  0.9997
 4192TIP3   OH234066   5.376   1.191  13.559  0.0031 -0.1725  0.9486
 4192TIP3    H134067   5.321   1.263  13.528 -0.5386 -1.2605 -0.7717
 4192TIP3    H234068   5.463   1.211  13.526 -0.6218 -1.4735 -1.8189
 4193TIP3   OH234069   4.789   2.187  12.938  0.3037 -0.5497 -0.1422
 4193TIP3    H134070   4.865   2.244  12.931 -0.1354  0.0406 -0.1715
 4193TIP3    H234071   4.823   2.099  12.921  1.3334 -0.5584  1.6941
 4194TIP3   OH234072   1.109   2.423   0.324  0.2798  0.0630 -0.2380
 4194TIP3    H134073   1.184   2.375   0.361  0.4537 -1.9271 -2.8581
 4194TIP3    H234074   1.040   2.357   0.316 -1.2056  1.4621  0.4904
 4195TIP3   OH234075   3.082   0.899   0.051 -0.5657 -0.2869 -0.5724
 4195TIP3    H134076   2.991   0.927   0.042 -0.2577  1.2535  0.6966
 4195TIP3    H234077   3.092   0.879   0.145 -0.0970 -2.3775 -1.0138
 4196TIP3   OH234078   5.205   1.875   4.973 -0.1470  0.2215  0.0825
 4196TIP3    H134079   5.282   1.840   4.928 -0.5725  0.5289 -0.9196
 4196TIP3    H234080   5.151   1.911   4.903 -0.6162  1.1574  0.8993
 4197TIP3   OH234081   6.164   0.983   3.605 -0.3803  0.7514  0.0954
 4197TIP3    H134082   6.250   0.990   3.647 -0.4930  2.1625  0.1424
 4197TIP3    H234083   6.107   0.947   3.673 -0.0215  0.7156  0.3764
 4198TIP3   OH234084   1.526   1.023  16.882  0.2161 -0.0876  0.3992
 4198TIP3    H134085   1.445   1.072  16.893  0.9257  0.7018  2.9565
 4198TIP3    H234086   1.510   0.966  16.807 -1.3340  2.6708 -1.5526
 4199TIP3   OH234087   6.605   5.632  16.624  0.0252  0.3973  0.2086
 4199TIP3    H134088   6.667   5.591  16.565  1.5868  1.4419  1.0697
 4199TIP3    H234089   6.604   5.576  16.701  0.6443  0.8814  0.5778
 4200TIP3   OH234090   3.784   4.599  12.325 -0.4436  0.0461 -0.1036
 4200TIP3    H134091   3.835   4.520  12.345 -2.2692 -1.1067  0.1878
 4200TIP3    H234092   3.699   4.584  12.365 -1.5415  1.2441 -1.8295
 4201TIP3   OH234093   4.339   2.177  12.384  0.1361 -0.0371  0.2223
 4201TIP3    H134094   4.257   2.204  12.344  0.2454 -1.6353 -1.2311
 4201TIP3    H234095   4.395   2.255  12.380 -0.4814  0.3676 -1.1202
 4202TIP3   OH234096   5.140   5.012  14.265  0.3034 -0.4331  0.1194
 4202TIP3    H134097   5.216   5.040  14.214  0.3835 -0.2990  0.3089
 4202TIP3    H234098   5.070   5.073  14.240  0.2767 -0.5152 -0.0054
 4203TIP3   OH234099   0.625   4.139   3.427  0.3772  0.1135 -0.3561
 4203TIP3    H134100   0.703   4.108   3.380  1.7393  2.1512  0.4205
 4203TIP3    H234101   0.650   4.134   3.519  0.8235  3.5430 -0.1689
 4204TIP3   OH234102   3.071   2.073   1.727 -0.5469  0.1240 -0.3928
 4204TIP3    H134103   3.160   2.078   1.693 -1.1695  2.5109 -1.8875
 4204TIP3    H234104   3.058   2.155   1.775 -1.5784 -0.7215  0.8729
 4205TIP3   OH234105   3.675   1.185   4.454 -0.2363  0.2298 -0.0104
 4205TIP3    H134106   3.631   1.236   4.523  1.7289 -0.6997  2.0488
 4205TIP3    H234107   3.699   1.250   4.388 -4.1320  0.8680 -1.0751
 4206TIP3   OH234108   2.432   2.906  17.007  0.2427  0.0540 -0.6345
 4206TIP3    H134109   2.450   2.823  17.053 -2.4558 -1.4663 -2.0799
 4206TIP3    H234110   2.399   2.964  17.076  2.4815  0.1468  0.4681
 4207TIP3   OH234111   0.224   1.436  11.793  0.2321  0.2553  0.3262
 4207TIP3    H134112   0.206   1.437  11.887 -3.1483 -0.2458 -0.1769
 4207TIP3    H234113   0.216   1.527  11.766 -1.6627  0.0802  0.1651
 4208TIP3   OH234114   3.356   0.684  14.023 -0.0910 -0.6287 -0.4175
 4208TIP3    H134115   3.375   0.591  14.010  0.3173 -0.6258  0.1036
 4208TIP3    H234116   3.385   0.726  13.942 -0.1545 -0.9363 -0.6019
 4209TIP3   OH234117   6.723   5.909  15.803 -0.0553  0.1498  0.4208
 4209TIP3    H134118   6.812   5.882  15.781  0.2207 -0.2971  1.9389
 4209TIP3    H234119   6.667   5.842  15.763  0.0847  1.5228 -2.3122
 4210TIP3   OH234120   2.776   2.304  14.534 -0.1116 -0.2591 -0.1559
 4210TIP3    H134121   2.755   2.299  14.628 -0.4193 -0.5465 -0.2369
 4210TIP3    H234122   2.820   2.221  14.515  0.4222  0.0223 -0.1531
 4211TIP3   OH234123   6.630   5.351   0.035  0.3357 -0.1797  0.4271
 4211TIP3    H134124   6.710   5.394   0.062  1.2587  0.0353 -2.3241
 4211TIP3    H234125   6.659   5.279  -0.022 -1.3590 -1.4375  1.0488
 4212TIP3   OH234126   0.859   6.719   3.740 -0.2524 -0.1331 -0.1168
 4212TIP3    H134127   0.863   6.683   3.829  3.8512  1.6596  0.6393
 4212TIP3    H234128   0.887   6.810   3.749  0.2338  0.1485 -3.2362
 4213TIP3   OH234129   2.998   4.927   1.837  0.3942  0.1275 -0.1777
 4213TIP3    H134130   2.996   5.010   1.885 -0.1716  0.1492 -0.2385
 4213TIP3    H234131   3.026   4.863   1.902 -0.1211  0.1993  0.1155
 4214TIP3   OH234132   5.478   6.135   2.713 -0.3772  0.0264 -0.6830
 4214TIP3    H134133   5.407   6.112   2.772  0.7658 -1.1962  0.2609
 4214TIP3    H234134   5.451   6.102   2.628 -1.3243  0.3851 -0.5321
 4215TIP3   OH234135   0.802   2.097   5.063  0.4035 -0.4932  0.2637
 4215TIP3    H134136   0.867   2.029   5.046 -0.6700 -1.7388  1.0146
 4215TIP3    H234137   0.764   2.116   4.977  2.0251  0.6006 -0.2790
 4216TIP3   OH234138   1.560   4.427  11.613 -0.0807  0.7485 -0.0629
 4216TIP3    H134139   1.592   4.497  11.670 -0.0811 -0.2116  1.1525
 4216TIP3    H234140   1.523   4.362  11.673 -1.9948  0.6404 -1.2719
 4217TIP3   OH234141   3.413   1.336   3.096  0.1582 -0.0753  0.2442
 4217TIP3    H134142   3.375   1.321   3.009 -0.7541 -1.1896  0.8214
 4217TIP3    H234143   3.505   1.309   3.087  0.1013 -0.0737 -0.3956
 4218TIP3   OH234144   0.305   2.342   5.764 -0.4115  0.1770 -0.4416
 4218TIP3    H134145   0.216   2.364   5.733 -1.2136 -0.1931  1.4645
 4218TIP3    H234146   0.298   2.251   5.793  0.9244 -0.2325 -1.3305
 4219TIP3   OH234147   1.754   1.140  11.013 -0.1917  0.2204  0.4121
 4219TIP3    H134148   1.662   1.150  11.040 -0.9662 -0.2578 -1.8902
 4219TIP3    H234149   1.750   1.125  10.919  2.1997 -1.0726  0.4562
 4220TIP3   OH234150   0.590   0.537  15.886  0.1795  0.3863 -0.0163
 4220TIP3    H134151   0.638   0.546  15.804 -0.6673 -0.6807 -0.6640
 4220TIP3    H234152   0.578   0.443  15.897 -1.0300  0.5784  0.5328
 4221TIP3   OH234153   2.332   3.938  16.163 -0.5091 -0.1730 -0.2706
 4221TIP3    H134154   2.238   3.937  16.179 -0.4464 -0.4116  0.1043
 4221TIP3    H234155   2.348   3.859  16.110 -0.3149 -0.9629  0.9276
 4222TIP3   OH234156   5.696   4.933   0.191  0.6205  0.2953 -0.3683
 4222TIP3    H134157   5.720   4.999   0.256  1.5970  0.8721 -1.2780
 4222TIP3    H234158   5.779   4.897   0.161  0.2490  0.5933 -1.8482
 4223TIP3   OH234159   6.211   5.151  13.766  0.4632 -0.4770 -0.3528
 4223TIP3    H134160   6.240   5.242  13.758 -0.6054 -0.1733 -0.8944
 4223TIP3    H234161   6.197   5.138  13.860 -0.0901  0.1552 -0.3407
 4224TIP3   OH234162   0.144   4.146   2.806 -0.8312  0.9956 -0.9558
 4224TIP3    H134163   0.061   4.193   2.803 -0.5869  1.5475  0.2088
 4224TIP3    H234164   0.210   4.213   2.785 -0.7097  0.3758 -2.7348
 4225TIP3   OH234165   4.234   5.020   0.820  0.5344 -0.1668 -0.4371
 4225TIP3    H134166   4.222   4.943   0.876  1.2679  0.2125  0.2535
 4225TIP3    H234167   4.175   5.004   0.746  1.3071 -1.8101 -0.7500
 4226TIP3   OH234168   3.360   1.621   3.851  0.1150 -0.5626 -0.5267
 4226TIP3    H134169   3.407   1.670   3.784  0.3923 -1.6162 -1.1300
 4226TIP3    H234170   3.422   1.613   3.923 -0.3304  0.9431  0.0642
 4227TIP3   OH234171   4.253   5.370   4.263 -0.0817 -0.1256  0.3210
 4227TIP3    H134172   4.169   5.328   4.280  1.1660 -2.5139  0.9204
 4227TIP3    H234173   4.318   5.309   4.296  1.9782  1.0518 -1.3297
 4228TIP3   OH234174   0.890   3.902   2.845  0.1439  0.3656  0.0063
 4228TIP3    H134175   0.939   3.834   2.799  0.5569 -0.8000  2.0581
 4228TIP3    H234176   0.811   3.858   2.877 -0.0155  1.0632  0.6202
 4229TIP3   OH234177   2.773   6.556  15.023 -0.3733  0.3784  0.0645
 4229TIP3    H134178   2.717   6.520  14.954 -0.2088 -1.0284  0.6259
 4229TIP3    H234179   2.752   6.649  15.025 -0.3537  0.4637 -1.9017
 4230TIP3   OH234180   6.008   3.695  15.884  0.0211  0.3814  0.1849
 4230TIP3    H134181   5.934   3.651  15.842  0.7652  0.1132 -0.9056
 4230TIP3    H234182   5.983   3.702  15.976 -0.4965 -1.5733  0.2365
 4231TIP3   OH234183   6.407   5.601   3.223  0.1531  0.3613  0.4581
 4231TIP3    H134184   6.443   5.522   3.181 -0.2803  0.6758 -0.5328
 4231TIP3    H234185   6.462   5.672   3.189 -0.4487  0.6649  0.1070
 4232TIP3   OH234186   0.851   1.883   4.804  0.1043  0.1445 -0.0481
 4232TIP3    H134187   0.941   1.877   4.836  0.2285 -1.8769 -0.6341
 4232TIP3    H234188   0.851   1.959   4.747  1.1304  0.8695  0.8704
 4233TIP3   OH234189   1.969   5.790  17.108 -0.4389  0.1184 -0.2005
 4233TIP3    H134190   1.905   5.793  17.180 -0.8651  1.0287 -0.5985
 4233TIP3    H234191   2.043   5.840  17.139  0.2033 -1.1267  0.3491
 4234TIP3   OH234192   0.946   4.270  16.034 -0.8055  0.1883 -0.1523
 4234TIP3    H134193   0.868   4.253  15.981 -1.7306 -0.7103  1.4487
 4234TIP3    H234194   0.981   4.184  16.054  0.6018  0.5777 -0.8042
 4235TIP3   OH234195   3.480   5.601   5.203 -0.0161  0.3312  0.0114
 4235TIP3    H134196   3.549   5.542   5.233  0.7764  0.9224 -0.6272
 4235TIP3    H234197   3.415   5.600   5.274 -0.3424 -1.7886 -0.2495
 4236TIP3   OH234198   1.606   5.895  12.718  0.3484 -0.2874  0.5055
 4236TIP3    H134199   1.532   5.932  12.670  0.3141 -1.0166 -0.0112
 4236TIP3    H234200   1.647   5.835  12.657  1.8344  0.6639  0.5350
 4237TIP3   OH234201   5.622   2.067  10.765 -0.0260  0.0423 -0.3972
 4237TIP3    H134202   5.654   2.057  10.854  0.3926 -1.3838 -0.6925
 4237TIP3    H234203   5.602   1.978  10.736 -0.1981  0.4844 -1.7063
 4238TIP3   OH234204   2.790   4.502   2.321 -0.4111  0.4531  0.1059
 4238TIP3    H134205   2.829   4.512   2.234  0.4456  1.4374  0.5818
 4238TIP3    H234206   2.708   4.551   2.316  0.9746  2.9921  0.6544
 4239TIP3   OH234207   1.655   5.710   5.477 -0.4493  0.1331  0.5411
 4239TIP3    H134208   1.657   5.758   5.394 -1.3669 -0.7132  0.0064
 4239TIP3    H234209   1.563   5.711   5.502 -0.6655 -2.1425  0.0233
 4240TIP3   OH234210   2.183   6.122   2.428  0.2374  0.2639 -0.1227
 4240TIP3    H134211   2.217   6.182   2.494  1.6715  0.1724 -0.7375
 4240TIP3    H234212   2.153   6.046   2.478 -0.2714  0.8880  0.5420
 4241TIP3   OH234213   6.770   1.880  16.426  0.1511 -0.0229  0.4847
 4241TIP3    H134214   6.865   1.883  16.413 -0.0425  0.1503 -1.1566
 4241TIP3    H234215   6.735   1.948  16.368 -0.9345  0.5482  1.7520
 4242TIP3   OH234216   5.040   4.092  16.831  0.7912 -0.1917  0.0257
 4242TIP3    H134217   4.960   4.132  16.867  1.5449  1.7508 -0.3311
 4242TIP3    H234218   5.050   4.011  16.880  0.1896  0.9399  2.1496
 4243TIP3   OH234219   2.323   0.457   4.741  0.2248 -0.3514  0.1085
 4243TIP3    H134220   2.232   0.486   4.735  0.2428  0.2867  2.1056
 4243TIP3    H234221   2.318   0.375   4.791  0.5757 -1.5478 -1.7481
 4244TIP3   OH234222   2.485   3.568  12.816  0.0801  0.0737 -0.1200
 4244TIP3    H134223   2.465   3.570  12.910  1.9734 -0.2345  0.3311
 4244TIP3    H234224   2.526   3.652  12.799 -2.5342  1.2153 -1.3001
 4245TIP3   OH234225   5.402   3.498  15.136  0.6303  0.0586  0.1242
 4245TIP3    H134226   5.327   3.468  15.085 -1.2431  0.6025  2.4013
 4245TIP3    H234227   5.451   3.554  15.076 -0.2311 -1.0555 -1.7124
 4246TIP3   OH234228   0.623   0.810  11.471  0.2557  0.2033 -0.3520
 4246TIP3    H134229   0.687   0.869  11.432  0.8904 -1.1104 -1.3311
 4246TIP3    H234230   0.571   0.867  11.529 -0.3843  2.1184 -2.6599
 4247TIP3   OH234231   2.675   1.060  16.136  0.1777  0.0967  0.3846
 4247TIP3    H134232   2.628   1.116  16.074 -0.2912 -0.4200  0.2695
 4247TIP3    H234233   2.760   1.102  16.145  0.4840 -0.1500 -1.0868
 4248TIP3   OH234234   6.628   1.305   3.121 -0.2988 -0.6976 -0.2901
 4248TIP3    H134235   6.542   1.287   3.084 -0.6592 -0.2421  0.3021
 4248TIP3    H234236   6.631   1.400   3.129  1.0021 -0.5392 -2.0329
 4249TIP3   OH234237   3.533   3.724  11.264 -0.3041 -0.1943 -0.6442
 4249TIP3    H134238   3.567   3.813  11.256 -1.3889  0.4445  1.3860
 4249TIP3    H234239   3.611   3.668  11.256  0.6557  1.0253 -0.0388
 4250TIP3   OH234240   2.291   3.868   5.601 -0.5168  0.1678  0.1287
 4250TIP3    H134241   2.380   3.840   5.580 -0.2000  0.3094  1.2531
 4250TIP3    H234242   2.302   3.956   5.638 -0.8658 -0.7233  2.4776
 4251TIP3   OH234243   3.455   1.149   3.984  0.0290  0.2378 -0.9804
 4251TIP3    H134244   3.377   1.121   3.938 -0.8247  1.2688 -0.2278
 4251TIP3    H234245   3.490   1.221   3.931 -1.4985  2.0791  0.3793
 4252TIP3   OH234246   1.517   6.832   2.921  0.2138 -0.1153 -1.0778
 4252TIP3    H134247   1.440   6.884   2.940 -0.2575 -0.8922 -0.8213
 4252TIP3    H234248   1.589   6.895   2.920  0.0459  0.2260  1.6774
 4253TIP3   OH234249   0.776   4.823  16.140  0.1642  0.3173 -0.3288
 4253TIP3    H134250   0.721   4.748  16.165  1.3101  0.2362  2.2043
 4253TIP3    H234251   0.716   4.897  16.139 -0.7490 -0.3830 -1.6907
 4254TIP3   OH234252   5.925   4.078  16.724 -0.0005  0.4613  0.1294
 4254TIP3    H134253   5.939   4.172  16.733  2.4498  0.0522  1.6110
 4254TIP3    H234254   5.916   4.046  16.814 -0.4663 -0.7665 -0.3298
 4255TIP3   OH234255   6.232   5.174  16.980 -0.0962 -0.3950  0.6927
 4255TIP3    H134256   6.157   5.228  16.955  0.7747  1.0309  1.0541
 4255TIP3    H234257   6.275   5.223  17.050 -0.4007 -2.5454  2.4924
 4256TIP3   OH234258   2.358   4.218  13.629  0.3053 -0.6931 -0.1829
 4256TIP3    H134259   2.309   4.138  13.609 -0.4108  0.2409 -2.4384
 4256TIP3    H234260   2.306   4.288  13.590  1.6445  0.7357  0.5205
 4257TIP3   OH234261   6.501   4.327   3.197  0.7883 -0.4443  0.3148
 4257TIP3    H134262   6.544   4.376   3.268  1.4436 -0.2132 -0.2331
 4257TIP3    H234263   6.423   4.379   3.176  1.5896  0.5153 -0.4127
 4258TIP3   OH234264   3.502   0.540  15.679 -0.7273  0.3970  0.1338
 4258TIP3    H134265   3.422   0.553  15.729 -0.3608  1.1280  0.5666
 4258TIP3    H234266   3.513   0.445  15.674 -2.1084  0.2691 -0.7464
 4259TIP3   OH234267   1.553   6.402  14.788 -0.0581  0.0253 -0.0445
 4259TIP3    H134268   1.497   6.428  14.714 -0.1345 -0.3139 -0.1073
 4259TIP3    H234269   1.522   6.315  14.811 -0.4750  0.3909  0.8199
 4260TIP3   OH234270   5.415   3.009  12.611 -0.5002  0.6393 -0.0106
 4260TIP3    H134271   5.461   2.996  12.694 -1.8362 -1.1520  0.5297
 4260TIP3    H234272   5.483   3.038  12.550  0.6655  1.2462  1.5144
 4261TIP3   OH234273   4.855   1.820  16.085  0.1847  0.4024  0.1370
 4261TIP3    H134274   4.906   1.794  16.161  0.6063 -1.2897 -0.6631
 4261TIP3    H234275   4.914   1.807  16.011 -1.2409 -1.2775 -0.7888
 4262TIP3   OH234276   0.958   4.065  13.310 -0.0392  0.3650  0.0872
 4262TIP3    H134277   1.009   4.140  13.278  0.4849 -0.2889 -0.6474
 4262TIP3    H234278   0.873   4.102  13.335  0.4356  1.3009  0.3493
 4263TIP3   OH234279   5.856   4.649   1.294  0.3271 -0.0060 -0.0765
 4263TIP3    H134280   5.838   4.740   1.273 -0.1753 -0.5256 -2.0960
 4263TIP3    H234281   5.777   4.601   1.268  1.1177 -1.1874 -0.4243
 4264TIP3   OH234282   0.576   1.147  12.011 -0.1668 -0.0513  0.0278
 4264TIP3    H134283   0.499   1.165  11.957  0.1010 -1.2039 -0.7713
 4264TIP3    H234284   0.650   1.159  11.952  0.1137 -1.7253 -0.0059
 4265TIP3   OH234285   2.213   2.534  13.801  0.1380  0.3292 -0.5798
 4265TIP3    H134286   2.146   2.578  13.853 -0.3887  1.1387 -1.9021
 4265TIP3    H234287   2.266   2.487  13.866 -1.0993  0.4713  0.5769
 4266TIP3   OH234288   5.808   6.782  11.784 -0.2879 -0.4865  0.3071
 4266TIP3    H134289   5.750   6.753  11.854 -0.8488 -1.2054 -0.4424
 4266TIP3    H234290   5.895   6.782  11.824 -1.0051  4.0754  2.6149
 4267TIP3   OH234291   0.369   5.963  13.300 -0.1936 -0.4961 -0.0616
 4267TIP3    H134292   0.340   5.988  13.212 -0.8017 -1.8233 -0.2466
 4267TIP3    H234293   0.461   5.991  13.304 -0.3464  0.1412 -0.8857
 4268TIP3   OH234294   1.226   2.795   3.855 -0.0514  0.5002 -0.2558
 4268TIP3    H134295   1.138   2.785   3.817 -0.6793 -1.4208  1.5096
 4268TIP3    H234296   1.211   2.797   3.950  1.7405  1.4375  0.0480
 4269TIP3   OH234297   4.383   4.302   0.502  0.1042  0.3732 -0.2916
 4269TIP3    H134298   4.470   4.271   0.476 -0.1268 -0.4710 -0.0689
 4269TIP3    H234299   4.323   4.260   0.440 -0.4189 -1.3578  1.2985
 4270TIP3   OH234300   2.250   5.937  14.052 -0.0796 -0.6845 -0.1252
 4270TIP3    H134301   2.202   5.952  13.971  1.8308 -0.1963 -1.2328
 4270TIP3    H234302   2.336   5.906  14.024  0.2806 -1.5865  1.7686
 4271TIP3   OH234303   5.772   3.054  14.018  0.2547  0.6354  0.0148
 4271TIP3    H134304   5.812   3.071  14.104 -0.0793  0.9847  0.1059
 4271TIP3    H234305   5.750   3.141  13.985  0.6701  0.5257 -0.5702
 4272TIP3   OH234306   5.425   3.825  12.361 -0.2190 -0.4853  0.3582
 4272TIP3    H134307   5.498   3.766  12.343  0.6575  0.7132 -0.1674
 4272TIP3    H234308   5.439   3.899  12.301  0.0994  1.4081  2.6269
 4273TIP3   OH234309   1.646   1.973   3.229  0.0744 -0.4718 -0.0484
 4273TIP3    H134310   1.719   1.983   3.289  0.1426  0.6738 -0.3014
 4273TIP3    H234311   1.568   1.983   3.283  0.1363  1.1496 -0.2047
 4274TIP3   OH234312   3.490   5.563   2.362  0.3337 -0.4740 -0.6380
 4274TIP3    H134313   3.395   5.558   2.352  0.4220 -0.0125 -1.8609
 4274TIP3    H234314   3.512   5.487   2.415 -0.7863 -0.2155  0.2467
 4275TIP3   OH234315   5.834   6.192   4.948 -0.1737  0.4017 -0.0126
 4275TIP3    H134316   5.901   6.254   4.979 -0.1898  0.2485  0.3350
 4275TIP3    H234317   5.880   6.136   4.886 -0.3460  1.2531 -0.9266
 4276TIP3   OH234318   6.824   0.904   5.650 -0.0305  0.3031 -0.3827
 4276TIP3    H134319   6.884   0.944   5.586  0.7383 -0.8423 -0.3910
 4276TIP3    H234320   6.867   0.917   5.734 -0.2430  0.3272 -0.2778
 4277TIP3   OH234321   0.860   1.561  16.004 -0.1512  0.2588  0.1455
 4277TIP3    H134322   0.773   1.596  15.984 -0.3748  0.1522  0.9213
 4277TIP3    H234323   0.880   1.505  15.929 -0.1793  1.3010 -0.6732
 4278TIP3   OH234324   4.861   2.229  14.268  0.5445 -0.1763  0.1941
 4278TIP3    H134325   4.951   2.215  14.239  0.7144 -0.0461  0.6561
 4278TIP3    H234326   4.832   2.305  14.216  0.5845 -0.4220 -0.1951
 4279TIP3   OH234327   3.799   4.600   5.433 -0.1538 -0.5618 -0.6877
 4279TIP3    H134328   3.794   4.667   5.501  2.4338 -2.2912  1.4237
 4279TIP3    H234329   3.861   4.635   5.369  1.0104 -0.7642  0.2919
 4280TIP3   OH234330   1.258   4.252   0.196  0.7221  0.3801 -0.0966
 4280TIP3    H134331   1.266   4.347   0.205 -0.1952  0.3425  1.5060
 4280TIP3    H234332   1.166   4.234   0.217  1.1571 -0.9646  0.7669
 4281TIP3   OH234333   5.095   1.732   4.455 -0.3791 -0.2092  0.8545
 4281TIP3    H134334   5.167   1.735   4.518  0.2415 -1.4375  0.2367
 4281TIP3    H234335   5.137   1.737   4.370 -1.2088  1.3275  0.4950
 4282TIP3   OH234336   0.394   1.018   1.118 -0.1905 -0.2635 -0.0151
 4282TIP3    H134337   0.350   1.044   1.037 -0.5809 -2.1673 -0.4630
 4282TIP3    H234338   0.323   1.010   1.182  0.0018  0.3239  0.2791
 4283TIP3   OH234339   1.049   3.502   6.490  0.2952  0.2583  0.2773
 4283TIP3    H134340   1.009   3.586   6.514  0.0905  0.7395 -1.5865
 4283TIP3    H234341   1.095   3.520   6.408  1.0463 -1.2420  0.3400
 4284TIP3   OH234342   2.684   1.393  11.771  0.1105  0.0597 -0.4223
 4284TIP3    H134343   2.632   1.398  11.691 -0.0287  0.8061 -0.2840
 4284TIP3    H234344   2.770   1.362  11.740 -0.2251 -0.5930 -0.7259
 4285TIP3   OH234345   3.594   4.070   0.975 -0.6470  0.2420  0.6789
 4285TIP3    H134346   3.635   4.056   1.060 -0.2939 -0.1287  0.4501
 4285TIP3    H234347   3.501   4.083   0.995 -0.4954  0.6037  1.1572
 4286TIP3   OH234348   6.599   5.275  15.424  0.0798  0.1261  0.3234
 4286TIP3    H134349   6.682   5.265  15.377 -0.0905  0.0007  0.0473
 4286TIP3    H234350   6.563   5.187  15.429  0.2135  0.1051  0.9087
 4287TIP3   OH234351   0.718   5.227  12.439  0.1561 -0.3989 -0.4708
 4287TIP3    H134352   0.628   5.253  12.457  0.3996 -0.0241  0.2903
 4287TIP3    H234353   0.757   5.217  12.526  0.8725 -0.4581 -0.7922
 4288TIP3   OH234354   0.230   6.650   5.524 -0.3225 -0.0905 -0.1358
 4288TIP3    H134355   0.260   6.560   5.540 -0.6590 -0.3213 -0.7505
 4288TIP3    H234356   0.243   6.663   5.430  3.8216  2.0476  0.4997
 4289TIP3   OH234357   5.045   0.549   1.465  0.0844 -0.5148 -0.3916
 4289TIP3    H134358   5.116   0.515   1.519 -0.4418 -1.0895 -0.0479
 4289TIP3    H234359   5.016   0.628   1.512 -1.8894 -2.2215  1.4941
 4290TIP3   OH234360   3.436   2.064   4.525 -0.0802  0.7492  0.1132
 4290TIP3    H134361   3.421   2.109   4.608  0.8315 -0.3933  0.9138
 4290TIP3    H234362   3.414   1.973   4.542  1.3114  0.2631 -0.5307
 4291TIP3   OH234363   1.580   5.522  12.055 -0.5179 -0.6274  0.4036
 4291TIP3    H134364   1.611   5.573  11.980  0.9861 -0.2587  1.2218
 4291TIP3    H234365   1.654   5.523  12.116 -2.1351  0.2751  2.4873
 4292TIP3   OH234366   4.873   0.981  11.302  0.0069 -0.0540 -0.0732
 4292TIP3    H134367   4.816   0.935  11.364  2.7058 -3.7603 -0.0048
 4292TIP3    H234368   4.858   0.937  11.219  1.0009  0.5580 -0.5927
 4293TIP3   OH234369   4.884   1.569  14.234 -0.2042 -0.4801  0.6162
 4293TIP3    H134370   4.828   1.641  14.204 -0.2604 -0.5276  0.6058
 4293TIP3    H234371   4.972   1.605  14.231  0.2116 -1.3931 -2.6216
 4294TIP3   OH234372   5.166   3.038  15.192  0.2850 -0.4246  0.1449
 4294TIP3    H134373   5.208   3.070  15.112 -0.2206  1.1169  0.4718
 4294TIP3    H234374   5.073   3.030  15.168  0.5914 -3.3829 -0.4434
 4295TIP3   OH234375   3.004   5.520  13.552  0.1960  0.1355 -0.0884
 4295TIP3    H134376   3.067   5.586  13.582 -0.5248  0.6272  0.3637
 4295TIP3    H234377   3.037   5.438  13.588  1.2748  0.1846 -0.9154
 4296TIP3   OH234378   6.796   5.295  12.342  0.4875  0.2432  0.1319
 4296TIP3    H134379   6.810   5.313  12.435 -0.2625 -0.0191  0.3084
 4296TIP3    H234380   6.717   5.345  12.320  0.5910  0.2093 -0.3390
 4297TIP3   OH234381   3.806   1.290   4.760  0.0862  0.1840  0.0731
 4297TIP3    H134382   3.854   1.372   4.765 -0.5962  0.5685  0.4216
 4297TIP3    H234383   3.808   1.255   4.850  2.2601 -1.2962 -0.4775
 4298TIP3   OH234384   2.686   5.405   3.043 -0.4364  0.1727 -0.1244
 4298TIP3    H134385   2.682   5.453   3.125  1.5849 -0.6490  0.5157
 4298TIP3    H234386   2.607   5.431   2.996 -1.3484  1.1040  1.8190
 4299TIP3   OH234387   3.286   5.076   0.029 -0.1100  0.2471  0.1438
 4299TIP3    H134388   3.350   5.147   0.028 -0.1004  0.2386  0.1471
 4299TIP3    H234389   3.317   5.016   0.097 -1.2537  1.2694  1.6179
 4300TIP3   OH234390   3.036   3.272   5.702 -0.6039 -0.2174  0.5024
 4300TIP3    H134391   2.987   3.238   5.627 -2.1735 -0.1920  1.4605
 4300TIP3    H234392   3.067   3.193   5.747 -0.0717 -0.2441  0.0978
 4301TIP3   OH234393   4.321   3.993   3.686 -0.2911 -0.5804  0.2508
 4301TIP3    H134394   4.273   3.921   3.728 -0.5476 -0.8851 -0.5557
 4301TIP3    H234395   4.254   4.056   3.663 -0.5227 -1.5493 -1.9965
 4302TIP3   OH234396   4.407   6.457   6.194 -0.0269 -0.5189 -0.4686
 4302TIP3    H134397   4.455   6.439   6.113  0.0541  0.7408 -0.7295
 4302TIP3    H234398   4.353   6.380   6.208  0.2090 -0.8949 -1.5501
 4303TIP3   OH234399   5.257   3.404  11.885 -0.0509 -0.8803  0.3409
 4303TIP3    H134400   5.246   3.323  11.935  1.5538 -1.1404  0.3482
 4303TIP3    H234401   5.313   3.459  11.940 -0.5678 -0.0263  0.0410
 4304TIP3   OH234402   0.292   6.792   5.749  0.3306  0.0281 -0.8766
 4304TIP3    H134403   0.264   6.777   5.659 -0.5791  1.2202 -0.8123
 4304TIP3    H234404   0.216   6.769   5.802  0.7232 -0.2702 -0.4381
 4305TIP3   OH234405   0.222   4.364   2.512  0.7552  0.0829 -0.0740
 4305TIP3    H134406   0.309   4.329   2.491  1.6018  1.7298  0.5312
 4305TIP3    H234407   0.233   4.408   2.596 -0.0721  2.2711 -1.0416
 4306TIP3   OH234408   0.515   2.578   0.802 -0.1144 -0.2392 -0.3978
 4306TIP3    H134409   0.557   2.629   0.872  0.4953 -1.1109 -0.1176
 4306TIP3    H234410   0.425   2.611   0.800  0.3450  1.0966 -0.4669
 4307TIP3   OH234411   3.330   6.617  12.236  0.0900 -0.5510 -0.0209
 4307TIP3    H134412   3.285   6.541  12.199  1.2330 -0.3790 -1.8669
 4307TIP3    H234413   3.259   6.670  12.273 -0.7421 -2.4544  1.3257
 4308TIP3   OH234414   1.348   0.913  11.436  0.4550 -0.3529 -0.0053
 4308TIP3    H134415   1.376   0.995  11.476  0.0609 -0.4033  0.3828
 4308TIP3    H234416   1.422   0.885  11.383  0.5871  0.2613 -0.1481
 4309TIP3   OH234417   6.502   2.339   4.251 -0.9613 -0.1850 -0.2627
 4309TIP3    H134418   6.524   2.412   4.193  1.1112 -0.7929 -0.3416
 4309TIP3    H234419   6.409   2.324   4.237 -0.9092  0.8741 -2.0487
 4310TIP3   OH234420   0.128   0.182   4.251 -0.4125  0.2781  0.2106
 4310TIP3    H134421   0.130   0.144   4.338  1.3129 -3.4256 -1.2438
 4310TIP3    H234422   0.053   0.141   4.207 -0.5801  1.2271 -0.4539
 4311TIP3   OH234423   3.747   5.812   1.396  0.2924 -0.1896  0.1399
 4311TIP3    H134424   3.695   5.853   1.327 -2.1618 -2.4117  0.5081
 4311TIP3    H234425   3.723   5.860   1.476 -0.4486 -0.5792  0.1539
 4312TIP3   OH234426   3.009   1.575  16.095  0.1768 -0.5624  0.2293
 4312TIP3    H134427   2.986   1.496  16.046  1.4048 -1.1832  0.6139
 4312TIP3    H234428   2.950   1.642  16.061  0.4681 -1.1526 -1.5519
 4313TIP3   OH234429   2.113   5.124   4.581 -0.5833 -0.2808 -0.4081
 4313TIP3    H134430   2.129   5.210   4.543 -0.1888 -0.4632 -0.6545
 4313TIP3    H234431   2.066   5.076   4.513  1.1446 -1.0016 -1.1532
 4314TIP3   OH234432   4.159   3.275   1.605 -0.3703 -0.0223 -0.5942
 4314TIP3    H134433   4.164   3.180   1.601  0.5454  0.0259 -0.7822
 4314TIP3    H234434   4.065   3.294   1.604 -0.5560 -0.9014 -0.8806
 4315TIP3   OH234435   0.467   6.316   6.075  0.2754 -0.2411  0.0056
 4315TIP3    H134436   0.457   6.260   5.998 -2.0460 -1.3784  1.0322
 4315TIP3    H234437   0.377   6.332   6.105  1.0646  0.8833  1.9787
 4316TIP3   OH234438   0.311   1.749   0.191 -0.0699 -0.3716  0.0332
 4316TIP3    H134439   0.268   1.832   0.211  0.0244 -0.4105  0.4155
 4316TIP3    H234440   0.246   1.683   0.211  0.3743 -0.4643  1.2543
 4317TIP3   OH234441   4.825   0.763   1.022 -0.5417 -0.1596  0.4694
 4317TIP3    H134442   4.861   0.794   1.105 -0.1896  0.5249  0.0650
 4317TIP3    H234443   4.795   0.674   1.041  0.7135 -0.4858  0.9961
 4318TIP3   OH234444   1.015   3.794  11.239 -0.6450  0.1586  0.0187
 4318TIP3    H134445   0.957   3.870  11.242 -0.0537  0.6588 -0.7414
 4318TIP3    H234446   1.089   3.823  11.185 -0.0024 -0.6786  0.4326
 4319TIP3   OH234447   1.255   6.307  13.545 -0.0087  0.2643 -0.6292
 4319TIP3    H134448   1.284   6.263  13.464 -0.1491 -0.2161 -0.4184
 4319TIP3    H234449   1.325   6.289  13.608 -0.8253 -1.0383 -0.0672
 4320TIP3   OH234450   3.296   1.584  13.261 -0.1014 -0.1043 -0.1015
 4320TIP3    H134451   3.282   1.650  13.329 -1.8563 -0.6457  0.1222
 4320TIP3    H234452   3.388   1.595  13.235  0.7445 -0.1515  2.6179
 4321TIP3   OH234453   6.624   2.859   5.393 -0.0441  0.2243  0.0192
 4321TIP3    H134454   6.677   2.780   5.393  0.9225  0.8453  0.9769
 4321TIP3    H234455   6.687   2.930   5.403 -0.6372  1.3334 -2.9117
 4322TIP3   OH234456   1.138   0.540  16.734 -0.0235  0.0381  0.3055
 4322TIP3    H134457   1.054   0.565  16.773 -0.0822 -0.6274  0.6147
 4322TIP3    H234458   1.144   0.445  16.747  1.3741  0.2567  1.4880
 4323TIP3   OH234459   1.797   1.706  14.861  0.7445 -0.1137  0.2709
 4323TIP3    H134460   1.794   1.773  14.793 -0.9308 -1.5413 -1.1751
 4323TIP3    H234461   1.833   1.629  14.817  1.8217 -0.4546  1.6572
 4324TIP3   OH234462   2.931   5.582   3.639  0.2652  0.3357  0.1877
 4324TIP3    H134463   2.862   5.527   3.603  1.3426  0.2284 -1.8883
 4324TIP3    H234464   2.945   5.650   3.573  1.0633  1.2863  1.2923
 4325TIP3   OH234465   6.643   1.599   2.343  0.0445 -0.4610 -0.5160
 4325TIP3    H134466   6.709   1.650   2.389 -0.8266  0.3164 -0.0956
 4325TIP3    H234467   6.689   1.521   2.312  1.0335 -0.1602  0.1823
 4326TIP3   OH234468   2.978   5.648  15.355 -0.1223  0.4170  0.3443
 4326TIP3    H134469   2.953   5.694  15.435  1.4904  1.7319  0.1546
 4326TIP3    H234470   3.066   5.614  15.373 -0.5077 -0.9271 -0.2122
 4327TIP3   OH234471   6.299   0.223   4.713 -0.6708 -0.1362 -0.4043
 4327TIP3    H134472   6.322   0.218   4.805 -0.2422  0.1848 -0.4875
 4327TIP3    H234473   6.261   0.310   4.701  0.9336  0.5598 -0.8636
 4328TIP3   OH234474   3.196   5.541  10.459 -0.7321 -0.2113 -0.5238
 4328TIP3    H134475   3.143   5.498  10.393 -1.4241  0.7100 -0.5832
 4328TIP3    H234476   3.144   5.615  10.488  1.0905  1.6473 -1.6680
 4329TIP3   OH234477   3.206   0.058   1.813  0.0274  0.0321 -0.2130
 4329TIP3    H134478   3.128   0.014   1.780  0.3814  0.2488 -1.3940
 4329TIP3    H234479   3.279   0.014   1.769  0.7059 -1.0094  1.7919
 4330TIP3   OH234480   0.573   3.506  16.173  0.0878  0.0851 -0.0571
 4330TIP3    H134481   0.499   3.533  16.118  0.3072  0.6584 -0.0792
 4330TIP3    H234482   0.556   3.546  16.258 -0.6557 -1.4484  0.5585
 4331TIP3   OH234483   5.798   1.797  10.610 -0.0443  0.0316  0.7596
 4331TIP3    H134484   5.733   1.838  10.553  0.5223  0.1719  0.2138
 4331TIP3    H234485   5.858   1.867  10.634 -0.0051 -0.1293  1.1479
 4332TIP3   OH234486   0.371   4.185   3.049 -0.0064  0.7565 -0.4092
 4332TIP3    H134487   0.457   4.149   3.069 -1.5248 -2.7572  0.5091
 4332TIP3    H234488   0.367   4.187   2.953  2.0535  3.8974 -0.5819
 4333TIP3   OH234489   3.995   2.140   3.582  0.5327  0.0547 -0.0025
 4333TIP3    H134490   4.082   2.180   3.580  0.0141  1.2164 -0.7213
 4333TIP3    H234491   3.964   2.145   3.492 -0.3417 -0.1816  0.2732
 4334TIP3   OH234492   1.117   2.127  13.155 -0.3361  0.2587  0.1698
 4334TIP3    H134493   1.159   2.053  13.112  2.0882  0.8016  1.3880
 4334TIP3    H234494   1.082   2.180  13.083  1.9613  0.2238 -1.0782
 4335TIP3   OH234495   4.934   3.456  15.909  0.3434 -0.3872  0.1054
 4335TIP3    H134496   4.893   3.406  15.838 -2.6615  0.3164  1.1868
 4335TIP3    H234497   4.983   3.391  15.959 -0.9068 -1.7022 -0.2929
 4336TIP3   OH234498   4.953   4.310   2.811  0.0965 -0.0242 -0.0451
 4336TIP3    H134499   4.985   4.366   2.740 -2.0381  1.1715 -0.1648
 4336TIP3    H234500   4.960   4.364   2.889  0.8130 -0.7059  0.3714
 4337TIP3   OH234501   1.589   1.883  15.431 -0.3308 -0.3057  0.1189
 4337TIP3    H134502   1.634   1.902  15.349 -0.2107 -2.3979 -0.3374
 4337TIP3    H234503   1.643   1.925  15.498 -0.0640  0.8514 -0.7786
 4338TIP3   OH234504   0.286   2.525  13.512 -0.3918  0.3164  0.2217
 4338TIP3    H134505   0.228   2.472  13.566 -0.3450 -1.0805 -1.0038
 4338TIP3    H234506   0.367   2.473  13.506  0.3091  1.3646  0.4080
 4339TIP3   OH234507   3.475   2.422   3.881  0.3675 -0.6577  0.0410
 4339TIP3    H134508   3.566   2.395   3.870  0.6964  0.4308 -0.0897
 4339TIP3    H234509   3.478   2.485   3.953 -0.4065 -1.1764  0.5378
 4340TIP3   OH234510   3.463   2.185  11.568 -0.1627  0.3982  0.7575
 4340TIP3    H134511   3.519   2.173  11.645  1.1097  2.5387  0.2528
 4340TIP3    H234512   3.422   2.270  11.582 -1.0154  0.1696 -0.2722
 4341TIP3   OH234513   6.115   4.804  15.194  0.1171  0.4403  0.2930
 4341TIP3    H134514   6.043   4.867  15.199  0.6028  1.1141 -0.7336
 4341TIP3    H234515   6.123   4.783  15.101  0.4661 -0.5599  0.5360
 4342TIP3   OH234516   5.777   2.523   3.284 -0.2322  0.8925 -0.1363
 4342TIP3    H134517   5.765   2.432   3.255  0.9725  0.7808 -0.3419
 4342TIP3    H234518   5.766   2.575   3.205 -0.5309  0.8950 -0.0941
 4343TIP3   OH234519   0.737   2.080   2.326  0.3903  0.0582  0.0538
 4343TIP3    H134520   0.723   2.140   2.399 -1.0035  0.9214 -0.8693
 4343TIP3    H234521   0.792   2.011   2.362 -1.2101 -0.1680  2.2740
 4344TIP3   OH234522   3.428   0.295   4.344 -0.0765  0.3553 -0.0941
 4344TIP3    H134523   3.337   0.285   4.369 -0.0679 -1.3623 -0.6172
 4344TIP3    H234524   3.467   0.209   4.360  1.8661  1.4589  1.6567
 4345TIP3   OH234525   6.019   3.615  13.166  0.4177 -0.1271  0.0012
 4345TIP3    H134526   5.975   3.610  13.081 -0.3137 -1.3064  0.4225
 4345TIP3    H234527   6.028   3.524  13.194  1.5107  0.1928  0.7661
 4346TIP3   OH234528   1.806   6.215  11.750 -0.1213  0.2785  0.5877
 4346TIP3    H134529   1.766   6.273  11.685  1.6299  1.2945  0.3487
 4346TIP3    H234530   1.794   6.261  11.833 -1.0350 -0.2998  0.7859
 4347TIP3   OH234531   5.693   5.105  12.084 -0.0878  0.3069 -0.3783
 4347TIP3    H134532   5.699   5.120  12.178  0.7418  0.1446 -0.3962
 4347TIP3    H234533   5.730   5.183  12.044 -0.0679  0.2050 -0.5613
 4348TIP3   OH234534   0.701   4.568   4.416  0.0562 -0.4977 -0.3265
 4348TIP3    H134535   0.684   4.540   4.506 -0.5619  1.4009  0.1886
 4348TIP3    H234536   0.667   4.496   4.362 -1.2294 -0.8660  0.9129
 4349TIP3   OH234537   2.113   3.402  16.196  0.0819  0.3854  0.7039
 4349TIP3    H134538   2.168   3.478  16.217  0.4325 -0.0635  1.4560
 4349TIP3    H234539   2.023   3.431  16.215  0.2188  0.5996  1.0209
 4350TIP3   OH234540   3.811   4.992   3.310 -0.0883 -0.3219  0.1405
 4350TIP3    H134541   3.737   5.002   3.371  1.1132  0.9634  1.4568
 4350TIP3    H234542   3.881   4.955   3.362  0.7143 -0.0188 -0.6985
 4351TIP3   OH234543   5.141   6.226  12.095  0.0258  0.3795 -0.5988
 4351TIP3    H134544   5.206   6.164  12.129  0.2684  0.8727 -0.1364
 4351TIP3    H234545   5.120   6.282  12.170 -1.9759 -0.6134 -0.3525
 4352TIP3   OH234546   0.335   1.318   5.099 -0.1115 -0.1768  0.4796
 4352TIP3    H134547   0.295   1.239   5.134 -0.1814 -0.0205  0.7548
 4352TIP3    H234548   0.263   1.381   5.092 -0.3032 -0.5076 -0.8748
 4353TIP3   OH234549   0.894   3.675  10.494 -0.8446 -0.0614 -0.3024
 4353TIP3    H134550   0.951   3.751  10.500 -1.3801  0.3703 -0.5280
 4353TIP3    H234551   0.806   3.712  10.488 -1.0627 -0.6748 -1.1331
 4354TIP3   OH234552   5.629   0.956   2.403  0.5970 -0.1594  0.6880
 4354TIP3    H134553   5.664   0.897   2.336  2.2414  0.8842  0.5519
 4354TIP3    H234554   5.603   1.034   2.354 -0.8817 -0.4475  0.9560
 4355TIP3   OH234555   1.950   0.712   2.886 -0.2594  0.1078 -0.4488
 4355TIP3    H134556   1.978   0.729   2.796 -0.9475  0.3039 -0.6308
 4355TIP3    H234557   2.031   0.713   2.937  0.4683 -2.2803 -1.3877
 4356TIP3   OH234558   0.805   4.312   4.003 -0.0159  0.0221  0.5468
 4356TIP3    H134559   0.829   4.226   3.970 -0.3254  0.1021  0.0979
 4356TIP3    H234560   0.757   4.294   4.084  1.3220 -0.1433  1.3187
 4357TIP3   OH234561   5.757   2.257  16.877 -0.3208  0.2341 -0.3466
 4357TIP3    H134562   5.759   2.276  16.971 -0.8296 -0.9357 -0.0886
 4357TIP3    H234563   5.848   2.267  16.849  0.1776 -1.1965  0.6484
 4358TIP3   OH234564   1.714   1.941   1.892  0.1204  0.1348 -0.0720
 4358TIP3    H134565   1.664   1.993   1.829  0.1220 -1.0440 -1.0778
 4358TIP3    H234566   1.652   1.921   1.961 -0.3712 -0.0328 -0.5593
 4359TIP3   OH234567   5.809   5.263  13.016  0.0204 -0.7303  0.0432
 4359TIP3    H134568   5.789   5.352  13.045  0.9029 -0.7568  0.8203
 4359TIP3    H234569   5.905   5.259  13.020  0.1099 -1.1469 -1.7559
 4360TIP3   OH234570   5.672   3.218  11.282  0.2668 -0.6364  0.3948
 4360TIP3    H134571   5.660   3.287  11.347 -0.7011 -0.4897  0.0791
 4360TIP3    H234572   5.742   3.250  11.225 -2.4838  1.8092 -1.9125
 4361TIP3   OH234573   2.001   5.091   2.661  0.0810 -0.1011 -0.9272
 4361TIP3    H134574   1.921   5.048   2.691 -0.8341  3.1211  1.9019
 4361TIP3    H234575   2.052   5.106   2.740  1.3978  1.8119 -2.0233
 4362TIP3   OH234576   5.629   6.647  12.576 -0.0014 -0.5028  0.2950
 4362TIP3    H134577   5.678   6.712  12.625  1.1404  0.9924 -2.5577
 4362TIP3    H234578   5.539   6.679  12.576  0.1483 -0.0741  0.6826
 4363TIP3   OH234579   6.678   2.168  16.164 -0.7133  0.4685  0.1097
 4363TIP3    H134580   6.672   2.073  16.148  1.7385  0.4207 -1.0105
 4363TIP3    H234581   6.772   2.184  16.172 -1.0624  2.8760 -0.0799
 4364TIP3   OH234582   2.145   4.620   1.924 -0.4622 -0.3706  0.1807
 4364TIP3    H134583   2.070   4.568   1.896 -0.2483 -0.6208  0.0712
 4364TIP3    H234584   2.215   4.596   1.864 -0.1126 -0.6183  0.6812
 4365TIP3   OH234585   2.170   5.397   0.009  0.2917 -0.3962 -0.0481
 4365TIP3    H134586   2.170   5.464   0.076 -1.7077 -0.1821 -0.1850
 4365TIP3    H234587   2.174   5.445  -0.074 -1.3757 -0.3848 -0.1525
 4366TIP3   OH234588   2.160   1.996   0.883  0.3346  0.1075 -0.0341
 4366TIP3    H134589   2.107   1.930   0.837 -0.6215 -0.4635  1.8110
 4366TIP3    H234590   2.138   2.079   0.840  0.6653 -0.5818 -1.6134
 4367TIP3   OH234591   2.886   2.928   1.689 -0.0362 -0.2291 -0.3673
 4367TIP3    H134592   2.937   2.997   1.649 -0.2909 -0.3346 -0.8799
 4367TIP3    H234593   2.937   2.901   1.765 -0.5860  1.4597  0.6440
 4368TIP3   OH234594   6.052   5.683  16.442  0.0798 -0.3060 -0.6130
 4368TIP3    H134595   6.147   5.678  16.430 -0.0680 -0.7572 -1.6975
 4368TIP3    H234596   6.024   5.750  16.379 -0.3744 -0.4946 -0.6133
 4369TIP3   OH234597   2.513   4.791   2.931 -0.2291 -0.2077 -0.4927
 4369TIP3    H134598   2.499   4.774   2.838 -0.0591 -1.3291 -0.3275
 4369TIP3    H234599   2.607   4.808   2.939 -0.2716  0.0515 -0.5514
 4370TIP3   OH234600   2.536   4.582  13.571 -0.0796 -0.0710  0.0635
 4370TIP3    H134601   2.465   4.645  13.562 -0.1178  0.0465  1.0896
 4370TIP3    H234602   2.606   4.630  13.615  0.6885 -0.1541 -1.0247
 4371TIP3   OH234603   4.948   4.265   1.624  0.7029  0.1610 -0.0767
 4371TIP3    H134604   5.032   4.220   1.610  0.2863 -0.9812  0.9359
 4371TIP3    H234605   4.962   4.314   1.705  0.4939  0.2227 -0.0800
 4372TIP3   OH234606   2.870   4.931  16.026  0.3574  0.1216  0.4984
 4372TIP3    H134607   2.895   4.839  16.014  0.9468  0.3251  0.1787
 4372TIP3    H234608   2.841   4.936  16.118  0.5462 -0.3321  0.5863
 4373TIP3   OH234609   3.032   1.151  11.037 -0.1858 -0.6388  0.0761
 4373TIP3    H134610   3.010   1.182  10.949  0.4686 -0.8185 -0.1540
 4373TIP3    H234611   3.073   1.227  11.079 -0.2609 -0.6323  0.1372
 4374TIP3   OH234612   2.671   2.699   2.678  0.1905  0.1193  0.6587
 4374TIP3    H134613   2.628   2.671   2.758  0.6925 -1.7959  0.2956
 4374TIP3    H234614   2.626   2.651   2.608  0.8488  0.4784 -0.0350
 4375TIP3   OH234615   1.747   1.733  10.902  0.2190  0.5325  0.0740
 4375TIP3    H134616   1.694   1.780  10.838  0.6174 -1.2840 -1.7027
 4375TIP3    H234617   1.709   1.645  10.903  2.1837 -0.3477 -0.0281
 4376TIP3   OH234618   6.199   0.568   2.237  0.3303 -0.3660  0.5531
 4376TIP3    H134619   6.149   0.594   2.160  1.2898 -0.4782 -0.1244
 4376TIP3    H234620   6.180   0.474   2.247  0.9574 -0.5752 -0.1379
 4377TIP3   OH234621   3.154   6.059   3.790  0.4635  0.1450 -0.2557
 4377TIP3    H134622   3.166   6.138   3.738  0.8515  0.7734  0.7691
 4377TIP3    H234623   3.066   6.028   3.765  0.1190  1.1440 -0.3332
 4378TIP3   OH234624   6.501   5.693  14.417  0.7284  0.2185  0.7989
 4378TIP3    H134625   6.529   5.759  14.354 -0.7228  0.2515  0.1437
 4378TIP3    H234626   6.456   5.743  14.486  1.4034  0.0881  1.3408
 4379TIP3   OH234627   0.370   0.017   0.486 -0.4526 -0.1122  0.2205
 4379TIP3    H134628   0.429   0.023   0.561  1.2413  0.2979 -1.0925
 4379TIP3    H234629   0.325  -0.067   0.497 -2.4099  1.1496  3.1550
 4380TIP3   OH234630   5.073   2.890  13.364  0.4552  0.1096  0.2445
 4380TIP3    H134631   5.160   2.929  13.354 -0.0177  1.3661  0.7940
 4380TIP3    H234632   5.061   2.882  13.459  0.5378 -1.4089  0.1361
 4381TIP3   OH234633   4.966   5.116   5.290 -0.0849 -0.2627  0.5952
 4381TIP3    H134634   4.931   5.047   5.346 -0.7127 -0.4211  0.0220
 4381TIP3    H234635   5.056   5.089   5.272 -1.1196 -2.4011 -1.8744
 4382TIP3   OH234636   2.192   2.386   0.955  0.1165 -0.5845  0.8222
 4382TIP3    H134637   2.242   2.431   0.888 -0.0617 -1.3172  0.1826
 4382TIP3    H234638   2.109   2.363   0.913 -0.2809 -0.4416  1.5038
 4383TIP3   OH234639   0.563   5.913  13.594 -0.2766  0.5718 -0.3216
 4383TIP3    H134640   0.587   6.006  13.586  0.8372  0.2665 -0.6193
 4383TIP3    H234641   0.601   5.872  13.517 -1.2123 -0.0611 -0.4621
 4384TIP3   OH234642   4.869   1.880   4.360 -0.3674  0.0586  0.0200
 4384TIP3    H134643   4.939   1.821   4.388  1.4598  1.5530 -1.1581
 4384TIP3    H234644   4.910   1.967   4.358 -2.2773  0.9988 -0.6586
 4385TIP3   OH234645   5.815   5.677  14.908  0.1125 -0.3251 -0.4576
 4385TIP3    H134646   5.819   5.763  14.950  0.8665 -0.6109  0.0776
 4385TIP3    H234647   5.899   5.636  14.931  0.1643 -0.8233 -1.5227
 4386TIP3   OH234648   1.434   0.033   0.944  0.4337 -0.4733 -0.0604
 4386TIP3    H134649   1.358   0.050   0.888  0.8963  1.9983 -0.0351
 4386TIP3    H234650   1.462  -0.056   0.920 -0.1755 -0.0078 -2.8326
 4387TIP3   OH234651   5.225   6.559   1.035  0.3182 -0.2921  0.2962
 4387TIP3    H134652   5.304   6.515   1.002 -1.5377 -3.8488  0.1368
 4387TIP3    H234653   5.217   6.529   1.126 -0.5340  0.5815  0.5348
 4388TIP3   OH234654   6.646   1.366  15.916  0.0902  0.2832 -0.1175
 4388TIP3    H134655   6.652   1.457  15.886 -0.6748 -0.2676 -2.0910
 4388TIP3    H234656   6.567   1.363  15.970 -0.9925  0.4158 -1.6332
 4389TIP3   OH234657   6.399   0.534   3.778  0.3142 -0.0256 -0.0080
 4389TIP3    H134658   6.422   0.594   3.849 -1.2524  1.0917 -0.3960
 4389TIP3    H234659   6.303   0.535   3.775  0.2860  1.5296 -3.3932
 4390TIP3   OH234660   5.139   1.798   2.875 -0.6292 -0.2417  0.1962
 4390TIP3    H134661   5.044   1.786   2.875 -0.8152  1.0778  0.0133
 4390TIP3    H234662   5.155   1.867   2.940  0.2272 -0.6065  0.3897
 4391TIP3   OH234663   1.142   5.276   4.273  0.3626  0.0228 -0.1792
 4391TIP3    H134664   1.084   5.310   4.341  0.1729 -0.7153  0.0368
 4391TIP3    H234665   1.201   5.217   4.320  1.1426  0.5877 -0.4356
 4392TIP3   OH234666   1.908   4.151  12.215 -0.3591  0.1597 -0.2639
 4392TIP3    H134667   1.928   4.058  12.203  0.9859  0.6265 -2.0941
 4392TIP3    H234668   1.815   4.153  12.240 -0.3523 -1.6564  0.0439
 4393TIP3   OH234669   6.556   4.408  14.022 -0.0034  0.3108 -0.3247
 4393TIP3    H134670   6.508   4.491  14.017  2.1827  1.7429  1.1100
 4393TIP3    H234671   6.516   4.362  14.096 -2.7638 -1.1022 -2.4718
 4394TIP3   OH234672   0.274   4.688   2.168 -0.2093 -0.9152 -0.4401
 4394TIP3    H134673   0.333   4.658   2.099  1.0681 -1.5058  0.8618
 4394TIP3    H234674   0.281   4.784   2.165  0.5022 -0.9650 -0.5810
 4395TIP3   OH234675   2.664   3.712   1.949  0.6501 -0.0846 -0.6675
 4395TIP3    H134676   2.588   3.654   1.954  1.2541 -0.8071  0.4645
 4395TIP3    H234677   2.702   3.694   1.863  0.0200 -0.3083 -0.9100
 4396TIP3   OH234678   2.100   4.780  14.056  0.0666 -0.7304 -0.2942
 4396TIP3    H134679   2.015   4.739  14.046 -0.4405  0.2798 -0.2218
 4396TIP3    H234680   2.133   4.746  14.140 -0.4728 -0.7446 -0.0874
 4397TIP3   OH234681   0.488   6.696  13.139 -0.6733 -0.1031 -0.0169
 4397TIP3    H134682   0.481   6.661  13.228  0.1841  0.0314  0.1173
 4397TIP3    H234683   0.539   6.776  13.149 -1.9007  0.7648 -0.4321
 4398TIP3   OH234684   0.304   4.532  14.876  0.8976 -0.0561  0.1406
 4398TIP3    H134685   0.341   4.465  14.934  0.8249  1.4346  2.0142
 4398TIP3    H234686   0.216   4.546  14.909  0.7980  0.7264 -0.4324
 4399TIP3   OH234687   6.308   6.030   4.915 -0.0123  0.2447  0.0290
 4399TIP3    H134688   6.254   6.002   4.990 -0.7639  0.7130 -0.3240
 4399TIP3    H234689   6.301   5.957   4.853  0.1117  0.1196  0.1606
 4400TIP3   OH234690   3.975   3.213  12.107 -0.0058 -0.0947  0.3574
 4400TIP3    H134691   4.055   3.264  12.094 -0.5548  0.6853 -0.0639
 4400TIP3    H234692   4.005   3.124  12.124  0.9484 -0.6902 -3.4845
 4401TIP3   OH234693   5.035   4.337   0.035  0.0126  0.2457  0.1892
 4401TIP3    H134694   5.088   4.278  -0.019 -0.3428 -0.7780  0.9338
 4401TIP3    H234695   4.974   4.280   0.081 -1.2228  1.3236 -0.0447
 4402TIP3   OH234696   4.031   5.280  11.148 -1.1755  1.0592  0.2627
 4402TIP3    H134697   3.977   5.268  11.070 -0.3222 -1.0790 -0.0792
 4402TIP3    H234698   3.994   5.219  11.212  1.2631 -1.2575 -0.3140
 4403TIP3   OH234699   2.716   0.289  13.341 -0.0530 -0.3591  0.1212
 4403TIP3    H134700   2.761   0.253  13.417  1.9972  1.2217 -0.2498
 4403TIP3    H234701   2.761   0.251  13.265 -1.1035 -0.7874 -0.3039
 4404TIP3   OH234702   6.711   2.598  14.441 -0.0577  0.6363  0.1487
 4404TIP3    H134703   6.627   2.618  14.482 -1.6982  0.0240 -2.6123
 4404TIP3    H234704   6.716   2.502  14.442  1.1510  0.6916  1.2338
 4405TIP3   OH234705   2.100   2.137  13.098 -0.3710  0.1496  0.4954
 4405TIP3    H134706   2.107   2.223  13.140 -0.2295  0.4745 -0.1657
 4405TIP3    H234707   2.065   2.157  13.010 -1.0516 -0.5429  0.5956
 4406TIP3   OH234708   4.520   6.301  11.516 -0.0247  0.2297 -0.0872
 4406TIP3    H134709   4.435   6.310  11.472 -1.2359 -0.5275  1.9537
 4406TIP3    H234710   4.568   6.379  11.491 -1.5127  0.9382 -0.8849
 4407TIP3   OH234711   2.450   1.545  14.433 -0.0379 -0.4204 -0.3804
 4407TIP3    H134712   2.518   1.580  14.376  2.0059  1.2189  2.7507
 4407TIP3    H234713   2.450   1.451  14.416  2.0806 -0.2776 -1.4523
 4408TIP3   OH234714   6.091   3.686   4.239 -0.0719 -0.5970 -0.2489
 4408TIP3    H134715   6.104   3.763   4.184 -0.9653  0.5499  1.0970
 4408TIP3    H234716   6.065   3.617   4.177 -1.6283  0.8078 -1.2394
 4409TIP3   OH234717   6.683   1.800  16.675 -0.0171 -0.2253  0.1264
 4409TIP3    H134718   6.739   1.854  16.619 -0.6656 -0.6579 -0.9814
 4409TIP3    H234719   6.743   1.758  16.737  0.8664 -0.5048 -0.8892
 4410TIP3   OH234720   2.916   1.540  12.136 -0.0976 -0.3349 -0.2250
 4410TIP3    H134721   2.980   1.526  12.207 -0.8326 -1.7189  0.1837
 4410TIP3    H234722   2.908   1.636  12.131  0.2494 -0.1893  1.3270
 4411TIP3   OH234723   6.283   4.441  12.634  0.3867  0.2458  0.5475
 4411TIP3    H134724   6.331   4.361  12.616 -1.2401 -0.6381 -0.1185
 4411TIP3    H234725   6.277   4.445  12.729  1.6701  0.3393  0.6374
 4412TIP3   OH234726   4.285   1.879  16.785 -0.5576  0.3028 -0.5892
 4412TIP3    H134727   4.207   1.846  16.830  0.1682 -0.5807  0.0539
 4412TIP3    H234728   4.297   1.821  16.710  0.4891 -0.6907  0.3152
 4413TIP3   OH234729   6.184   2.136  10.906  0.2768  0.7112 -0.2093
 4413TIP3    H134730   6.161   2.139  10.999  0.0223  1.0311 -0.2807
 4413TIP3    H234731   6.231   2.053  10.896 -2.3930 -0.8919 -0.3999
 4414TIP3   OH234732   0.351   2.685   0.205  0.0644  0.1756 -0.0081
 4414TIP3    H134733   0.403   2.766   0.200  0.0067  0.2431  0.4263
 4414TIP3    H234734   0.308   2.690   0.290 -0.3351 -0.0763 -0.1938
 4415TIP3   OH234735   4.651   4.444   3.936  0.0608 -0.4450 -0.0936
 4415TIP3    H134736   4.709   4.423   3.863 -1.5132  2.0193 -2.2186
 4415TIP3    H234737   4.568   4.469   3.895 -0.9538  0.9494  2.5552
 4416TIP3   OH234738   3.499   1.607  13.634 -0.7950  0.0359  0.5167
 4416TIP3    H134739   3.527   1.669  13.566 -1.6810  0.5496  0.6190
 4416TIP3    H234740   3.473   1.529  13.585 -0.1217 -0.0998  0.3601
 4417TIP3   OH234741   2.716   2.421   6.113 -0.0081 -0.2898 -0.0592
 4417TIP3    H134742   2.790   2.461   6.159  2.3878 -2.1307 -2.0252
 4417TIP3    H234743   2.697   2.480   6.040 -0.1329 -0.0881  0.1345
 4418TIP3   OH234744   1.659   4.071  11.795  0.1528  0.7626  0.0537
 4418TIP3    H134745   1.582   4.109  11.837  0.9866 -0.0776  2.5494
 4418TIP3    H234746   1.733   4.121  11.830  0.9108 -0.0870 -0.2635
 4419TIP3   OH234747   0.036   5.192  15.607  0.1073 -0.2080 -0.8275
 4419TIP3    H134748  -0.022   5.132  15.560 -3.5194  1.7150  0.8063
 4419TIP3    H234749  -0.004   5.278  15.594  0.5785  0.8120  3.1952
 4420TIP3   OH234750   0.107   3.263  12.809 -0.5438  0.0590  0.0720
 4420TIP3    H134751   0.024   3.285  12.850 -2.3996 -0.2664 -3.1535
 4420TIP3    H234752   0.173   3.313  12.857 -2.7912  1.5796  1.7288
 4421TIP3   OH234753   5.027   5.836   3.033 -0.1799 -0.7138  0.2846
 4421TIP3    H134754   4.959   5.900   3.011  0.4787 -0.1701 -0.2096
 4421TIP3    H234755   5.073   5.874   3.108  0.1151 -0.6702  0.0854
 4422TIP3   OH234756   4.137   1.475  13.924  0.2954  0.3581 -0.1720
 4422TIP3    H134757   4.071   1.434  13.981 -0.5854  2.9343  0.8021
 4422TIP3    H234758   4.103   1.464  13.836  0.5441 -1.7105 -0.0645
 4423TIP3   OH234759   3.254   6.484  13.993 -0.5709 -0.0551  0.3440
 4423TIP3    H134760   3.336   6.440  14.015 -0.3588 -0.5685 -1.3039
 4423TIP3    H234761   3.265   6.510  13.902 -1.1761  2.3840  0.9040
 4424TIP3   OH234762   3.923   3.899  13.563 -0.2124  0.1102  0.3440
 4424TIP3    H134763   3.955   3.981  13.526 -0.8832 -0.4440 -1.6060
 4424TIP3    H234764   3.831   3.895  13.538 -1.5572  0.8736  4.3926
 4425TIP3   OH234765   6.332   4.789   5.352 -0.6101  0.9651  0.0697
 4425TIP3    H134766   6.280   4.715   5.383  4.3564 -3.6910 -1.1465
 4425TIP3    H234767   6.292   4.815   5.270 -1.4421 -2.0344 -0.5961
 4426TIP3   OH234768   6.287   2.952  13.595 -0.5994 -0.0563  0.0534
 4426TIP3    H134769   6.212   2.898  13.571 -1.8759  1.1493  1.1538
 4426TIP3    H234770   6.343   2.952  13.517 -1.6931 -1.0494 -0.7587
 4427TIP3   OH234771   2.999   1.883   3.419  0.0683 -0.2971  0.4782
 4427TIP3    H134772   2.955   1.859   3.338  0.2008  0.2374  0.2440
 4427TIP3    H234773   3.091   1.891   3.394 -0.0634  1.1212  0.3932
 4428TIP3   OH234774   1.540   3.446   5.015 -0.5645 -0.4126 -0.1597
 4428TIP3    H134775   1.563   3.360   4.981 -0.8564  0.2043 -2.0502
 4428TIP3    H234776   1.533   3.434   5.110 -1.8223 -2.7362 -0.4856
 4429TIP3   OH234777   6.572   6.132  15.939  0.1682  0.4476  0.5538
 4429TIP3    H134778   6.587   6.180  15.857  0.3931  0.8679  0.8319
 4429TIP3    H234779   6.621   6.051  15.929  0.5934  0.7125  0.4585
 4430TIP3   OH234780   1.526   5.278  14.346  0.1281 -0.2985  0.2276
 4430TIP3    H134781   1.598   5.340  14.345 -0.6065  0.6335 -1.9178
 4430TIP3    H234782   1.542   5.222  14.271 -2.1943  1.0449 -1.4063
 4431TIP3   OH234783   2.639   6.448   1.595 -0.1806 -1.2747 -0.1188
 4431TIP3    H134784   2.706   6.428   1.530  2.3683  1.4836  1.4646
 4431TIP3    H234785   2.668   6.403   1.674  1.3526  1.8425  1.2618
 4432TIP3   OH234786   6.306   0.034   3.366  0.1851 -0.0508 -0.0776
 4432TIP3    H134787   6.246  -0.006   3.429  2.0627 -1.6594  0.7951
 4432TIP3    H234788   6.356  -0.039   3.329  2.0221  1.2276 -0.3056
 4433TIP3   OH234789   2.727   0.762   3.554 -0.4085 -0.2376 -0.0934
 4433TIP3    H134790   2.687   0.784   3.638 -1.7707 -0.7907 -0.5704
 4433TIP3    H234791   2.668   0.698   3.515  0.9319 -1.0353 -0.8736
 4434TIP3   OH234792   0.440   0.976  11.615 -0.0920 -0.4035  0.0409
 4434TIP3    H134793   0.382   1.020  11.552 -0.7221 -0.7677  0.3547
 4434TIP3    H234794   0.409   1.005  11.700 -0.2413 -1.1278  0.2350
 4435TIP3   OH234795   2.637   5.136   2.744  1.0440  0.2895 -0.3611
 4435TIP3    H134796   2.620   5.077   2.817  0.4663  0.8221 -0.0564
 4435TIP3    H234797   2.569   5.114   2.680  1.1955  0.2205 -0.4997
 4436TIP3   OH234798   4.549   1.255   1.869 -0.1141  0.2500  0.6022
 4436TIP3    H134799   4.548   1.349   1.889 -3.0017  0.5977 -0.5690
 4436TIP3    H234800   4.497   1.215   1.939 -0.4752 -0.1968  0.0895
 4437TIP3   OH234801   4.453   6.679   0.526 -0.1153  0.0057 -0.1887
 4437TIP3    H134802   4.394   6.606   0.544 -0.7210  0.3291 -0.8208
 4437TIP3    H234803   4.427   6.747   0.587  0.2611 -0.1964  0.2044
 4438TIP3   OH234804   5.075   1.099  11.482 -0.3159  0.4753  0.4856
 4438TIP3    H134805   5.078   1.168  11.549 -1.7108  1.5539 -0.4956
 4438TIP3    H234806   4.990   1.111  11.440 -0.0620 -1.0954 -0.5256
 4439TIP3   OH234807   6.491   1.818  15.848  0.1033 -0.3527  0.3118
 4439TIP3    H134808   6.448   1.817  15.763 -0.6537 -1.3683  0.6845
 4439TIP3    H234809   6.515   1.910  15.862  1.9785 -0.4457 -1.8208
 4440TIP3   OH234810   3.131   0.030  12.647  0.4640  0.5853  0.1727
 4440TIP3    H134811   3.145  -0.039  12.712 -2.2855  1.7598  2.1997
 4440TIP3    H234812   3.040   0.019  12.619  0.5695  2.1927 -0.9460
 4441TIP3   OH234813   5.535   5.766  12.419 -0.0437 -0.2648  0.1738
 4441TIP3    H134814   5.558   5.702  12.486  0.0751 -0.3385  0.0640
 4441TIP3    H234815   5.558   5.851  12.458  0.5961 -0.3507 -0.0020
 4442TIP3   OH234816   3.608   6.100   0.686  0.1130 -0.0616 -0.2722
 4442TIP3    H134817   3.669   6.072   0.755 -0.0088  1.3542  0.4496
 4442TIP3    H234818   3.547   6.158   0.731 -0.1496  0.6655 -1.5315
 4443TIP3   OH234819   6.788   5.315  12.613  0.1375 -0.0271 -0.1458
 4443TIP3    H134820   6.797   5.288  12.704 -0.0524  1.7800  0.4523
 4443TIP3    H234821   6.801   5.410  12.615 -2.0398  0.3839 -1.6626
 4444TIP3   OH234822   5.799   0.333   1.276  0.0937  0.1552 -0.1110
 4444TIP3    H134823   5.760   0.269   1.336 -2.3473  1.1935 -0.4425
 4444TIP3    H234824   5.890   0.306   1.266 -0.2230 -1.7748  1.7014
 4445TIP3   OH234825   2.448   4.136  12.415 -0.9548  0.2442 -0.0050
 4445TIP3    H134826   2.352   4.136  12.416 -0.9516  0.2899  0.2199
 4445TIP3    H234827   2.472   4.052  12.454 -0.9144 -0.2104 -0.9747
 4446TIP3   OH234828   2.811   5.055   1.389 -0.3013 -0.7757  0.0776
 4446TIP3    H134829   2.784   5.027   1.301  0.6016 -0.1442 -0.4304
 4446TIP3    H234830   2.855   4.978   1.426 -0.3096 -0.9190 -0.2019
 4447TIP3   OH234831   3.669   2.678  12.243  0.5746  0.0328 -0.2810
 4447TIP3    H134832   3.687   2.602  12.187  0.4995  1.1181 -1.8305
 4447TIP3    H234833   3.756   2.706  12.273  0.6086 -0.5984  0.2507
 4448TIP3   OH234834   4.166   1.151   0.989 -0.5137  0.4484 -0.1618
 4448TIP3    H134835   4.209   1.090   1.049 -0.0578  1.1669  0.2514
 4448TIP3    H234836   4.226   1.224   0.982 -1.9414  1.7901  0.9367
 4449TIP3   OH234837   4.179   5.741  14.167 -0.2908  0.0087  0.0570
 4449TIP3    H134838   4.215   5.683  14.099  0.4385 -0.9971  1.2521
 4449TIP3    H234839   4.218   5.709  14.249 -0.5925  1.6369  0.8725
 4450TIP3   OH234840   0.191   1.427  14.514 -0.5167 -0.0104 -0.3749
 4450TIP3    H134841   0.246   1.503  14.492 -0.2042 -0.3431 -0.7808
 4450TIP3    H234842   0.186   1.427  14.609  1.5002 -0.8579 -0.2138
 4451TIP3   OH234843   6.024   1.576  15.175  0.2032 -0.2972  0.0855
 4451TIP3    H134844   6.054   1.568  15.265 -0.0329 -0.9422  0.1170
 4451TIP3    H234845   5.933   1.544  15.177  0.1868 -0.2839 -0.3678
 4452TIP3   OH234846   4.034   2.332   0.467  0.0468  0.0622 -0.1749
 4452TIP3    H134847   3.993   2.375   0.392  0.8252 -1.4000 -1.5131
 4452TIP3    H234848   4.119   2.374   0.476  0.4157 -0.4993 -0.8732
 4453TIP3   OH234849   0.991   5.797  13.497  0.1265 -0.5292 -0.0595
 4453TIP3    H134850   0.939   5.773  13.574  0.0336  2.7650  1.0973
 4453TIP3    H234851   1.044   5.871  13.526 -0.1714  1.1258 -3.2242
 4454TIP3   OH234852   4.239   5.195   5.531  0.1056  0.0268 -0.3367
 4454TIP3    H134853   4.324   5.203   5.487  0.5091  0.9114  0.5567
 4454TIP3    H234854   4.260   5.161   5.618 -0.4360  0.3524 -0.0727
 4455TIP3   OH234855   1.971   6.562  15.783 -0.1950 -0.4671 -0.2414
 4455TIP3    H134856   2.065   6.564  15.770 -0.1396 -0.8511  0.0874
 4455TIP3    H234857   1.948   6.469  15.780 -0.4264 -0.4523  0.6006
 4456TIP3   OH234858   5.842   6.505  11.386  0.0075 -0.6419  0.0220
 4456TIP3    H134859   5.798   6.575  11.338  1.8441  1.7949  1.6810
 4456TIP3    H234860   5.795   6.425  11.360 -3.2284  1.3222 -0.7505
 4457TIP3   OH234861   4.248   6.347   5.814  0.4603 -0.0960 -0.5264
 4457TIP3    H134862   4.252   6.252   5.808  1.5450  0.0254 -3.4805
 4457TIP3    H234863   4.340   6.375   5.810  0.2600  1.0724  1.8470
 4458TIP3   OH234864   6.088   2.186   3.930  0.3913 -0.5007 -0.2659
 4458TIP3    H134865   6.025   2.258   3.919 -1.1445 -1.9812 -1.7008
 4458TIP3    H234866   6.152   2.200   3.860  2.1801  1.3885  1.5977
 4459TIP3   OH234867   2.856   4.668   3.143 -0.1521 -0.2927 -0.2640
 4459TIP3    H134868   2.848   4.580   3.180  1.0929 -0.2441  0.1741
 4459TIP3    H234869   2.827   4.658   3.052 -1.5665 -0.7859  0.2059
 4460TIP3   OH234870   0.893   2.164  15.059 -0.4426 -0.1613  0.3554
 4460TIP3    H134871   0.881   2.210  15.142  1.3440  3.2713 -1.0892
 4460TIP3    H234872   0.982   2.128  15.064  0.2497  1.3322 -0.5316
 4461TIP3   OH234873   4.786   2.355   0.875 -0.1239  0.0994 -0.6051
 4461TIP3    H134874   4.792   2.338   0.969 -1.6070 -2.4849 -0.8741
 4461TIP3    H234875   4.869   2.322   0.840 -0.6207 -1.4216 -0.4375
 4462TIP3   OH234876   2.114   4.339  11.438  0.0503 -0.0634  0.3620
 4462TIP3    H134877   2.161   4.419  11.461  0.9334 -0.6172  0.5348
 4462TIP3    H234878   2.078   4.308  11.521  0.7937 -0.5154  0.5299
 4463TIP3   OH234879   5.600   2.101   2.342 -0.4681  0.2435 -0.1718
 4463TIP3    H134880   5.565   2.190   2.348 -0.5477  0.0854  3.7562
 4463TIP3    H234881   5.689   2.107   2.377 -0.6484 -1.2858  0.6175
 4464TIP3   OH234882   0.686   1.167   2.070 -0.0547  0.1167  0.2259
 4464TIP3    H134883   0.723   1.133   2.151  0.9559  1.3646  0.3105
 4464TIP3    H234884   0.735   1.247   2.052 -0.5636  0.1114 -1.3816
 4465TIP3   OH234885   4.013   6.209  12.197  0.0923  0.2884 -0.9166
 4465TIP3    H134886   4.026   6.155  12.275 -0.4617  0.2240 -0.8628
 4465TIP3    H234887   4.002   6.145  12.126  0.2786  0.3438 -0.9979
 4466TIP3   OH234888   5.968   0.679   3.132  0.5497 -0.3978 -0.7079
 4466TIP3    H134889   5.933   0.762   3.165  0.3245 -0.6185 -0.3829
 4466TIP3    H234890   6.062   0.684   3.151  0.5305 -0.2307 -0.6538
 4467TIP3   OH234891   5.241   4.522  15.780  0.3069  0.6186 -0.3823
 4467TIP3    H134892   5.217   4.433  15.755  1.5655 -0.1569  0.9786
 4467TIP3    H234893   5.251   4.569  15.697 -0.0452 -0.6008 -1.1381
 4468TIP3   OH234894   0.636   3.325   3.296  0.0889  0.2432  0.3756
 4468TIP3    H134895   0.682   3.249   3.334  0.3710  0.2436  0.0386
 4468TIP3    H234896   0.615   3.379   3.372  0.3535  0.0825  0.5701
 4469TIP3   OH234897   4.370   1.161  10.837 -0.4058 -0.8332  0.0931
 4469TIP3    H134898   4.317   1.118  10.769 -2.3988  0.6222  0.6267
 4469TIP3    H234899   4.310   1.224  10.877  1.1923 -0.5172  2.1276
 4470TIP3   OH234900   0.130   4.225  16.102  0.2532  0.7580  0.5117
 4470TIP3    H134901   0.165   4.191  16.020  0.3632 -0.7425  1.1464
 4470TIP3    H234902   0.199   4.283  16.135  0.5522  0.7254 -0.0453
 4471TIP3   OH234903   4.983   0.568  11.651  0.2898 -0.2082  0.0378
 4471TIP3    H134904   5.057   0.514  11.683  1.8696  1.3121 -0.8805
 4471TIP3    H234905   5.007   0.657  11.675 -1.1540  0.3602 -0.5481
 4472TIP3   OH234906   3.775   4.658   4.903  0.0100 -0.6635  0.2294
 4472TIP3    H134907   3.830   4.721   4.857  1.0150 -1.8524 -0.2680
 4472TIP3    H234908   3.711   4.629   4.837 -2.3650  1.8880  1.2238
 4473TIP3   OH234909   1.578   2.994  16.471 -0.0963  0.5747  0.0379
 4473TIP3    H134910   1.625   2.989  16.555  1.4094 -0.1957 -0.8070
 4473TIP3    H234911   1.499   2.943  16.484  1.0302 -1.1322  0.4456
 4474TIP3   OH234912   1.243   0.641  13.804  0.1441  0.0266 -0.1618
 4474TIP3    H134913   1.309   0.710  13.796 -0.6564  0.8950  0.5690
 4474TIP3    H234914   1.289   0.562  13.776  0.7145  1.0214 -2.2439
 4475TIP3   OH234915   3.748   2.038  12.407  0.2815 -0.1966 -0.0676
 4475TIP3    H134916   3.732   1.947  12.382 -1.4145 -0.0223  0.2866
 4475TIP3    H234917   3.776   2.034  12.498 -1.3709 -0.2976  0.4746
 4476TIP3   OH234918   6.523   4.428   3.979 -0.1302 -0.0912 -0.5080
 4476TIP3    H134919   6.514   4.365   3.908  0.6016 -0.2782 -0.4383
 4476TIP3    H234920   6.433   4.448   4.005 -0.3593 -1.5420 -0.1435
 4477TIP3   OH234921   3.126   5.630   5.883 -0.3611 -0.1153 -0.1505
 4477TIP3    H134922   3.181   5.689   5.831 -0.2219 -0.4435 -0.3787
 4477TIP3    H234923   3.117   5.674   5.967 -1.7323  1.0893 -0.8835
 4478TIP3   OH234924   4.909   3.429  11.411 -0.1034 -0.3549 -0.2870
 4478TIP3    H134925   4.884   3.388  11.494 -0.0940  0.8290  0.3282
 4478TIP3    H234926   4.965   3.365  11.368  0.2559 -0.8135  0.8225
 4479TIP3   OH234927   3.296   1.476   4.115  0.5911  0.1415  0.3341
 4479TIP3    H134928   3.236   1.408   4.145  0.2974  0.6371  0.8869
 4479TIP3    H234929   3.342   1.436   4.041 -0.1805 -0.3589  0.1083
 4480TIP3   OH234930   2.513   4.024   1.260  0.2903 -0.4259  0.5145
 4480TIP3    H134931   2.454   4.027   1.184  0.9807  0.2415 -0.0035
 4480TIP3    H234932   2.460   3.983   1.329 -0.1751 -1.5664 -0.4764
 4481TIP3   OH234933   2.123   2.367  12.617  0.4784  0.4285  0.4988
 4481TIP3    H134934   2.054   2.431  12.600 -1.1049 -0.9563  1.3990
 4481TIP3    H234935   2.140   2.374  12.711  0.8774  0.1161  0.4520
 4482TIP3   OH234936   3.780   6.699  11.014 -0.0234 -0.1189  0.0933
 4482TIP3    H134937   3.801   6.700  11.107 -1.9908 -0.9295  0.5850
 4482TIP3    H234938   3.855   6.655  10.973  2.0700  2.4097  0.8839
 4483TIP3   OH234939   2.158   6.524  16.686  0.4273  0.1505 -0.1658
 4483TIP3    H134940   2.119   6.475  16.758 -1.5545  1.6878 -0.1007
 4483TIP3    H234941   2.083   6.555  16.635  1.6677  1.6335 -1.1879
 4484TIP3   OH234942   3.359   2.403   5.904  0.5388  0.3945 -0.3785
 4484TIP3    H134943   3.389   2.334   5.963 -0.7678  0.5174  0.4725
 4484TIP3    H234944   3.419   2.476   5.921  0.4357  0.2848  0.5204
 4485TIP3   OH234945   0.191   5.915  16.184 -0.4712  0.0430 -0.4472
 4485TIP3    H134946   0.179   5.985  16.121 -1.8112 -0.8341 -1.2341
 4485TIP3    H234947   0.152   5.949  16.265  1.7972  1.4029  0.1477
 4486TIP3   OH234948   4.414   5.249   0.891  0.6366 -0.4858  0.0190
 4486TIP3    H134949   4.389   5.163   0.856  2.9964 -1.1209 -0.2388
 4486TIP3    H234950   4.397   5.310   0.819  0.6125 -0.9953 -0.4097
 4487TIP3   OH234951   5.267   4.054  12.613  0.4465 -0.5963 -0.4474
 4487TIP3    H134952   5.263   4.147  12.634  0.6296 -0.2986 -1.6788
 4487TIP3    H234953   5.194   4.016  12.663  0.7542  0.0856  0.5619
 4488TIP3   OH234954   6.016   2.553  13.371  0.5283 -0.4088  0.1705
 4488TIP3    H134955   5.962   2.476  13.390 -1.7691  1.1156  0.1799
 4488TIP3    H234956   6.007   2.565  13.276  2.1915 -1.0272 -0.1025
 4489TIP3   OH234957   3.415   0.829  16.911  0.6055 -0.2204 -0.3186
 4489TIP3    H134958   3.325   0.802  16.928  1.6549 -3.5623  0.5771
 4489TIP3    H234959   3.430   0.808  16.819  0.7629 -0.6086 -0.2059
 4490TIP3   OH234960   4.091   3.966  14.535  0.8142  0.8124  0.3660
 4490TIP3    H134961   4.160   3.984  14.598  0.7372 -2.1993  1.4341
 4490TIP3    H234962   4.018   3.933  14.587  0.5792 -1.3180 -1.1720
 4491TIP3   OH234963   0.601   4.146  13.188  0.1831 -0.0527  0.1575
 4491TIP3    H134964   0.612   4.151  13.283  0.3331  0.0033  0.1370
 4491TIP3    H234965   0.511   4.115  13.177  0.1947 -0.1502  0.3196
 4492TIP3   OH234966   0.412   2.770   2.735  0.0660 -0.2860  0.2671
 4492TIP3    H134967   0.416   2.683   2.774  0.7961  0.3340  1.6323
 4492TIP3    H234968   0.503   2.792   2.716 -0.0237  0.5092  0.7141
 4493TIP3   OH234969   1.105   0.757  15.302 -0.1825  0.0247  0.9815
 4493TIP3    H134970   1.170   0.728  15.238 -0.9456  2.5508 -1.1407
 4493TIP3    H234971   1.151   0.825  15.353 -0.6164  0.5744  0.6521
 4494TIP3   OH234972   4.080   2.970   0.054  0.6916 -0.3048  0.6283
 4494TIP3    H134973   4.095   2.962  -0.040 -0.3128 -0.2466  0.4518
 4494TIP3    H234974   4.159   2.936   0.094  1.8374  1.1842 -0.2534
 4495TIP3   OH234975   6.018   3.910  12.918 -0.4095 -0.3191 -0.1853
 4495TIP3    H134976   6.050   3.862  12.993 -1.1244 -1.2858 -0.4760
 4495TIP3    H234977   5.931   3.873  12.901 -0.7683  0.7259 -0.7345
 4496TIP3   OH234978   0.616   4.146  14.895  0.2919 -0.3906  0.0510
 4496TIP3    H134979   0.705   4.113  14.887  0.4518 -0.0611  0.4704
 4496TIP3    H234980   0.565   4.071  14.927  0.3024 -0.7419 -0.7230
 4497TIP3   OH234981   6.435   6.032  11.123 -0.1030 -0.3276  0.4464
 4497TIP3    H134982   6.379   6.038  11.200  0.3174  1.1370  0.6775
 4497TIP3    H234983   6.502   5.967  11.146 -1.4381 -1.8034  0.3073
 4498TIP3   OH234984   2.217   4.019   6.058  1.2884  0.1094  0.0825
 4498TIP3    H134985   2.274   4.089   6.026  4.3489 -2.8085 -1.3846
 4498TIP3    H234986   2.229   4.019   6.153  0.1519  2.3249  0.2863
 4499TIP3   OH234987   4.843   3.558  12.797 -0.0096 -0.2058 -0.3080
 4499TIP3    H134988   4.849   3.506  12.716 -0.4306  0.1289 -0.5550
 4499TIP3    H234989   4.783   3.509  12.852 -1.3987  0.6400 -1.0261
 4500TIP3   OH234990   2.368   5.733   0.776 -0.6154  0.7011  0.1006
 4500TIP3    H134991   2.452   5.749   0.819 -0.7103  0.0535  0.5435
 4500TIP3    H234992   2.317   5.685   0.841 -2.1353  2.9669  0.6923
 4501TIP3   OH234993   1.724   1.661  13.244 -0.2564  0.0214  0.4790
 4501TIP3    H134994   1.792   1.598  13.222 -0.4951 -0.3860  0.9137
 4501TIP3    H234995   1.702   1.702  13.160 -1.6725 -2.0274 -0.2404
 4502TIP3   OH234996   3.040   6.674  15.248 -0.0518  0.1607  0.1320
 4502TIP3    H134997   3.016   6.729  15.173 -0.4781 -2.8708 -2.1725
 4502TIP3    H234998   3.136   6.670  15.244 -0.0424  0.4254  0.0602
 4503TIP3   OH234999   5.332   2.368   0.629 -0.4205  0.0553  0.4599
 4503TIP3    H135000   5.289   2.445   0.667  0.1262 -0.7396  2.8276
 4503TIP3    H235001   5.348   2.310   0.703 -3.1179 -3.5669 -1.4566
 4504TIP3   OH235002   6.427   4.218   2.792  0.2835  0.2417 -0.0892
 4504TIP3    H135003   6.438   4.188   2.702  1.4969 -1.2655  0.5109
 4504TIP3    H235004   6.438   4.139   2.845 -3.7451  0.3545  1.2941
 4505TIP3   OH235005   1.447   0.453   4.473 -0.3807  0.1040  0.3797
 4505TIP3    H135006   1.542   0.457   4.476 -0.3461 -0.7979  1.0932
 4505TIP3    H235007   1.428   0.372   4.425 -0.7725 -0.1588  0.9620
 4506TIP3   OH235008   3.741   5.731   0.803 -0.5837  0.1269  0.6933
 4506TIP3    H135009   3.684   5.775   0.741  0.6601  0.5006 -0.2184
 4506TIP3    H235010   3.825   5.722   0.757  0.7144  1.3860  2.6614
 4507TIP3   OH235011   2.420   0.766  16.460  0.1140  0.4323 -0.1464
 4507TIP3    H135012   2.402   0.681  16.501 -0.8345  0.3101 -0.7645
 4507TIP3    H235013   2.513   0.764  16.440  0.3930  0.0928  1.0714
 4508TIP3   OH235014   6.446   3.271   1.304  0.2221  0.2674 -0.3727
 4508TIP3    H135015   6.528   3.315   1.278  0.2836  1.1884  1.2573
 4508TIP3    H235016   6.395   3.340   1.347  0.0483 -1.0698  1.7022
 4509TIP3   OH235017   3.438   0.426  15.352  0.6679 -0.1557  0.2082
 4509TIP3    H135018   3.410   0.337  15.330  0.9626 -0.5091  1.2150
 4509TIP3    H235019   3.534   0.422  15.351  0.7062 -0.2597  1.7548
 4510TIP3   OH235020   1.782   3.412   3.062 -0.6020  0.1264 -0.0787
 4510TIP3    H135021   1.868   3.435   3.025  0.3820 -0.2899  1.7930
 4510TIP3    H235022   1.781   3.316   3.061 -1.8185  0.1173 -1.6623
 4511TIP3   OH235023   5.867   1.704   0.508 -0.1286 -0.1649 -0.5707
 4511TIP3    H135024   5.772   1.705   0.518 -0.0252  0.0231  0.4966
 4511TIP3    H235025   5.895   1.792   0.532  0.3092 -0.1566 -1.0764
 4512TIP3   OH235026   4.679   6.212  15.064  0.4382  0.6807 -0.2190
 4512TIP3    H135027   4.687   6.155  15.141 -1.7454 -1.4141 -1.4172
 4512TIP3    H235028   4.757   6.194  15.012  0.1836 -0.6089 -0.1694
 4513TIP3   OH235029   6.395   0.367  16.370  0.9256  0.3652 -0.2158
 4513TIP3    H135030   6.334   0.319  16.315  0.2287  1.1133 -0.1125
 4513TIP3    H235031   6.344   0.441  16.403  1.5474  0.3335  0.8402
 4514TIP3   OH235032   2.609   3.449   2.401  0.3555  0.0064  0.9701
 4514TIP3    H135033   2.686   3.432   2.456  0.5861 -2.5616 -0.0219
 4514TIP3    H235034   2.642   3.442   2.312 -0.9662 -0.8392  0.5304
 4515TIP3   OH235035   4.084   6.215  17.023 -0.5660  0.5271  0.4591
 4515TIP3    H135036   4.150   6.225  16.955 -0.7436  1.3353  0.3955
 4515TIP3    H235037   4.002   6.245  16.982 -0.9843 -0.5064  0.5195
 4516TIP3   OH235038   4.034   2.497   4.145 -0.5864  0.1932 -0.2933
 4516TIP3    H135039   4.097   2.514   4.075 -0.5894  1.3556 -0.0324
 4516TIP3    H235040   4.087   2.492   4.224 -0.8113  1.2454 -0.0625
 4517TIP3   OH235041   4.852   6.314   4.946  0.1443 -0.5730 -0.0468
 4517TIP3    H135042   4.822   6.230   4.980 -1.3471  0.2646  0.8213
 4517TIP3    H235043   4.893   6.358   5.020  0.1331 -0.1812 -0.2671
 4518TIP3   OH235044   2.204   0.689   3.301 -0.6337 -0.2952 -0.0882
 4518TIP3    H135045   2.128   0.744   3.283  1.6678  2.8341 -1.2229
 4518TIP3    H235046   2.252   0.736   3.369  0.6130 -1.8739  0.1880
 4519TIP3   OH235047   3.453   2.856  15.539  0.0168 -0.3468  0.1094
 4519TIP3    H135048   3.403   2.792  15.488 -0.0341  0.0160 -0.3039
 4519TIP3    H235049   3.395   2.931  15.545  0.7732  0.3639 -1.0081
 4520TIP3   OH235050   4.068   5.150  12.117  0.1861 -0.1815  0.3760
 4520TIP3    H135051   4.159   5.123  12.126  0.4701  0.6854  0.1830
 4520TIP3    H235052   4.069   5.219  12.051 -0.8272 -1.2083 -0.7888
 4521TIP3   OH235053   0.824   5.395  11.415  0.8675  0.0996 -0.4481
 4521TIP3    H135054   0.729   5.391  11.431  0.9847  0.9961  0.6154
 4521TIP3    H235055   0.857   5.455  11.482  2.2641 -0.5722 -0.4969
 4522TIP3   OH235056   3.439   4.161  12.772 -0.6379  0.3746 -0.0343
 4522TIP3    H135057   3.508   4.196  12.716 -0.0270 -0.6423  0.0531
 4522TIP3    H235058   3.386   4.237  12.797 -0.8172  0.8732 -1.8368
 4523TIP3   OH235059   2.049   4.531  12.483 -1.4037  0.1974 -0.1473
 4523TIP3    H135060   2.144   4.519  12.475 -0.7845  1.7699  3.2316
 4523TIP3    H235061   2.016   4.515  12.394  2.0882  0.4641 -1.6811
 4524TIP3   OH235062   3.522   6.729  13.461 -0.0216  0.9024  0.4949
 4524TIP3    H135063   3.608   6.762  13.487  0.2962  2.1556 -1.8656
 4524TIP3    H235064   3.529   6.718  13.366 -2.2040  0.2113  0.3742
 4525TIP3   OH235065   3.908   5.695   1.920  0.4121  0.2038 -0.3631
 4525TIP3    H135066   3.982   5.642   1.952  1.2203  2.1467  1.2330
 4525TIP3    H235067   3.898   5.764   1.986 -1.3118  1.3866 -1.7698
 4526TIP3   OH235068   2.260   5.254  15.332 -0.0989  0.1041 -0.0210
 4526TIP3    H135069   2.304   5.175  15.363 -0.8095  0.5230  2.2093
 4526TIP3    H235070   2.298   5.324  15.385 -0.2842  1.1143 -1.1864
 4527TIP3   OH235071   6.506   5.053  16.357  0.4612 -0.2214 -0.4223
 4527TIP3    H135072   6.417   5.077  16.384  0.2486 -1.2595 -0.1567
 4527TIP3    H235073   6.561   5.123  16.391 -0.3364  0.8362 -1.2560
 4528TIP3   OH235074   5.363   2.059  15.331  0.3809 -0.2574  0.9581
 4528TIP3    H135075   5.420   2.129  15.299 -1.0345  0.7274  0.4608
 4528TIP3    H235076   5.368   1.991  15.264 -0.8713  0.8642 -0.3516
 4529TIP3   OH235077   4.983   6.110   4.637  0.4757  0.1678  0.0268
 4529TIP3    H135078   5.007   6.047   4.705 -0.7103  0.0425  0.3549
 4529TIP3    H235079   4.933   6.059   4.573  2.2361  0.1161 -1.3862
 4530TIP3   OH235080   5.774   6.073   0.571  0.1187 -0.0181 -0.1540
 4530TIP3    H135081   5.819   6.120   0.641 -1.0479 -1.5747  1.7434
 4530TIP3    H235082   5.746   6.142   0.510  0.7527  1.4545  1.1481
 4531TIP3   OH235083   5.006   0.984   5.532  1.0174 -0.8516  0.5032
 4531TIP3    H135084   5.092   0.978   5.489  1.2894  0.3206  0.8363
 4531TIP3    H235085   4.945   0.997   5.460  0.9956 -2.4552  0.1940
 4532TIP3   OH235086   3.339   2.858  15.137 -0.2218 -0.4685 -0.4228
 4532TIP3    H135087   3.294   2.930  15.181  0.9926 -1.2479  2.3619
 4532TIP3    H235088   3.430   2.887  15.130 -0.0375 -1.1011 -0.7120
 4533TIP3   OH235089   6.738   0.763  15.225 -0.3072 -0.4224 -0.1580
 4533TIP3    H135090   6.689   0.694  15.270 -0.0311 -1.0518 -0.8073
 4533TIP3    H235091   6.812   0.781  15.283 -0.6863 -0.2514  0.2904
 4534TIP3   OH235092   0.592   4.538  13.856  0.0544 -0.5106  0.2188
 4534TIP3    H135093   0.564   4.497  13.938  1.0448  1.9025  1.8503
 4534TIP3    H235094   0.513   4.539  13.802 -0.9467 -1.0024  1.6092
 4535TIP3   OH235095   0.105   6.755   0.334  0.5674 -0.4861 -0.0387
 4535TIP3    H135096   0.195   6.776   0.310  0.5767 -1.0253 -0.5019
 4535TIP3    H235097   0.054   6.833   0.310  0.8533 -0.3161 -0.0912
 4536TIP3   OH235098   6.163   0.103  15.995  0.2044  0.1650  0.1559
 4536TIP3    H135099   6.083   0.108  16.048 -0.4440  0.0787 -0.8059
 4536TIP3    H235100   6.135   0.128  15.907  1.5087  1.5079  0.0793
 4537TIP3   OH235101   3.368   6.047  14.478  0.0571 -0.9100  0.6262
 4537TIP3    H135102   3.458   6.076  14.493  0.2399 -0.3898 -1.1873
 4537TIP3    H235103   3.316   6.128  14.483  0.0924 -0.7527 -1.0066
 4538TIP3   OH235104   6.178   5.172   1.798  0.4558 -0.1963  0.0247
 4538TIP3    H135105   6.137   5.258   1.798  1.8715  0.5448 -1.4223
 4538TIP3    H235106   6.190   5.151   1.891 -2.6505 -0.2685  0.4843
 4539TIP3   OH235107   5.611   5.674  15.483 -0.0185  0.5625  0.0165
 4539TIP3    H135108   5.655   5.595  15.453  0.4199  1.1937 -1.0931
 4539TIP3    H235109   5.567   5.707  15.404  0.5213  1.8791  0.2364
 4540TIP3   OH235110   6.298   4.314  15.680 -0.3594  0.0656 -0.1969
 4540TIP3    H135111   6.338   4.249  15.623  1.1026  0.1693  0.6343
 4540TIP3    H235112   6.250   4.263  15.745 -1.8607 -0.0564 -1.3469
 4541TIP3   OH235113   2.549   1.207  11.397 -0.0632 -0.0020  0.2637
 4541TIP3    H135114   2.538   1.122  11.439 -0.5678  0.4462  1.0531
 4541TIP3    H235115   2.644   1.222  11.397 -0.0059 -0.3503  0.5555
 4542TIP3   OH235116   4.784   2.469  10.623  0.0565 -0.0551  0.1646
 4542TIP3    H135117   4.761   2.377  10.619 -0.7755  0.1800 -1.8280
 4542TIP3    H235118   4.722   2.507  10.686  0.2932 -0.7940  0.8548
 4543TIP3   OH235119   2.733   5.679   2.584  0.4594 -0.1080  0.3169
 4543TIP3    H135120   2.668   5.680   2.655 -0.9603  0.1512 -0.9227
 4543TIP3    H235121   2.800   5.741   2.612 -1.7810  2.6871 -0.0123
 4544TIP3   OH235122   1.510   4.557  13.747  0.5308 -0.5426  0.0925
 4544TIP3    H135123   1.478   4.642  13.720 -1.7335 -1.3118  0.1508
 4544TIP3    H235124   1.585   4.540  13.690 -0.6594  0.2978 -1.8013
 4545TIP3   OH235125   0.406   1.368   1.659  0.0267  0.1169  0.7434
 4545TIP3    H135126   0.474   1.317   1.704 -0.2607 -2.8000 -1.8080
 4545TIP3    H235127   0.359   1.304   1.606 -2.0425  2.7177 -0.8193
 4546TIP3   OH235128   2.171   6.732   0.469 -0.2550 -0.4494 -0.0958
 4546TIP3    H135129   2.257   6.719   0.427 -0.0796 -0.3062  0.2165
 4546TIP3    H235130   2.174   6.675   0.546 -0.3782 -0.3135  0.0079
 4547TIP3   OH235131   0.276   1.868  12.577  0.2133  0.3155 -0.0077
 4547TIP3    H135132   0.207   1.883  12.512  0.3515 -0.4708 -0.3451
 4547TIP3    H235133   0.304   1.778  12.561  1.1644  0.5573  0.2755
 4548TIP3   OH235134   6.281   4.697  14.137 -0.1320  0.0606  0.2511
 4548TIP3    H135135   6.375   4.701  14.116  0.2547  0.0295  1.8407
 4548TIP3    H235136   6.237   4.707  14.053  1.3091 -0.7294 -0.6346
 4549TIP3   OH235137   0.633   4.803  12.801 -0.1558 -0.3321 -0.3481
 4549TIP3    H135138   0.561   4.833  12.745  0.4999  0.1909 -0.9140
 4549TIP3    H235139   0.590   4.782  12.884 -0.9536  0.0686 -0.6417
 4550TIP3   OH235140   1.401   1.370   5.980 -0.0803 -0.0688 -0.0892
 4550TIP3    H135141   1.366   1.303   6.039  1.4306 -0.1975  0.6887
 4550TIP3    H235142   1.413   1.447   6.035  0.3470  0.1334 -0.4611
 4551TIP3   OH235143   3.517   4.818  12.120  0.2240 -0.5271 -0.1132
 4551TIP3    H135144   3.453   4.789  12.055 -1.0677  0.9830  0.4065
 4551TIP3    H235145   3.601   4.814  12.075 -0.7644  1.8520 -2.4404
 4552TIP3   OH235146   3.147   1.914   0.455  0.3161  0.0728  0.3031
 4552TIP3    H135147   3.120   1.997   0.494  1.0304  0.8018 -0.6963
 4552TIP3    H235148   3.240   1.905   0.479  1.2235  1.3043 -2.3968
 4553TIP3   OH235149   1.700   0.518   4.532  0.2534 -0.0733  0.1190
 4553TIP3    H135150   1.759   0.483   4.599 -1.3298  1.4515  2.4471
 4553TIP3    H235151   1.694   0.612   4.551 -1.9904  0.0246 -0.7477
 4554TIP3   OH235152   3.336   0.240   3.432 -0.4889 -0.3894  0.0831
 4554TIP3    H135153   3.344   0.297   3.356 -0.7902  1.7089  1.5612
 4554TIP3    H235154   3.370   0.155   3.401  0.7695  0.7585 -1.9397
 4555TIP3   OH235155   4.552   1.326  12.272  0.2397 -1.0239  0.0881
 4555TIP3    H135156   4.641   1.355  12.292  0.2080 -1.6187  1.1379
 4555TIP3    H235157   4.556   1.230  12.274 -0.2455 -1.0741 -0.7045
 4556TIP3   OH235158   1.967   1.685  14.581 -0.1725 -0.3236  0.6617
 4556TIP3    H135159   1.931   1.774  14.589 -0.9512 -0.4030 -1.4541
 4556TIP3    H235160   2.052   1.690  14.626 -1.1713  0.8442  2.5721
 4557TIP3   OH235161   3.074   6.068   2.385  0.1636 -0.1651  0.0494
 4557TIP3    H135162   3.067   5.979   2.350  0.6552 -0.0846 -0.2612
 4557TIP3    H235163   3.132   6.060   2.460  1.8606  0.2044 -1.1619
 4558TIP3   OH235164   5.814   0.429   3.666 -0.1826 -0.0535  0.0279
 4558TIP3    H135165   5.903   0.393   3.662  0.8845  2.2163  1.4282
 4558TIP3    H235166   5.808   0.485   3.589  0.1202  0.8540  0.6554
 4559TIP3   OH235167   6.063   2.952   1.567 -0.4273  0.0395 -0.0074
 4559TIP3    H135168   6.079   3.046   1.572  0.8629 -0.0500 -1.6087
 4559TIP3    H235169   6.055   2.924   1.658 -2.6819  1.9589  0.4891
 4560TIP3   OH235170   0.246   5.225   0.824 -0.5591  0.0367 -0.6295
 4560TIP3    H135171   0.219   5.134   0.809  0.9840 -0.3968 -0.9258
 4560TIP3    H235172   0.257   5.232   0.918 -1.0907  0.0590 -0.5617
 4561TIP3   OH235173   6.827   4.639  12.840  0.1060  0.2576 -0.5660
 4561TIP3    H135174   6.742   4.628  12.798  0.5651 -0.0190 -1.4495
 4561TIP3    H235175   6.834   4.567  12.902 -1.2179  1.5128  1.1278
 4562TIP3   OH235176   6.516   6.812   0.072  0.1360 -0.4840  0.1196
 4562TIP3    H135177   6.531   6.906   0.085 -1.1208  0.1698 -2.5033
 4562TIP3    H235178   6.542   6.796  -0.018 -0.3130 -2.5218  0.3199
 4563TIP3   OH235179   4.425   6.077  11.625 -0.2905 -0.1697 -0.0144
 4563TIP3    H135180   4.471   6.064  11.708 -1.1884  1.1776  0.7468
 4563TIP3    H235181   4.463   6.157  11.589 -1.1583  0.2713  0.0183
 4564TIP3   OH235182   1.584   4.587  15.168  0.5236  0.0867 -0.2593
 4564TIP3    H135183   1.587   4.682  15.158 -0.2662  0.0242 -1.2548
 4564TIP3    H235184   1.675   4.562  15.188  0.2767  1.3070  2.9848
 4565TIP3   OH235185   1.241   3.295   2.046  0.2040 -0.6239  0.1517
 4565TIP3    H135186   1.334   3.317   2.048  0.2011 -0.6431  0.5421
 4565TIP3    H235187   1.206   3.345   1.972  0.7236 -1.4218 -0.6615
 4566TIP3   OH235188   6.822   1.929  12.014  0.4125 -0.2187 -0.5361
 4566TIP3    H135189   6.780   1.933  12.100 -1.3204 -0.0262 -1.3612
 4566TIP3    H235190   6.773   1.863  11.966  2.2454 -1.3618 -0.9645
 4567TIP3   OH235191   5.045   2.796   1.875 -0.0807  0.0475 -0.4336
 4567TIP3    H135192   5.108   2.739   1.830 -0.1833 -1.5951  1.3477
 4567TIP3    H235193   5.075   2.885   1.857  2.0990 -0.6569 -0.5867
 4568TIP3   OH235194   2.024   5.931  14.891  0.3191 -0.1100 -0.4916
 4568TIP3    H135195   2.021   5.841  14.858  0.0136 -0.8237  1.3841
 4568TIP3    H235196   1.956   5.976  14.841  0.5267 -0.8890 -1.5172
 4569TIP3   OH235197   1.052   5.214  13.858 -0.3447  0.3836  0.2838
 4569TIP3    H135198   1.145   5.198  13.876 -0.9395 -1.9005  1.6750
 4569TIP3    H235199   1.051   5.252  13.770  1.7347 -2.6652 -1.2430
 4570TIP3   OH235200   3.039   2.542  16.909 -0.1591 -0.7982  0.0995
 4570TIP3    H135201   2.973   2.536  16.841 -2.0828 -1.8284  1.9311
 4570TIP3    H235202   3.097   2.467  16.894  1.1554  0.5317 -1.9593
 4571TIP3   OH235203   4.068   1.819  16.952 -0.5581 -0.3642 -0.1882
 4571TIP3    H135204   4.039   1.907  16.978  0.0060  0.2912 -1.6639
 4571TIP3    H235205   3.999   1.786  16.896 -0.5012 -0.6348 -0.0999
 4572TIP3   OH235206   6.707   3.762  13.667 -0.3743  0.3408  0.6905
 4572TIP3    H135207   6.676   3.713  13.591  0.7444  0.8047 -0.0920
 4572TIP3    H235208   6.712   3.853  13.636 -3.3482  1.2207  2.3901
 4573TIP3   OH235209   4.190   0.179   1.543 -0.1383  0.1244  0.2838
 4573TIP3    H135210   4.123   0.127   1.498 -0.6485  0.9060  0.1194
 4573TIP3    H235211   4.190   0.263   1.497 -0.5300  0.8701  1.5954
 4574TIP3   OH235212   2.408   0.390  16.030 -0.7863 -0.6706  0.1279
 4574TIP3    H135213   2.475   0.414  15.967 -0.8842 -1.6236 -0.3582
 4574TIP3    H235214   2.331   0.439  16.003 -0.2399  0.6551  0.8629
 4575TIP3   OH235215   2.352   1.363   0.628  0.1960 -0.5389  0.0630
 4575TIP3    H135216   2.410   1.439   0.629  0.4519 -0.7401  0.7668
 4575TIP3    H235217   2.338   1.345   0.535  1.6863 -0.8217 -0.1273
 4576TIP3   OH235218   6.690   0.599  15.874 -0.4997 -0.7700  0.5051
 4576TIP3    H135219   6.631   0.543  15.923 -0.2879 -0.2226  1.4008
 4576TIP3    H235220   6.736   0.651  15.940 -1.3547  1.1228 -0.3067
 4577TIP3   OH235221   3.491   4.501   4.182  0.1830 -0.2310  0.2880
 4577TIP3    H135222   3.478   4.508   4.277  0.2383  1.7888  0.1728
 4577TIP3    H235223   3.581   4.470   4.172 -0.2717 -1.8503  0.8838
 4578TIP3   OH235224   6.316   6.192  13.774  0.0500  0.0261  0.1290
 4578TIP3    H135225   6.385   6.216  13.713  0.2609 -0.9414 -0.0330
 4578TIP3    H235226   6.291   6.103  13.748 -0.9095  0.1750  0.4963
 4579TIP3   OH235227   0.043   4.935   0.220 -0.5343 -0.0614  0.1792
 4579TIP3    H135228   0.112   4.954   0.156  0.0838 -0.7537  0.6242
 4579TIP3    H235229  -0.002   5.019   0.233  0.2467  0.4078 -0.0898
 4580TIP3   OH235230   6.062   6.271  13.532  0.8122 -0.1501 -0.0270
 4580TIP3    H135231   6.006   6.291  13.457  2.9377  0.7433 -1.4904
 4580TIP3    H235232   6.054   6.347  13.590  1.2743  0.4743 -0.7560
 4581TIP3   OH235233   4.521   3.833  12.026 -0.1429  0.2756  0.2435
 4581TIP3    H135234   4.442   3.810  11.977 -0.3790 -1.3348  1.3328
 4581TIP3    H235235   4.589   3.843  11.958 -0.9057  0.0910 -0.5692
 4582TIP3   OH235236   2.217   1.319  14.155  0.0448  0.1924  0.4444
 4582TIP3    H135237   2.268   1.334  14.076  0.4208  0.4410  0.7300
 4582TIP3    H235238   2.282   1.307  14.224 -0.2610  1.7004  1.0476
 4583TIP3   OH235239   3.235   0.246   0.876  0.2148  0.7907 -0.0235
 4583TIP3    H135240   3.164   0.261   0.938  1.9708 -0.0591  2.3506
 4583TIP3    H235241   3.291   0.323   0.884 -0.6042  1.7001 -2.2516
 4584TIP3   OH235242   1.942   0.488  16.275  0.2979  0.3833  0.2547
 4584TIP3    H135243   1.964   0.519  16.363  0.4286  0.2935  0.2539
 4584TIP3    H235244   1.887   0.557  16.238 -1.8363 -0.6788  1.3044
 4585TIP3   OH235245   6.743   2.659   4.825  0.7118 -0.5402  0.6743
 4585TIP3    H135246   6.795   2.731   4.862 -0.4886 -0.0910  1.5235
 4585TIP3    H235247   6.743   2.592   4.893  0.8622 -0.8934  0.3351
 4586TIP3   OH235248   1.879   6.778   4.811  0.1645  0.4881 -0.2642
 4586TIP3    H135249   1.909   6.863   4.779  1.6300  0.4529  0.9687
 4586TIP3    H235250   1.805   6.799   4.868  1.5907  1.1491  1.4379
 4587TIP3   OH235251   3.835   4.789  14.985 -0.0943 -0.0731 -0.4259
 4587TIP3    H135252   3.883   4.870  14.967 -2.4435  1.4458 -0.3284
 4587TIP3    H235253   3.821   4.790  15.080  0.6395 -1.1046 -0.2879
 4588TIP3   OH235254   5.994   4.093   3.457  0.4083  0.9059  0.5874
 4588TIP3    H135255   6.028   4.009   3.426 -1.8703 -0.2983  1.1516
 4588TIP3    H235256   6.060   4.124   3.519  1.3553 -0.3938  0.2608
 4589TIP3   OH235257   1.754   2.799  16.002 -0.1952 -0.4875  0.2901
 4589TIP3    H135258   1.743   2.817  16.095 -0.8523 -0.1660  0.1557
 4589TIP3    H235259   1.682   2.845  15.959  0.1189 -0.5964 -0.3847
 4590TIP3   OH235260   6.268   4.342   0.444  0.2023  0.3545 -0.3900
 4590TIP3    H135261   6.295   4.422   0.489 -0.7287 -0.0037  0.8565
 4590TIP3    H235262   6.202   4.302   0.501  1.0606 -1.6220 -0.6739
 4591TIP3   OH235263   1.523   2.872  13.706 -0.2456 -0.8977  0.1976
 4591TIP3    H135264   1.581   2.798  13.725 -0.9203 -1.1540  1.3293
 4591TIP3    H235265   1.515   2.919  13.789  1.7551  1.6591 -0.8985
 4592TIP3   OH235266   2.396   5.057  12.329  0.2666  0.2095 -0.1852
 4592TIP3    H135267   2.370   5.073  12.238 -0.4994 -1.3920 -0.2740
 4592TIP3    H235268   2.315   5.065  12.379  0.0909 -1.8978 -0.0724
 4593TIP3   OH235269   0.999   6.048   5.311 -0.7624  0.1289 -0.3493
 4593TIP3    H135270   1.024   5.958   5.332 -1.6838 -0.2240 -0.7305
 4593TIP3    H235271   1.065   6.077   5.248 -0.3266 -0.1909 -0.0469
 4594TIP3   OH235272   4.763   2.293   1.875 -0.6557  0.4667 -0.1504
 4594TIP3    H135273   4.819   2.308   1.951  1.0122 -0.7711 -1.0743
 4594TIP3    H235274   4.823   2.269   1.805 -2.3721 -1.2971 -1.1127
 4595TIP3   OH235275   6.185   1.466  11.331 -1.1667 -0.4172  0.3383
 4595TIP3    H135276   6.190   1.414  11.251 -0.9846 -2.1188  1.3915
 4595TIP3    H235277   6.116   1.423  11.382  1.0852 -1.6609  2.5766
 4596TIP3   OH235278   6.554   2.177   3.545 -0.0759 -0.0273  0.0446
 4596TIP3    H135279   6.513   2.102   3.501 -0.4810  0.3451 -0.2184
 4596TIP3    H235280   6.592   2.228   3.474  0.9605 -0.4219  0.2920
 4597TIP3   OH235281   2.549   0.957  15.082 -0.1287 -0.4859  0.2470
 4597TIP3    H135282   2.456   0.934  15.078 -0.1476 -0.1787 -1.7117
 4597TIP3    H235283   2.594   0.880  15.047  0.2642 -0.0968 -0.1037
 4598TIP3   OH235284   6.754   2.266   4.251  0.2934 -0.0532  0.0268
 4598TIP3    H135285   6.661   2.286   4.261  0.5926  0.5617  2.1117
 4598TIP3    H235286   6.792   2.284   4.337  2.4122  0.0527 -0.8575
 4599TIP3   OH235287   6.646   0.880   4.501  0.1479 -0.2234  0.0841
 4599TIP3    H135288   6.667   0.891   4.409 -0.8657 -1.3433 -0.2918
 4599TIP3    H235289   6.553   0.902   4.508  0.1385 -0.4457  0.7809
 4600TIP3   OH235290   0.423   5.462  14.500  0.1666  0.0396  0.2698
 4600TIP3    H135291   0.352   5.470  14.436 -0.2580  1.0592  0.8433
 4600TIP3    H235292   0.385   5.409  14.571 -0.7898  2.2906  1.5463
 4601TIP3   OH235293   3.817   6.145  14.196  0.3189  0.2643  0.2945
 4601TIP3    H135294   3.760   6.104  14.261 -0.9193  2.2127  0.5042
 4601TIP3    H235295   3.841   6.073  14.137 -2.4765 -0.6453  0.1075
 4602TIP3   OH235296   4.139   5.084   0.293  0.5097 -0.2371  0.1462
 4602TIP3    H135297   4.063   5.140   0.306 -0.2303 -0.9187 -1.1552
 4602TIP3    H235298   4.200   5.138   0.242  0.7049  0.1163  0.7342
 4603TIP3   OH235299   4.027   1.032  12.028 -0.7487 -0.4935  0.0073
 4603TIP3    H135300   4.048   0.947  12.067 -1.6296 -1.0807 -0.7414
 4603TIP3    H235301   4.096   1.091  12.060 -1.5536 -0.8446  2.6471
 4604TIP3   OH235302   3.333   1.083   4.234  0.7817  0.5906 -0.1308
 4604TIP3    H135303   3.354   0.990   4.222  1.5845  0.6752  0.5454
 4604TIP3    H235304   3.381   1.128   4.165  0.0731  0.4862 -0.7143
 4605TIP3   OH235305   3.897   0.056  16.895  0.1323 -0.5832 -0.2172
 4605TIP3    H135306   3.915   0.036  16.803 -1.1568  0.6549 -0.7776
 4605TIP3    H235307   3.816   0.010  16.914 -0.2824  0.1788 -0.0943
 4606TIP3   OH235308   6.138   2.459   5.707  0.1289 -0.1243 -0.1653
 4606TIP3    H135309   6.067   2.508   5.665 -0.4901  0.3003  1.3158
 4606TIP3    H235310   6.150   2.502   5.792  1.3109 -0.9812  0.1283
 4607TIP3   OH235311   4.210   5.751  12.280 -0.4942  0.3105  0.3641
 4607TIP3    H135312   4.171   5.680  12.331  0.4750  0.4190  1.3088
 4607TIP3    H235313   4.304   5.734  12.284 -0.3896  0.4142 -1.3074
 4608TIP3   OH235314   2.844   1.696   1.217 -0.0225 -0.0558 -0.4153
 4608TIP3    H135315   2.792   1.620   1.243  0.1654 -0.4534 -1.1709
 4608TIP3    H235316   2.814   1.766   1.275 -2.5660  0.1438 -1.7938
 4609TIP3   OH235317   2.102   1.343  12.632  0.0468 -0.2888  0.1456
 4609TIP3    H135318   2.030   1.396  12.665 -0.6807 -1.9255  1.3477
 4609TIP3    H235319   2.115   1.275  12.699  0.6767 -1.8267 -1.4507
 4610TIP3   OH235320   0.074   2.321  10.703  0.2341 -0.5231  0.3886
 4610TIP3    H135321   0.167   2.343  10.694  0.2949 -0.7780  0.3565
 4610TIP3    H235322   0.046   2.299  10.614  0.2735 -0.9293  0.4734
 4611TIP3   OH235323   2.599   5.157   4.380  0.8881  0.7950 -0.4437
 4611TIP3    H135324   2.527   5.122   4.433  0.1393  0.9524 -1.3397
 4611TIP3    H235325   2.558   5.221   4.322  2.1115  2.7090  0.6873
 4612TIP3   OH235326   6.606   5.751   3.134  0.1121  0.2603  0.0162
 4612TIP3    H135327   6.664   5.755   3.058  0.1870 -0.2372  0.0476
 4612TIP3    H235328   6.660   5.784   3.206  1.3325 -2.7421  0.6357
 4613TIP3   OH235329   0.096   6.306   4.112  0.1000 -0.3417 -0.0407
 4613TIP3    H135330   0.052   6.222   4.123  0.8973 -0.8469 -0.5604
 4613TIP3    H235331   0.037   6.370   4.152 -0.2416 -1.2198  0.9158
 4614TIP3   OH235332   0.732   5.190   5.513  0.2691  0.1650 -0.4612
 4614TIP3    H135333   0.643   5.170   5.542  0.2016 -0.2405 -0.9501
 4614TIP3    H235334   0.787   5.125   5.557  0.3534  0.5390 -0.0018
 4615TIP3   OH235335   5.142   6.006  11.422  0.1295 -0.0625  0.4111
 4615TIP3    H135336   5.214   5.950  11.451 -0.5966 -0.0680  2.3607
 4615TIP3    H235337   5.185   6.081  11.381  1.2417 -0.3354  1.0322
 4616TIP3   OH235338   3.229   4.503  11.125  0.4996 -0.4010 -0.0824
 4616TIP3    H135339   3.323   4.493  11.111  0.4957  0.2834 -0.6662
 4616TIP3    H235340   3.207   4.585  11.080 -0.0012  0.5543  1.7946
 4617TIP3   OH235341   5.386   6.594   6.114  0.5166  0.0661 -0.2098
 4617TIP3    H135342   5.304   6.575   6.160  0.0353  0.5627 -0.8378
 4617TIP3    H235343   5.445   6.522   6.138 -0.0199 -0.1578  0.4532
 4618TIP3   OH235344   3.378   4.690  13.273  0.5285  0.9061 -0.3694
 4618TIP3    H135345   3.432   4.651  13.342 -1.1869  0.7754  0.9623
 4618TIP3    H235346   3.357   4.777  13.305 -1.2103  0.4458 -0.1523
 4619TIP3   OH235347   1.312   2.284   3.269 -0.3470  0.2876  0.0622
 4619TIP3    H135348   1.292   2.195   3.240 -0.3196  0.1816  0.3608
 4619TIP3    H235349   1.350   2.327   3.192  1.6490 -0.6063  0.4947
 4620TIP3   OH235350   3.821   2.529  15.650  0.0133  0.6689  0.4575
 4620TIP3    H135351   3.831   2.434  15.650  1.0977  0.7013 -2.2421
 4620TIP3    H235352   3.901   2.562  15.691  1.4383  0.4167 -1.9338
 4621TIP3   OH235353   3.946   1.054  11.307  0.1142  0.0651 -0.2138
 4621TIP3    H135354   3.883   1.126  11.301  0.9060  1.0662  2.0532
 4621TIP3    H235355   4.023   1.085  11.259  0.1232  0.3442 -0.0207
 4622TIP3   OH235356   0.346   0.278   0.408  0.6996 -0.5784  0.0137
 4622TIP3    H135357   0.377   0.188   0.401 -0.1003 -1.2230  3.1572
 4622TIP3    H235358   0.383   0.310   0.491 -0.4367  1.3684 -0.1697
 4623TIP3   OH235359   6.823   0.096  14.707 -0.2926  0.2950  0.3415
 4623TIP3    H135360   6.809   0.190  14.700 -0.9005  0.0986 -1.5917
 4623TIP3    H235361   6.830   0.080  14.801 -0.3925  2.2259  0.7172
 4624TIP3   OH235362   5.131   0.725   3.973  0.1925 -0.5505 -0.4887
 4624TIP3    H135363   5.053   0.745   3.921  0.7304  2.1724 -0.3964
 4624TIP3    H235364   5.097   0.699   4.059 -0.7156  1.8312 -0.0378
 4625TIP3   OH235365   4.377   6.258   4.353 -0.5014  0.0638  0.6052
 4625TIP3    H135366   4.401   6.311   4.429  0.8536 -0.7251  0.7472
 4625TIP3    H235367   4.301   6.207   4.383  0.5052 -0.8367  1.7216
 4626TIP3   OH235368   0.242   6.098  14.388 -0.1901 -0.0939 -0.8811
 4626TIP3    H135369   0.159   6.142  14.369  0.9066  2.3036 -0.4750
 4626TIP3    H235370   0.288   6.158  14.447  1.4661 -1.7951 -0.3507
 4627TIP3   OH235371   4.058   4.543  17.011  0.3042  0.5744 -0.8771
 4627TIP3    H135372   4.079   4.548  17.104  0.3091  0.2929 -0.8627
 4627TIP3    H235373   4.126   4.595  16.968  0.4085  0.5526 -0.7409
 4628TIP3   OH235374   0.046   0.011   2.620  0.2937 -0.2868  0.5456
 4628TIP3    H135375  -0.013  -0.043   2.568  0.5826 -1.0897  1.0219
 4628TIP3    H235376   0.056  -0.037   2.702  1.2999  0.0245  0.6216
 4629TIP3   OH235377   5.784   0.108   4.192  0.5756  0.3615  0.1584
 4629TIP3    H135378   5.695   0.082   4.215  0.7796  0.1479  0.7245
 4629TIP3    H235379   5.821   0.030   4.149  0.6378  0.2928  0.3358
 4630TIP3   OH235380   6.502   3.218  14.913  0.7578 -0.0584  0.6108
 4630TIP3    H135381   6.464   3.229  15.001 -3.3432  0.9145 -1.0416
 4630TIP3    H235382   6.510   3.123  14.902 -0.5321 -0.2935  1.4279
 4631TIP3   OH235383   1.741   3.253  13.594  0.2432  0.1305 -0.1794
 4631TIP3    H135384   1.800   3.178  13.586  0.3386  0.3008 -1.1372
 4631TIP3    H235385   1.794   3.329  13.572 -0.0647  0.3959 -0.0215
 4632TIP3   OH235386   6.693   3.659  13.914 -0.1965  0.3238  0.0462
 4632TIP3    H135387   6.704   3.701  13.829  0.6657  0.1344  0.0508
 4632TIP3    H235388   6.601   3.674  13.937 -0.9015 -1.0033 -1.6562
 4633TIP3   OH235389   2.410   2.003  13.051  0.0346  0.0743 -0.1239
 4633TIP3    H135390   2.481   1.970  12.995  0.3990 -0.4387  0.6272
 4633TIP3    H235391   2.330   1.985  13.001  0.3332 -0.6597 -0.3468
 4634TIP3   OH235392   1.267   5.063  13.110  0.1754 -0.3916  0.0128
 4634TIP3    H135393   1.257   5.003  13.036  0.7684  0.3749 -0.6968
 4634TIP3    H235394   1.247   5.149  13.075  0.7135  0.0130  0.6703
 4635TIP3   OH235395   1.105   0.769  12.737  0.1819  0.3349 -0.0506
 4635TIP3    H135396   1.034   0.729  12.687  0.0163  1.0613 -0.4094
 4635TIP3    H235397   1.185   0.739  12.692  0.1829 -1.2889  0.9402
 4636TIP3   OH235398   2.020   0.848   5.129  0.4531 -0.7997 -0.2614
 4636TIP3    H135399   2.072   0.916   5.086 -0.5899  0.9563  1.1186
 4636TIP3    H235400   2.017   0.875   5.221 -1.9164 -1.4280 -0.0883
 4637TIP3   OH235401   4.864   5.027  11.862 -0.2058  0.3880 -0.4026
 4637TIP3    H135402   4.812   5.009  11.784 -0.0887  2.1973 -0.9518
 4637TIP3    H235403   4.955   5.015  11.834 -0.1634  1.0402 -0.5555
 4638TIP3   OH235404   0.288   3.800   0.557 -0.6580 -0.5791  0.0390
 4638TIP3    H135405   0.305   3.707   0.539  0.4705 -0.6929  1.5514
 4638TIP3    H235406   0.206   3.818   0.511 -1.1576 -2.4502  0.0998
 4639TIP3   OH235407   3.307   1.233   6.724  0.2302  0.4798  0.6283
 4639TIP3    H135408   3.269   1.145   6.719 -1.2601  1.1478 -0.5067
 4639TIP3    H235409   3.399   1.221   6.701  0.2383 -0.8790  1.2519
 4640TIP3   OH235410   6.409   6.209   4.489  0.6091  0.8372  0.3959
 4640TIP3    H135411   6.383   6.271   4.421  0.5167  0.7608  0.3605
 4640TIP3    H235412   6.337   6.213   4.553  0.3987  0.4614  0.1894
 4641TIP3   OH235413   4.164   1.266   4.770  0.4692  0.3159 -0.0581
 4641TIP3    H135414   4.109   1.344   4.775  0.3057  0.2147 -0.3192
 4641TIP3    H235415   4.167   1.234   4.860 -0.6477 -0.2040 -0.1962
 4642TIP3   OH235416   4.396   5.037  14.155 -0.2528 -0.1909  0.1977
 4642TIP3    H135417   4.389   5.015  14.248  0.5066 -1.6782 -0.0528
 4642TIP3    H235418   4.419   4.953  14.113 -1.0654  0.3501 -1.3862
 4643TIP3   OH235419   4.765   1.294   1.653 -0.5891  1.2305  0.0636
 4643TIP3    H135420   4.716   1.262   1.728  0.3229 -1.9265 -0.5285
 4643TIP3    H235421   4.850   1.318   1.688  0.1347 -1.0583  0.0227
 4644TIP3   OH235422   3.894   3.223   1.542  0.4806 -0.0732  0.0194
 4644TIP3    H135423   3.805   3.254   1.527 -0.0405 -1.7500 -0.6394
 4644TIP3    H235424   3.885   3.160   1.614  0.9383 -1.0162 -0.7284
 4645TIP3   OH235425   0.794   4.191  12.724  1.1081  0.3219  0.0113
 4645TIP3    H135426   0.846   4.115  12.752  0.8210  0.4764  0.9903
 4645TIP3    H235427   0.719   4.191  12.783  1.1079  1.3750  0.0227
 4646TIP3   OH235428   1.524   5.474  13.074  0.2176 -0.3075  0.1068
 4646TIP3    H135429   1.436   5.441  13.053  0.1872 -0.1972  0.0583
 4646TIP3    H235430   1.509   5.542  13.139  0.4872 -2.2549  2.3353
 4647TIP3   OH235431   1.292   4.349  12.167  0.4382  0.3769  0.2084
 4647TIP3    H135432   1.249   4.312  12.090 -0.7650 -1.5635  1.7017
 4647TIP3    H235433   1.280   4.443  12.159 -1.6835  0.0758 -0.8532
 4648TIP3   OH235434   3.533   6.749   1.838 -0.3274 -0.2140  0.2567
 4648TIP3    H135435   3.508   6.753   1.746 -0.1534  1.1490  0.2477
 4648TIP3    H235436   3.474   6.683   1.876 -1.0859 -0.0615 -0.6245
 4649TIP3   OH235437   0.000   3.175  16.325  0.2838  0.3114  0.4361
 4649TIP3    H135438  -0.005   3.099  16.382  0.6298  0.5325  0.7736
 4649TIP3    H235439  -0.050   3.151  16.247  2.6230 -1.3288 -0.6837
 4650TIP3   OH235440   2.168   3.685   2.131  0.5665  0.2331  0.3956
 4650TIP3    H135441   2.092   3.657   2.080  0.0607  2.6476 -0.3080
 4650TIP3    H235442   2.142   3.673   2.222 -1.0640  1.8249  0.1973
 4651TIP3   OH235443   6.146   3.709   5.397  0.3967  0.6752 -0.2052
 4651TIP3    H135444   6.240   3.704   5.414  0.3988  0.6366 -0.2269
 4651TIP3    H235445   6.133   3.651   5.322  0.2735  0.2616  0.1340
 4652TIP3   OH235446   1.817   0.979   5.542  0.0499  0.0163 -0.0333
 4652TIP3    H135447   1.804   1.067   5.508 -0.9463  0.1319  0.5936
 4652TIP3    H235448   1.812   0.988   5.637 -0.4844 -0.7655  0.0258
 4653TIP3   OH235449   2.661   3.875  12.635 -0.4931 -0.0672  0.0233
 4653TIP3    H135450   2.645   3.852  12.726  0.9986 -0.2694  0.2580
 4653TIP3    H235451   2.747   3.917  12.635 -1.6943  2.6253 -0.8863
 4654TIP3   OH235452   6.044   0.795  15.710  0.3280 -0.0432  0.5868
 4654TIP3    H135453   6.090   0.711  15.703 -0.3524 -0.3682 -0.1023
 4654TIP3    H235454   6.105   0.859  15.672  0.2569 -0.4566 -0.2453
 4655TIP3   OH235455   2.308   2.703  12.916 -0.1260 -0.4360  0.1219
 4655TIP3    H135456   2.331   2.796  12.926  0.1913 -0.4815 -0.1620
 4655TIP3    H235457   2.388   2.663  12.882  0.1493 -1.0499  1.4388
 4656TIP3   OH235458   0.990   1.615   1.440 -0.0647  0.6783 -0.6213
 4656TIP3    H135459   0.972   1.694   1.388  1.0790  1.7155  0.4653
 4656TIP3    H235460   1.002   1.648   1.529  0.0832 -0.7896 -0.0765
 4657TIP3   OH235461   4.825   4.645   5.369  0.9683 -0.6935 -0.8680
 4657TIP3    H135462   4.845   4.553   5.351 -0.1264 -0.8662 -1.3105
 4657TIP3    H235463   4.745   4.662   5.318  1.6669  0.7690 -1.5438
 4658TIP3   OH235464   4.387   5.547   5.895 -0.2107  0.3004 -0.1841
 4658TIP3    H135465   4.300   5.559   5.856  0.0876  2.4883 -0.3472
 4658TIP3    H235466   4.373   5.558   5.989 -0.1304  0.6706 -0.2121
 4659TIP3   OH235467   4.025   6.265  13.961 -0.7360 -0.4081 -0.5510
 4659TIP3    H135468   4.056   6.223  13.881 -1.0305  0.6030 -1.2113
 4659TIP3    H235469   3.975   6.196  14.006 -0.4901 -1.0100 -1.1753
 4660TIP3   OH235470   2.202   1.878  12.872  0.5056 -0.1819  1.0782
 4660TIP3    H135471   2.173   1.957  12.825  0.3696 -0.1576  1.2008
 4660TIP3    H235472   2.160   1.806  12.826  0.8574 -0.2035  0.7918
 4661TIP3   OH235473   0.486   6.412  14.324 -0.0143 -0.1893  0.0418
 4661TIP3    H135474   0.476   6.451  14.411  0.0098 -1.8280  0.8215
 4661TIP3    H235475   0.399   6.381  14.301  0.0731 -0.1841 -0.3089
 4662TIP3   OH235476   4.079   4.459  12.094  0.0971 -0.6395 -0.5861
 4662TIP3    H135477   4.039   4.433  12.176 -0.9328  0.4818 -0.7140
 4662TIP3    H235478   4.056   4.389  12.033  0.3401 -1.1663 -0.0833
 4663TIP3   OH235479   2.245   1.565   4.745 -0.3394 -0.3765 -0.2213
 4663TIP3    H135480   2.159   1.565   4.703 -1.0398 -0.5487  1.1500
 4663TIP3    H235481   2.240   1.491   4.807 -0.3885  1.5011  2.1545
 4664TIP3   OH235482   6.443   2.611  14.565  0.5677 -0.5921 -0.1713
 4664TIP3    H135483   6.460   2.531  14.615  1.9523 -1.8603 -2.5234
 4664TIP3    H235484   6.385   2.584  14.494 -0.8480  1.0299  0.3151
 4665TIP3   OH235485   0.027   3.189  13.422  0.2013 -0.0512  0.1657
 4665TIP3    H135486   0.049   3.174  13.514  0.4709  1.1887  0.3213
 4665TIP3    H235487  -0.020   3.110  13.396 -1.5909  0.3470  1.9154
 4666TIP3   OH235488   3.172   6.259   2.678  0.2670 -0.5249 -0.1323
 4666TIP3    H135489   3.164   6.174   2.720 -0.7485  0.3260  1.5037
 4666TIP3    H235490   3.222   6.312   2.740  1.6591 -0.1439 -1.5185
 4667TIP3   OH235491   1.870   6.125   4.661  0.4946 -0.1191 -0.1588
 4667TIP3    H135492   1.790   6.172   4.636  0.0412 -0.7260  0.1301
 4667TIP3    H235493   1.844   6.074   4.738  0.6538 -1.7855 -1.1788
 4668TIP3   OH235494   0.618   1.596  12.566 -0.1636  0.5981  0.2809
 4668TIP3    H135495   0.689   1.550  12.521  0.0438  2.2432 -1.1724
 4668TIP3    H235496   0.639   1.587  12.659 -1.1692 -3.8419  0.3280
 4669TIP3   OH235497   4.727   1.690   5.276  0.7797  0.5858 -0.0497
 4669TIP3    H135498   4.651   1.741   5.247  0.0576 -1.5353 -2.1025
 4669TIP3    H235499   4.801   1.731   5.232  0.6528  1.6614  0.6870
 4670TIP3   OH235500   0.565   0.623  10.857 -0.0130 -0.2648  0.1334
 4670TIP3    H135501   0.646   0.636  10.907 -0.4554  1.5032  0.4669
 4670TIP3    H235502   0.529   0.541  10.891  1.3115 -0.7670  0.4061
 4671TIP3   OH235503   3.394   2.513  13.751  0.6154 -0.4712  0.0906
 4671TIP3    H135504   3.351   2.443  13.800  0.0478 -0.4073 -0.2976
 4671TIP3    H235505   3.325   2.546  13.693  1.1568 -0.2609 -0.4368
 4672TIP3   OH235506   0.142   3.227   4.140 -0.3043 -0.0949  0.2519
 4672TIP3    H135507   0.214   3.245   4.078 -0.5401 -1.1362 -0.3511
 4672TIP3    H235508   0.120   3.313   4.175 -0.1581  0.5460 -1.1190
 4673TIP3   OH235509   6.226   0.542  12.480  0.2215 -0.1588  0.7547
 4673TIP3    H135510   6.284   0.597  12.532  0.7613 -0.6375  0.6675
 4673TIP3    H235511   6.255   0.452  12.497  0.3022 -0.3332 -0.2303
 4674TIP3   OH235512   2.301   0.563  10.675  0.3449  0.4097 -1.2987
 4674TIP3    H135513   2.321   0.629  10.742  0.7717 -1.1405  0.1657
 4674TIP3    H235514   2.381   0.511  10.667 -0.4793 -0.9066 -1.2410
 4675TIP3   OH235515   2.449   3.920  14.715 -0.2998  0.2811 -0.2477
 4675TIP3    H135516   2.482   3.963  14.794 -0.8407 -0.1115  0.1928
 4675TIP3    H235517   2.487   3.832  14.718 -1.5868 -0.2674  0.4048
 4676TIP3   OH235518   6.127   0.821  16.310 -0.7296 -0.4668  0.0107
 4676TIP3    H135519   6.037   0.791  16.302 -1.7300  1.9823  1.1743
 4676TIP3    H235520   6.121   0.903  16.358  2.1877 -0.4957  0.6186
 4677TIP3   OH235521   4.196   6.189  15.999 -0.0060  0.0490 -0.2855
 4677TIP3    H135522   4.130   6.244  16.040 -0.5671 -0.5749 -0.3384
 4677TIP3    H235523   4.273   6.198  16.056  0.3055  1.8079 -0.9449
 4678TIP3   OH235524   2.167   6.345   0.846 -0.1099 -0.2668 -0.2414
 4678TIP3    H135525   2.200   6.265   0.888 -0.1361  0.3036  0.8938
 4678TIP3    H235526   2.094   6.372   0.900 -0.5627  0.1485 -1.0375
 4679TIP3   OH235527   5.837   0.721   2.589 -0.2111  0.0624  0.1211
 4679TIP3    H135528   5.867   0.648   2.644  0.3845 -0.2056 -0.5502
 4679TIP3    H235529   5.825   0.793   2.651  1.3483  0.0378  0.4992
 4680TIP3   OH235530   1.314   6.319   3.661 -0.3111  0.1615  0.0929
 4680TIP3    H135531   1.260   6.330   3.740  1.1855  1.7296  0.9633
 4680TIP3    H235532   1.281   6.386   3.601 -0.5879 -0.1668 -0.1258
 4681TIP3   OH235533   0.210   3.925   0.253  0.1685  0.3405 -0.4276
 4681TIP3    H135534   0.131   3.977   0.246 -1.4074 -1.9054 -0.3453
 4681TIP3    H235535   0.267   3.974   0.312 -0.7053  2.4834 -1.2809
 4682TIP3   OH235536   5.157   5.546   2.078 -0.0119  0.3511 -0.1098
 4682TIP3    H135537   5.133   5.546   1.985 -0.1638  3.4752 -0.1618
 4682TIP3    H235538   5.234   5.488   2.083 -0.2517 -0.2156 -2.0685
 4683TIP3   OH235539   4.662   1.064  14.069  0.5081 -0.3466  0.2470
 4683TIP3    H135540   4.704   1.141  14.108 -0.0355 -0.4300  1.0252
 4683TIP3    H235541   4.734   1.015  14.030  1.0217 -0.0481  0.7992
 4684TIP3   OH235542   3.493   5.804  13.421 -0.0972 -0.1197  0.4492
 4684TIP3    H135543   3.428   5.769  13.360  1.5348  0.6458 -1.8543
 4684TIP3    H235544   3.443   5.823  13.501 -2.5995 -0.0314 -1.0259
 4685TIP3   OH235545   4.054   5.312   3.011  0.3835  0.3045  0.1290
 4685TIP3    H135546   4.102   5.393   3.026  1.4072  0.3958 -2.9172
 4685TIP3    H235547   4.119   5.242   3.020  0.4733  0.1933 -1.1548
 4686TIP3   OH235548   4.745   6.271   5.405 -0.0672 -0.3741  0.3333
 4686TIP3    H135549   4.676   6.337   5.402 -0.8204 -1.0611  1.6154
 4686TIP3    H235550   4.719   6.211   5.475 -0.5745 -3.3478 -2.1647
 4687TIP3   OH235551   6.253   5.073  13.063 -0.5051  0.7344 -0.0666
 4687TIP3    H135552   6.339   5.066  13.105 -0.7746  0.3630  0.4288
 4687TIP3    H235553   6.263   5.029  12.978 -0.1254  0.9524 -0.1342
 4688TIP3   OH235554   2.831   1.767  12.782 -0.3738 -0.4137  0.1899
 4688TIP3    H135555   2.737   1.756  12.771 -0.3416 -1.2142  0.6096
 4688TIP3    H235556   2.866   1.678  12.778  0.6159  0.0046 -1.9874
 4689TIP3   OH235557   6.006   0.977  14.968  0.1166 -0.2756 -0.4507
 4689TIP3    H135558   6.091   1.018  14.985  1.0440 -0.9236 -3.0982
 4689TIP3    H235559   5.945   1.051  14.962  0.4267  0.1975  1.5029
 4690TIP3   OH235560   5.153   4.303  13.833  0.4260  0.5282  0.1850
 4690TIP3    H135561   5.132   4.229  13.890  0.5570 -0.1560 -0.6316
 4690TIP3    H235562   5.090   4.370  13.857 -0.1395 -0.0928  0.4790
 4691TIP3   OH235563   5.382   5.833   4.473  0.3240 -0.3486  0.1905
 4691TIP3    H135564   5.454   5.796   4.422  0.0945 -1.3466  0.5471
 4691TIP3    H235565   5.425   5.874   4.548  0.5227 -1.2377  0.5819
 4692TIP3   OH235566   0.103   3.086  11.520  0.0534 -0.7948  0.1414
 4692TIP3    H135567   0.040   3.146  11.561 -0.6978 -0.3891 -1.5116
 4692TIP3    H235568   0.153   3.051  11.593 -0.1571  1.0737  1.2642
 4693TIP3   OH235569   4.310   1.101  12.446  0.3816 -0.3187  0.1852
 4693TIP3    H135570   4.330   1.095  12.353  0.2306 -1.2842  0.2115
 4693TIP3    H235571   4.217   1.081  12.453  1.1471 -4.6660  0.9321
 4694TIP3   OH235572   5.349   3.570   6.151 -0.7550  0.3894  0.3707
 4694TIP3    H135573   5.326   3.533   6.236  0.5155 -2.5449 -0.4394
 4694TIP3    H235574   5.431   3.616   6.166 -0.6507  0.0731  0.7921
 4695TIP3   OH235575   2.322   4.263  14.953 -0.6307  0.2905 -0.5487
 4695TIP3    H135576   2.237   4.266  14.997 -0.7258  2.5095 -0.7605
 4695TIP3    H235577   2.305   4.215  14.872 -1.6377  0.5009 -0.4816
 4696TIP3   OH235578   6.299   3.826  12.405  0.1649  0.0428  0.4963
 4696TIP3    H135579   6.245   3.872  12.341  0.1630 -0.8415 -0.1621
 4696TIP3    H235580   6.249   3.747  12.425  1.2953 -0.9082 -0.2971
 4697TIP3   OH235581   6.029   3.408  14.671  0.0069  0.2674 -0.0535
 4697TIP3    H135582   6.065   3.343  14.730 -0.6625 -0.0588 -0.0020
 4697TIP3    H235583   5.944   3.373  14.645  0.2081  0.4899 -1.0644
 4698TIP3   OH235584   4.941   5.439  16.239 -0.4754  0.0855 -0.5609
 4698TIP3    H135585   4.846   5.441  16.236 -0.4654  0.7297 -0.5051
 4698TIP3    H235586   4.962   5.426  16.331 -0.5053  0.0888 -0.5544
 4699TIP3   OH235587   3.695   4.902  15.808  0.3631 -0.8959  0.4263
 4699TIP3    H135588   3.628   4.835  15.819  0.0639 -0.5378  0.8080
 4699TIP3    H235589   3.694   4.951  15.890 -1.0660  1.0419 -0.6332
 4700TIP3   OH235590   5.932   3.263  12.686  0.0933 -0.1022 -0.4180
 4700TIP3    H135591   5.859   3.315  12.650  0.0853  0.5525  0.5089
 4700TIP3    H235592   6.006   3.323  12.685  0.1844 -0.1983  0.2890
 4701TIP3   OH235593   0.939   5.648  12.793 -0.5993  0.4379 -0.4627
 4701TIP3    H135594   0.952   5.633  12.887 -1.5248 -0.0231 -0.4003
 4701TIP3    H235595   0.865   5.708  12.788  1.2203  2.8497 -0.8242
 4702TIP3   OH235596   3.156   6.030   1.223 -0.5563 -0.4124 -0.4448
 4702TIP3    H135597   3.242   5.993   1.205 -0.7560 -0.9145 -0.3971
 4702TIP3    H235598   3.110   6.027   1.138 -0.9385 -1.2747 -0.2213
 4703TIP3   OH235599   6.722   2.051  12.238 -0.2769  0.5700  0.3696
 4703TIP3    H135600   6.710   2.141  12.269 -1.9260  0.5388 -0.0421
 4703TIP3    H235601   6.645   2.004  12.270 -0.6076 -0.1317 -1.3329
 4704TIP3   OH235602   1.361   3.792   2.268 -0.0205 -0.2745 -0.4384
 4704TIP3    H135603   1.275   3.782   2.228 -1.3796 -0.4062  2.2563
 4704TIP3    H235604   1.382   3.885   2.257 -1.0766  0.0163 -0.1254
 4705TIP3   OH235605   3.008   4.245   6.112  0.4857  0.1750 -0.4364
 4705TIP3    H135606   2.998   4.291   6.195 -0.1928 -2.2093  0.8964
 4705TIP3    H235607   2.963   4.300   6.048 -1.1176  0.8944  1.2352
 4706TIP3   OH235608   2.693   4.693  11.946  0.2582  0.2747  0.0022
 4706TIP3    H135609   2.713   4.670  11.856  1.9883  0.5434  0.2754
 4706TIP3    H235610   2.655   4.614  11.984  0.5428 -0.1905 -0.6702
 4707TIP3   OH235611   2.374   1.833   1.892  0.3912  0.1649 -0.0114
 4707TIP3    H135612   2.295   1.860   1.845 -1.0133 -1.0657  1.5493
 4707TIP3    H235613   2.411   1.763   1.838  0.0210  0.2647 -0.4007
 4708TIP3   OH235614   0.304   6.477   2.357  0.2476 -0.3367 -0.5751
 4708TIP3    H135615   0.347   6.504   2.438  0.3002 -2.1868  0.0391
 4708TIP3    H235616   0.247   6.405   2.382 -0.9657  0.1040 -1.9157
 4709TIP3   OH235617   0.885   6.728  15.524 -0.8178 -0.9355  0.0243
 4709TIP3    H135618   0.886   6.694  15.613  1.6828  0.0581  0.4510
 4709TIP3    H235619   0.864   6.652  15.470 -0.9376 -1.8694  1.3317
 4710TIP3   OH235620   1.572   1.137   5.216  0.0930 -0.5571 -0.5727
 4710TIP3    H135621   1.628   1.114   5.142 -0.3838  0.2309 -1.1965
 4710TIP3    H235622   1.500   1.186   5.177 -0.2265 -0.2204  0.4068
 4711TIP3   OH235623   5.139   6.821   6.426  0.0449  0.6238  0.0317
 4711TIP3    H135624   5.161   6.842   6.335 -0.0470  2.3709  0.3751
 4711TIP3    H235625   5.043   6.826   6.428  0.0823  1.3880  0.3784
 4712TIP3   OH235626   6.806   5.099  13.683 -0.6516 -0.2225  0.0160
 4712TIP3    H135627   6.770   5.138  13.603  1.5012 -0.2668 -1.0373
 4712TIP3    H235628   6.837   5.173  13.735 -2.3344 -0.1704  1.0146
 4713TIP3   OH235629   3.377   5.202   0.891  0.1043  0.3028  0.0790
 4713TIP3    H135630   3.354   5.146   0.817 -0.7595  2.1341 -1.1414
 4713TIP3    H235631   3.312   5.182   0.958 -0.1084 -0.2375 -0.2846
 4714TIP3   OH235632   6.697   3.781   0.211  0.6658 -0.0726 -0.2484
 4714TIP3    H135633   6.615   3.831   0.209 -0.2395 -1.4669  0.4354
 4714TIP3    H235634   6.731   3.795   0.299 -0.6303 -2.1684  0.6689
 4715TIP3   OH235635   4.493   2.938   5.117 -0.2935 -0.1835 -0.4228
 4715TIP3    H135636   4.422   2.888   5.156 -0.4010  0.9734  0.9255
 4715TIP3    H235637   4.484   2.923   5.023 -1.4430 -1.1747 -0.1773
 4716TIP3   OH235638   0.642   2.466   1.717  0.8443  0.0008 -0.3339
 4716TIP3    H135639   0.556   2.496   1.746  1.3623  0.8287  0.4091
 4716TIP3    H235640   0.704   2.521   1.765  1.7765  1.1848 -2.6907
 4717TIP3   OH235641   1.109   0.595  14.797  0.0220  0.2810  0.2280
 4717TIP3    H135642   1.142   0.531  14.734 -2.1797  1.1290 -1.9312
 4717TIP3    H235643   1.184   0.615  14.853  1.2340 -2.8612 -0.0960
 4718TIP3   OH235644   6.085   1.381  14.132 -0.1214 -0.1525 -0.1783
 4718TIP3    H135645   6.063   1.298  14.090 -1.4261 -0.0607  0.3080
 4718TIP3    H235646   6.101   1.440  14.058  1.1381 -0.8853 -0.5319
 4719TIP3   OH235647   3.432   2.091   5.648 -0.2255  0.4091 -0.3879
 4719TIP3    H135648   3.452   2.008   5.690  0.4863  0.8315  0.1248
 4719TIP3    H235649   3.338   2.086   5.630 -0.0654 -0.7824 -1.0146
 4720TIP3   OH235650   0.605   1.716   3.777  0.1761  0.4100  0.5707
 4720TIP3    H135651   0.636   1.723   3.868  1.5669  1.2389  0.0666
 4720TIP3    H235652   0.545   1.642   3.778 -0.0888  0.5963  2.2406
 4721TIP3   OH235653   4.110   3.546  11.429 -0.0690  0.3632 -0.7163
 4721TIP3    H135654   4.065   3.618  11.385  1.0344  1.7074  0.2421
 4721TIP3    H235655   4.123   3.480  11.361 -1.2050  1.0153 -1.5997
 4722TIP3   OH235656   3.347   0.450   0.410 -0.8848 -0.2035 -0.1503
 4722TIP3    H135657   3.277   0.386   0.406 -0.9786 -0.0961 -0.2427
 4722TIP3    H235658   3.412   0.418   0.347 -1.0863 -0.0256 -0.4519
 4723TIP3   OH235659   3.422   2.382   0.862 -0.1346 -0.1819  0.2924
 4723TIP3    H135660   3.427   2.447   0.931  0.5152  0.0259  0.0592
 4723TIP3    H235661   3.513   2.367   0.836 -0.1567 -2.1112  1.1935
 4724TIP3   OH235662   4.566   6.401   5.907 -0.0804 -0.4450 -0.7775
 4724TIP3    H135663   4.526   6.466   5.849 -0.3905  0.7138  0.6687
 4724TIP3    H235664   4.655   6.391   5.874 -0.6769 -0.9134 -2.3134
 4725TIP3   OH235665   3.299   5.046  12.069  0.3511  0.1439 -0.0880
 4725TIP3    H135666   3.269   5.073  11.983 -1.2220 -0.7886  0.1349
 4725TIP3    H235667   3.350   4.966  12.053 -1.5717 -1.1557 -0.0152
 4726TIP3   OH235668   4.775   0.919  14.367 -0.1712 -0.2870 -0.0609
 4726TIP3    H135669   4.848   0.867  14.402  0.3861  0.4069 -0.1676
 4726TIP3    H235670   4.751   0.874  14.286  2.7369  1.5582 -2.1546
 4727TIP3   OH235671   4.675   0.749  13.705  0.3735  0.3797 -0.2764
 4727TIP3    H135672   4.615   0.702  13.646 -2.1267 -0.7366  2.8375
 4727TIP3    H235673   4.634   0.834  13.717 -0.0009  0.0564  0.9166
 4728TIP3   OH235674   2.063   0.192  16.369  0.3012 -0.0669  0.0633
 4728TIP3    H135675   2.009   0.113  16.363  1.1332 -0.6329 -0.2815
 4728TIP3    H235676   2.025   0.243  16.440 -0.5502 -0.5473 -0.0406
 4729TIP3   OH235677   4.067   6.511   0.981  0.1003 -0.0777  0.4972
 4729TIP3    H135678   3.992   6.535   1.036  0.2047 -1.8008  1.4621
 4729TIP3    H235679   4.130   6.582   0.994 -1.4095  1.5271 -0.5162
 4730TIP3   OH235680   5.847   1.031  14.350  0.2204 -0.0979  0.9071
 4730TIP3    H135681   5.942   1.023  14.346  0.5586  2.7751  1.3999
 4730TIP3    H235682   5.822   0.976  14.425  0.9647 -3.6706 -1.2298
 4731TIP3   OH235683   2.709   5.988   1.941 -0.4012 -0.2363 -0.1058
 4731TIP3    H135684   2.637   5.959   1.997  0.5100 -0.1175  1.1727
 4731TIP3    H235685   2.763   5.909   1.928  0.6940  0.2565  1.2370
 4732TIP3   OH235686   6.545   0.453  10.806 -0.1905 -0.1162 -0.4923
 4732TIP3    H135687   6.640   0.463  10.799  0.0108  0.1022  1.7873
 4732TIP3    H235688   6.511   0.498  10.729  1.5107  0.3392 -1.0402
 4733TIP3   OH235689   3.341   1.652  11.322 -0.5076 -0.2693 -0.0105
 4733TIP3    H135690   3.270   1.687  11.270 -0.7902  2.0959  1.8245
 4733TIP3    H235691   3.299   1.617  11.400  0.2821  1.3494  1.1986
 4734TIP3   OH235692   3.190   3.159   5.429  0.0354  0.1316 -0.2928
 4734TIP3    H135693   3.173   3.253   5.418 -0.4225  0.0729 -0.1086
 4734TIP3    H235694   3.258   3.140   5.364  0.4346  0.6746 -0.0444
 4735TIP3   OH235695   4.456   5.341   3.718  0.3638  0.0188 -0.1671
 4735TIP3    H135696   4.484   5.253   3.693  1.7682  0.0555  1.0988
 4735TIP3    H235697   4.383   5.326   3.778  2.2452 -0.4992  2.1601
 4736TIP3   OH235698   6.767   2.910  12.433 -0.1877  0.4729 -0.2403
 4736TIP3    H135699   6.677   2.911  12.401  0.2415  1.4164 -1.5090
 4736TIP3    H235700   6.785   3.001  12.455  0.0857  0.0983  1.1540
 4737TIP3   OH235701   1.245   4.950  16.599  0.0489 -0.6609  0.2641
 4737TIP3    H135702   1.245   5.029  16.654  0.4246 -0.0855 -0.5419
 4737TIP3    H235703   1.175   4.964  16.536  1.6025  0.1283 -1.3778
 4738TIP3   OH235704   4.166   4.425  13.090  0.2663  0.6719 -0.0505
 4738TIP3    H135705   4.218   4.406  13.169  2.1636  3.5231 -0.4628
 4738TIP3    H235706   4.107   4.495  13.116 -0.5922  0.1842 -0.6464
 4739TIP3   OH235707   5.816   2.330  15.488 -0.0452 -0.4666 -0.4591
 4739TIP3    H135708   5.729   2.366  15.504 -0.2781  0.0512 -2.5632
 4739TIP3    H235709   5.876   2.399  15.517 -0.3242 -0.6786  0.6615
 4740TIP3   OH235710   1.007   3.555  13.537 -0.0379 -0.3442 -0.3181
 4740TIP3    H135711   1.079   3.492  13.545  1.0755  1.0136  0.8679
 4740TIP3    H235712   1.018   3.591  13.449  1.4324  0.5999  0.2097
 4741TIP3   OH235713   3.940   0.297   3.205  0.0855  0.0646  0.0813
 4741TIP3    H135714   3.845   0.284   3.207  0.0616 -0.9255 -2.7989
 4741TIP3    H235715   3.973   0.246   3.279 -1.5566  0.0856  0.8832
 4742TIP3   OH235716   2.305   0.684   6.427 -0.3554 -0.1177 -0.0845
 4742TIP3    H135717   2.338   0.632   6.500  2.4053  1.5274 -0.0294
 4742TIP3    H235718   2.378   0.688   6.365 -0.9860  2.3620 -0.7776
 4743TIP3   OH235719   1.150   4.998   3.362 -0.7400  0.1316 -0.1046
 4743TIP3    H135720   1.074   4.967   3.313 -0.4503  1.3428 -1.3662
 4743TIP3    H235721   1.214   5.021   3.295 -0.3853  1.9780  0.8124
 4744TIP3   OH235722   2.269   5.070  13.937 -0.3752  0.6767 -0.0402
 4744TIP3    H135723   2.176   5.071  13.960 -0.2328  0.8871  0.5312
 4744TIP3    H235724   2.301   4.986  13.970 -0.6669 -0.0512 -1.5087
 4745TIP3   OH235725   1.747   5.569   1.823  0.0203  0.0108 -0.2934
 4745TIP3    H135726   1.743   5.664   1.834 -0.1393  0.1747 -1.6422
 4745TIP3    H235727   1.801   5.556   1.745  1.4291 -1.0816  0.8089
 4746TIP3   OH235728   1.966   2.779   2.446 -0.7464  0.4123  0.0199
 4746TIP3    H135729   1.910   2.705   2.467 -2.1491  1.0545 -1.2401
 4746TIP3    H235730   1.917   2.856   2.476 -0.5863  1.0012 -1.1625
 4747TIP3   OH235731   0.623   0.752  16.374 -0.0559  0.2137 -0.2068
 4747TIP3    H135732   0.626   0.665  16.415 -0.9202 -0.5866 -1.7723
 4747TIP3    H235733   0.692   0.750  16.309  0.7846  1.1988  0.6205
 4748TIP3   OH235734   3.256   2.195   1.297 -0.3302 -0.0017  0.3122
 4748TIP3    H135735   3.272   2.102   1.315 -1.2450 -0.4034 -0.8106
 4748TIP3    H235736   3.233   2.232   1.382  0.3490 -0.7310  0.8281
 4749TIP3   OH235737   4.957   6.569  11.638  0.6792  0.1347  0.3205
 4749TIP3    H135738   5.037   6.533  11.678 -0.2938 -0.2144  2.0245
 4749TIP3    H235739   4.923   6.497  11.584 -0.0680 -0.8040  1.9715
 4750TIP3   OH235740   5.114   2.069   0.100  0.5043 -0.3019  0.0084
 4750TIP3    H135741   5.031   2.024   0.087 -0.1221  1.0483 -0.9202
 4750TIP3    H235742   5.155   2.070   0.013  0.9193  0.1177  0.2023
 4751TIP3   OH235743   0.805   2.264   0.865  0.1551 -0.3111 -0.0177
 4751TIP3    H135744   0.816   2.244   0.772  2.1831 -0.5370  0.2214
 4751TIP3    H235745   0.868   2.334   0.882 -0.7423  0.2683  1.0368
 4752TIP3   OH235746   1.478   1.154   2.696  0.1041  0.5376  0.3483
 4752TIP3    H135747   1.514   1.148   2.784  0.4848 -0.7663  0.1222
 4752TIP3    H235748   1.522   1.230   2.657  2.0492 -0.5179  0.3563
 4753TIP3   OH235749   6.762   2.212  13.007  0.1830  0.0514  0.6242
 4753TIP3    H135750   6.688   2.197  13.066 -0.9778  1.7909 -0.2903
 4753TIP3    H235751   6.780   2.126  12.968  0.4025 -0.9491  2.7791
 4754TIP3   OH235752   1.539   2.701   6.375  0.0446 -0.3494 -0.1268
 4754TIP3    H135753   1.459   2.747   6.352 -0.7747 -0.0777  2.8293
 4754TIP3    H235754   1.599   2.770   6.403  0.3068 -0.7517  0.3283
 4755TIP3   OH235755   5.389   0.759  16.825 -0.1462 -0.0468 -0.5309
 4755TIP3    H135756   5.362   0.667  16.816  0.3433 -0.1748 -0.7326
 4755TIP3    H235757   5.326   0.796  16.886 -0.4899 -0.4586 -0.6228
 4756TIP3   OH235758   1.879   4.218   1.180  0.2234  0.1186 -0.1650
 4756TIP3    H135759   1.843   4.305   1.161 -0.7470 -0.1389  0.4323
 4756TIP3    H235760   1.812   4.176   1.234  0.4644 -1.1833 -0.8541
 4757TIP3   OH235761   5.161   4.948   4.579 -0.1852  0.6743 -0.0753
 4757TIP3    H135762   5.219   5.023   4.567 -0.2375  0.5352 -1.4304
 4757TIP3    H235763   5.129   4.929   4.490  1.0112 -1.8718 -0.0529
 4758TIP3   OH235764   2.142   2.108  13.995 -0.3403  0.0327  0.4169
 4758TIP3    H135765   2.131   2.136  14.086 -0.5026  0.5296  0.2484
 4758TIP3    H235766   2.218   2.050  13.996 -0.2554  0.1529  0.8422
 4759TIP3   OH235767   3.345   3.420   1.201 -0.3856 -0.2377 -0.2985
 4759TIP3    H135768   3.266   3.369   1.220 -0.6033  0.6203  1.2732
 4759TIP3    H235769   3.313   3.508   1.182  0.2047  0.2996  1.0787
 4760TIP3   OH235770   6.561   3.018  14.659  0.3595  0.2689 -0.5984
 4760TIP3    H135771   6.568   2.940  14.605 -0.3103 -0.3351  0.1679
 4760TIP3    H235772   6.599   3.088  14.605  3.9704 -1.1023 -0.0867
 4761TIP3   OH235773   1.732   1.454   0.371 -0.0276 -0.0662  0.7187
 4761TIP3    H135774   1.654   1.449   0.426 -2.4547  0.3250 -2.3905
 4761TIP3    H235775   1.699   1.485   0.286  3.4605 -0.4360 -0.9338
 4762TIP3   OH235776   0.046   2.590   3.226  0.5845  0.2619 -0.1033
 4762TIP3    H135777   0.055   2.504   3.185  0.7168  0.7942 -1.2469
 4762TIP3    H235778   0.096   2.584   3.307 -0.8180 -1.2627  0.7197
 4763TIP3   OH235779   0.079   1.621   3.315 -0.3387 -0.0871 -0.5202
 4763TIP3    H135780   0.133   1.651   3.388  1.5789 -1.5950 -1.2314
 4763TIP3    H235781   0.007   1.573   3.357  0.4630 -0.5207  0.4021
 4764TIP3   OH235782   1.918   6.607   2.037  0.0194 -0.1054 -0.2351
 4764TIP3    H135783   1.823   6.597   2.025 -0.2215  1.8206 -0.2510
 4764TIP3    H235784   1.946   6.524   2.074 -1.4230 -1.2806 -1.6151
 4765TIP3   OH235785   0.173   6.449  14.214 -0.3211  0.4106  0.2231
 4765TIP3    H135786   0.251   6.441  14.160 -1.3875  0.8621 -1.4694
 4765TIP3    H235787   0.201   6.500  14.290  1.2447 -0.3128  0.1699
 4766TIP3   OH235788   1.163   2.893  12.985 -0.4193  0.1378  0.1249
 4766TIP3    H135789   1.257   2.893  13.000 -0.1702  0.5991 -1.2928
 4766TIP3    H235790   1.150   2.835  12.910 -1.2577  0.2029  0.2043
 4767TIP3   OH235791   3.005   3.801  10.885  0.4902 -0.1376  0.8387
 4767TIP3    H135792   3.020   3.778  10.977  0.1030  0.1159  0.9676
 4767TIP3    H235793   2.917   3.770  10.866  1.0289 -1.3422  0.1740
 4768TIP3   OH235794   5.483   3.203   1.179  0.3549 -0.1322  0.3181
 4768TIP3    H135795   5.398   3.170   1.150  0.0518  0.8021  0.0982
 4768TIP3    H235796   5.547   3.162   1.120 -0.2429  1.6983 -1.7095
 4769TIP3   OH235797   6.710   0.690  11.337 -0.1804  0.0494 -0.5012
 4769TIP3    H135798   6.690   0.622  11.402  1.9895  1.2022  1.5156
 4769TIP3    H235799   6.786   0.657  11.290  0.0938  0.5259 -0.3954
 4770TIP3   OH235800   1.576   5.234   4.622 -0.5279  0.0637 -0.0574
 4770TIP3    H135801   1.518   5.173   4.669 -3.0419  3.2529  1.3939
 4770TIP3    H235802   1.626   5.277   4.691  1.5837 -0.6217 -1.0891
 4771TIP3   OH235803   6.545   5.804  12.081 -0.3649  0.0085 -0.5542
 4771TIP3    H135804   6.596   5.789  12.159 -0.6119 -0.3637 -0.4602
 4771TIP3    H235805   6.473   5.862  12.109 -0.5272 -0.2304 -0.4753
 4772TIP3   OH235806   3.711   1.241   2.759 -0.1426  0.3273 -0.1616
 4772TIP3    H135807   3.631   1.223   2.808 -0.4705 -1.0256 -1.1159
 4772TIP3    H235808   3.779   1.249   2.825 -1.2557  3.0415  0.7916
 4773TIP3   OH235809   1.336   6.711   4.905  0.0253  0.3502  0.6433
 4773TIP3    H135810   1.277   6.650   4.951  1.8571 -1.5834  0.5747
 4773TIP3    H235811   1.288   6.735   4.826 -1.0796 -0.3352  1.0780
 4774TIP3   OH235812   0.821   5.055   2.881  0.0694  0.6226  0.2784
 4774TIP3    H135813   0.878   4.980   2.898  1.1073  1.1826 -0.6337
 4774TIP3    H235814   0.740   5.034   2.927  0.1558 -1.2957 -0.3803
 4775TIP3   OH235815   6.487   5.246   6.482 -0.2443 -0.4171 -0.4489
 4775TIP3    H135816   6.531   5.254   6.397  0.5023 -0.8024 -0.1008
 4775TIP3    H235817   6.554   5.270   6.546 -0.5436 -1.0065  0.0882
 4776TIP3   OH235818   5.646   3.123   0.982  0.0121  1.0445 -0.6539
 4776TIP3    H135819   5.703   3.052   0.953 -1.8507 -0.3232 -1.1610
 4776TIP3    H235820   5.705   3.196   0.999  2.0129 -0.6017 -0.1440
 4777TIP3   OH235821   5.570   4.840  16.235 -0.2503 -0.0576 -0.9567
 4777TIP3    H135822   5.579   4.927  16.195  0.4643  0.2487 -0.1438
 4777TIP3    H235823   5.602   4.780  16.167  0.1536  0.3900 -1.1725
 4778TIP3   OH235824   2.194   5.145  12.880 -0.2989 -0.3771  0.0228
 4778TIP3    H135825   2.254   5.167  12.809 -0.0614 -0.1371  0.2921
 4778TIP3    H235826   2.112   5.188  12.856 -1.0276 -2.4140 -1.3979
 4779TIP3   OH235827   6.152   2.364   6.252 -0.2164 -0.7613  0.3061
 4779TIP3    H135828   6.061   2.361   6.282 -0.5680  1.3216 -0.4031
 4779TIP3    H235829   6.183   2.450   6.278  1.8472 -1.7132  1.2308
 4780TIP3   OH235830   4.011   4.070   1.724  0.2391  0.2791  0.3034
 4780TIP3    H135831   4.040   4.078   1.815 -1.2485 -0.2430  0.8463
 4780TIP3    H235832   4.066   4.000   1.688 -0.3121 -0.7076  1.3183
 4781TIP3   OH235833   5.799   3.498  15.812  0.4178 -0.2364  0.2861
 4781TIP3    H135834   5.867   3.441  15.848 -0.8045 -1.1722  1.2092
 4781TIP3    H235835   5.796   3.475  15.719  0.0577 -1.6078  0.6072
 4782TIP3   OH235836   1.346   0.435   1.691 -0.3943  0.7047  0.3182
 4782TIP3    H135837   1.390   0.416   1.608 -0.4796  2.1896 -0.1108
 4782TIP3    H235838   1.405   0.496   1.735  0.4090 -1.2557  2.1067
 4783TIP3   OH235839   3.311   6.744  13.142 -0.1672 -0.3212 -0.3690
 4783TIP3    H135840   3.392   6.694  13.151  0.0607  0.2728  1.2995
 4783TIP3    H235841   3.242   6.678  13.140  0.1723 -0.7541  1.1636
 4784TIP3   OH235842   2.906   6.160  13.985 -0.5221  0.1419  0.1858
 4784TIP3    H135843   2.866   6.114  13.912 -1.8044 -0.4743  1.2413
 4784TIP3    H235844   2.961   6.227  13.944 -0.4144 -0.8329 -1.3384
 4785TIP3   OH235845   5.154   2.496  11.203 -0.6427 -0.1431 -0.2309
 4785TIP3    H135846   5.200   2.417  11.173  0.7234  0.7551 -0.5760
 4785TIP3    H235847   5.079   2.504  11.143 -0.7078 -1.0714 -0.2989
 4786TIP3   OH235848   6.063   6.587  15.804  0.1697 -0.1213  0.0244
 4786TIP3    H135849   6.042   6.644  15.729  0.6931  0.7787  0.5495
 4786TIP3    H235850   6.157   6.573  15.797  0.6147  1.6947  1.6708
 4787TIP3   OH235851   1.086   4.841  15.657 -0.5474 -0.3154  0.0514
 4787TIP3    H135852   1.130   4.761  15.686 -2.0777 -1.5248 -0.7913
 4787TIP3    H235853   0.998   4.835  15.696 -0.1834  1.8040  1.3472
 4788TIP3   OH235854   0.032   4.804  14.267 -0.3684  0.6017 -0.1763
 4788TIP3    H135855  -0.038   4.838  14.323 -0.4272 -0.1219  0.1964
 4788TIP3    H235856   0.000   4.720  14.236  0.2966  0.3101 -0.0822
 4789TIP3   OH235857   5.051   0.812  14.157  0.3086  0.5180 -0.3672
 4789TIP3    H135858   5.138   0.792  14.121  0.1067 -0.2708 -0.4360
 4789TIP3    H235859   5.039   0.905  14.139  0.4099  0.2596 -1.9439
 4790TIP3   OH235860   2.487   4.586  12.960  0.2045  0.3510 -0.4573
 4790TIP3    H135861   2.463   4.621  13.045 -0.2187 -0.7680 -0.0953
 4790TIP3    H235862   2.422   4.518  12.942  0.5423  0.2675 -1.4736
 4791TIP3   OH235863   4.524   5.799  12.284 -0.0206 -0.3935 -0.1592
 4791TIP3    H135864   4.539   5.820  12.376 -0.8128 -1.7965  0.3254
 4791TIP3    H235865   4.546   5.880  12.237  0.6478  0.2656  1.2233
 4792TIP3   OH235866   3.440   1.302  14.022 -0.1907 -0.2916  0.3291
 4792TIP3    H135867   3.488   1.350  14.090 -1.4559  1.5435  0.0115
 4792TIP3    H235868   3.433   1.364  13.950 -0.7677 -1.4421 -0.6296
 4793TIP3   OH235869   0.327   0.144   4.778 -0.9284  0.0562 -0.2864
 4793TIP3    H135870   0.263   0.073   4.778  0.8683 -1.6866 -1.6656
 4793TIP3    H235871   0.357   0.149   4.868 -3.0117  1.0193  0.4347
 4794TIP3   OH235872   3.574   5.445  14.604  0.4762 -0.0358 -0.0253
 4794TIP3    H135873   3.598   5.516  14.545 -0.9324  0.7043  0.2471
 4794TIP3    H235874   3.548   5.489  14.685  1.0417 -0.9639  0.6870
 4795TIP3   OH235875   1.670   5.133   2.124  0.7903  0.4051  0.0459
 4795TIP3    H135876   1.731   5.207   2.115  1.2906  0.0221  0.2573
 4795TIP3    H235877   1.630   5.125   2.038 -0.5361  1.9992  0.4491
 4796TIP3   OH235878   2.101   2.130  14.264 -0.3398  0.4389 -0.0908
 4796TIP3    H135879   2.142   2.141  14.350 -0.2839 -1.1546  0.1051
 4796TIP3    H235880   2.044   2.206  14.255 -0.0490  0.8267  1.1851
 4797TIP3   OH235881   6.736   3.175   3.879 -0.2282 -0.4934  0.6023
 4797TIP3    H135882   6.667   3.155   3.816  1.7910 -2.1643 -1.2594
 4797TIP3    H235883   6.720   3.265   3.906 -1.5051  0.1208 -1.9351
 4798TIP3   OH235884   4.909   1.659  11.392 -0.3790 -0.6575 -0.2117
 4798TIP3    H135885   4.975   1.707  11.342  1.0431 -2.9267 -0.6660
 4798TIP3    H235886   4.900   1.708  11.473  2.1503 -0.3989  0.0008
 4799TIP3   OH235887   6.426   0.948   3.721 -0.4029  0.3451  0.1097
 4799TIP3    H135888   6.369   0.973   3.794 -0.8467  1.4830 -0.6108
 4799TIP3    H235889   6.514   0.948   3.759 -0.7491 -0.4274  0.9739
 4800TIP3   OH235890   6.592   6.392  16.852  0.4063 -0.0383 -0.0523
 4800TIP3    H135891   6.583   6.299  16.872  0.1822  0.5715  3.2653
 4800TIP3    H235892   6.502   6.425  16.850  0.5330  0.3519  0.3570
 4801TIP3   OH235893   3.616   2.292  13.869 -0.4323  0.4989  0.3275
 4801TIP3    H135894   3.527   2.256  13.862 -0.0559 -0.3552 -0.2401
 4801TIP3    H235895   3.662   2.230  13.925  0.0293  0.4880 -0.0564
 4802TIP3   OH235896   6.737   1.590   3.634 -0.0530  0.0952 -0.0322
 4802TIP3    H135897   6.712   1.667   3.582  1.4911  1.1125  0.6615
 4802TIP3    H235898   6.755   1.522   3.568  1.6609  1.2966 -0.8963
 4803TIP3   OH235899   2.103   3.891   0.210  0.3728  0.8738 -0.4438
 4803TIP3    H135900   2.180   3.926   0.165  1.4647  0.6844  1.1913
 4803TIP3    H235901   2.127   3.893   0.303 -0.6981 -1.3673 -0.0719
 4804TIP3   OH235902   6.427   4.902  12.415  0.4057 -0.0056 -0.2486
 4804TIP3    H135903   6.515   4.921  12.448  0.8395  0.2446 -1.5006
 4804TIP3    H235904   6.397   4.985  12.378 -0.3773 -0.0814  0.2048
 4805TIP3   OH235905   6.730   1.522  10.695 -0.2822 -0.3923 -0.2188
 4805TIP3    H135906   6.702   1.580  10.624 -0.5147 -0.2084  0.0214
 4805TIP3    H235907   6.683   1.440  10.679 -0.2270 -0.3963 -0.3574
 4806TIP3   OH235908   2.808   4.886  13.231 -0.1985 -0.1349  0.2673
 4806TIP3    H135909   2.717   4.876  13.257 -0.3846  1.3814  0.2902
 4806TIP3    H235910   2.812   4.974  13.193  1.1217 -0.4209 -0.2954
 4807TIP3   OH235911   2.155   1.994   2.791 -0.3376  0.2729 -0.0275
 4807TIP3    H135912   2.066   1.972   2.816 -0.5884  1.0588 -0.2052
 4807TIP3    H235913   2.210   1.957   2.860 -0.6992 -1.2582 -0.5263
 4808TIP3   OH235914   4.499   2.888   1.363  0.4586 -0.1997  0.2965
 4808TIP3    H135915   4.502   2.934   1.279  1.1767  1.1910  1.0440
 4808TIP3    H235916   4.446   2.810   1.346  0.1153  0.3443 -1.3008
 4809TIP3   OH235917   2.286   3.812   3.817 -0.0502  1.0353  0.0696
 4809TIP3    H135918   2.367   3.790   3.772 -0.3183  0.1877 -0.0156
 4809TIP3    H235919   2.232   3.856   3.751 -0.0354  0.7378 -0.1389
 4810TIP3   OH235920   4.195   4.632   1.198  0.1936  0.0294  0.3229
 4810TIP3    H135921   4.215   4.571   1.127 -0.1172 -0.8146  0.9455
 4810TIP3    H235922   4.203   4.579   1.277 -1.0264  0.5466  0.8177
 4811TIP3   OH235923   5.242   1.980  13.536  0.0820 -0.8256  0.3831
 4811TIP3    H135924   5.208   2.005  13.450 -1.4382 -1.3220  0.8014
 4811TIP3    H235925   5.183   1.910  13.565  1.8249 -2.1299  0.9374
 4812TIP3   OH235926   2.063   0.562  13.095 -0.4845  0.7254 -0.0890
 4812TIP3    H135927   2.058   0.654  13.069 -2.5519  0.6997  0.1102
 4812TIP3    H235928   1.974   0.529  13.086  0.7229 -2.1440 -3.1229
 4813TIP3   OH235929   2.693   0.634   3.989 -0.0564  1.1546  0.1565
 4813TIP3    H135930   2.676   0.696   3.918  0.7087  2.1365  0.7918
 4813TIP3    H235931   2.699   0.689   4.068  3.4282  0.7163  0.3688
 4814TIP3   OH235932   4.087   2.941  13.522  0.2326  0.4447 -0.7184
 4814TIP3    H135933   4.037   2.882  13.464  1.6185 -1.0607 -0.4637
 4814TIP3    H235934   4.051   2.924  13.609 -0.3090  1.0271 -0.8215
 4815TIP3   OH235935   1.654   6.396  11.604 -0.1695 -0.2575 -0.4186
 4815TIP3    H135936   1.608   6.479  11.612  0.3842  0.0861 -0.7720
 4815TIP3    H235937   1.687   6.395  11.514 -2.1302 -1.8830 -1.1926
 4816TIP3   OH235938   0.450   2.101   5.420  0.3107  0.1940 -0.0594
 4816TIP3    H135939   0.533   2.085   5.374 -0.0057  0.7913 -0.8693
 4816TIP3    H235940   0.460   2.189   5.457 -0.1802  0.5331 -0.6992
 4817TIP3   OH235941   5.319   3.901   3.150 -0.3855 -0.0644 -0.0630
 4817TIP3    H135942   5.390   3.962   3.168 -0.0887 -0.8379  1.5480
 4817TIP3    H235943   5.240   3.945   3.180 -0.4097  0.2288 -0.5487
 4818TIP3   OH235944   5.550   5.224  17.137 -0.2290 -0.5483  0.9549
 4818TIP3    H135945   5.643   5.245  17.125 -0.8831  3.0021  0.9432
 4818TIP3    H235946   5.516   5.216  17.048 -0.5446  1.9549  0.7646
 4819TIP3   OH235947   1.087   3.563   1.301  0.1749  0.3607 -0.5458
 4819TIP3    H135948   1.145   3.618   1.248  0.4611  1.7114  1.0904
 4819TIP3    H235949   1.016   3.621   1.328 -0.1483 -0.3858  0.2775
 4820TIP3   OH235950   5.343   0.374   5.564  0.7742 -0.2779 -0.3447
 4820TIP3    H135951   5.436   0.375   5.541  0.7772  2.5774 -0.6330
 4820TIP3    H235952   5.300   0.414   5.488 -0.3012  1.2003  0.9896
 4821TIP3   OH235953   5.079   3.106   6.342  0.9873 -0.6351  0.2264
 4821TIP3    H135954   4.997   3.095   6.390  0.2023  3.0807 -0.0271
 4821TIP3    H235955   5.065   3.058   6.260 -1.3904  0.7409 -0.2469
 4822TIP3   OH235956   6.563   3.495  14.329  0.4132 -0.3656 -0.1927
 4822TIP3    H135957   6.478   3.510  14.287  0.6336  0.2355 -0.4310
 4822TIP3    H235958   6.598   3.417  14.286 -1.0116 -2.0027  1.4656
 4823TIP3   OH235959   0.271   3.084   3.837 -0.1968 -0.3269 -0.0000
 4823TIP3    H135960   0.293   3.114   3.749  1.1467  0.0659  0.4588
 4823TIP3    H235961   0.273   3.164   3.890  0.0460 -0.7239  0.5852
 4824TIP3   OH235962   4.834   1.784   3.970 -0.0697 -0.3297  0.3319
 4824TIP3    H135963   4.905   1.848   3.968 -0.5152  0.1903  0.5616
 4824TIP3    H235964   4.795   1.788   3.883 -0.7885  0.5333  0.6741
 4825TIP3   OH235965   1.930   3.571   2.035 -0.3727  0.5071  0.8333
 4825TIP3    H135966   1.908   3.563   2.128  0.6307 -1.3939  0.9500
 4825TIP3    H235967   1.913   3.483   1.999 -1.7174  1.4577 -1.0228
 4826TIP3   OH235968   1.704   6.361   2.208  0.0574 -0.1551 -0.0541
 4826TIP3    H135969   1.722   6.414   2.286  1.0796 -0.6162  0.0441
 4826TIP3    H235970   1.784   6.309   2.196 -0.5097 -0.8776 -0.7781
 4827TIP3   OH235971   2.925   5.804   2.753 -0.4581 -0.3034  0.4673
 4827TIP3    H135972   3.020   5.818   2.753 -0.4618 -0.2478 -0.0056
 4827TIP3    H235973   2.889   5.891   2.736 -0.4936 -0.7402 -2.2744
 4828TIP3   OH235974   6.407   2.506   5.590  0.1046 -0.1902  0.4334
 4828TIP3    H135975   6.322   2.480   5.624  0.5437 -2.0267  0.1890
 4828TIP3    H235976   6.387   2.561   5.514 -0.8644 -1.7329 -0.4636
 4829TIP3   OH235977   2.437   3.590   3.235  0.3056  0.2999 -1.1449
 4829TIP3    H135978   2.467   3.528   3.302 -0.6579  0.6658 -0.3524
 4829TIP3    H235979   2.502   3.661   3.238 -1.4036  1.8998  1.7362
 4830TIP3   OH235980   2.108   3.729  11.017  0.3581 -0.1240  0.0140
 4830TIP3    H135981   2.150   3.716  10.932 -2.2699  0.7976 -1.5653
 4830TIP3    H235982   2.067   3.644  11.037  1.8932 -0.6716  0.9641
 4831TIP3   OH235983   1.221   3.293   2.689  0.0614  0.0386 -0.1934
 4831TIP3    H135984   1.138   3.294   2.737  0.0981 -0.2637 -0.1211
 4831TIP3    H235985   1.195   3.272   2.599  0.2868 -2.9158  0.3312
 4832TIP3   OH235986   4.535   3.398   6.281  0.0305  0.0920  0.0922
 4832TIP3    H135987   4.622   3.401   6.322  1.7392  0.4403 -3.2237
 4832TIP3    H235988   4.515   3.304   6.276  0.9333 -0.0930 -0.3806
 4833TIP3   OH235989   3.518   4.843  15.278  0.0041  0.1652 -0.1327
 4833TIP3    H135990   3.494   4.782  15.348 -2.6765 -0.7278 -1.6829
 4833TIP3    H235991   3.613   4.837  15.273  0.0662 -1.6338  1.7708
 4834TIP3   OH235992   4.789   5.334   4.243 -0.1731 -0.3478 -0.2347
 4834TIP3    H135993   4.707   5.348   4.290  0.3459 -0.7778  0.8361
 4834TIP3    H235994   4.763   5.297   4.159 -1.1263  0.4484 -0.3062
 4835TIP3   OH235995   0.239   2.468  12.090  0.0142  0.1028  0.4723
 4835TIP3    H135996   0.203   2.492  12.005  0.6409 -0.0838  0.1464
 4835TIP3    H235997   0.332   2.452  12.073  0.2885  0.7352  1.3177
 4836TIP3   OH235998   1.441   5.599   4.740  0.2384  0.6645 -0.0127
 4836TIP3    H135999   1.368   5.545   4.708 -0.0646  0.5901  0.7832
 4836TIP3    H236000   1.401   5.658   4.804  0.5046  2.0884 -1.1068
 4837TIP3   OH236001   2.225   1.383   4.937  0.1808 -0.5435 -0.5739
 4837TIP3    H136002   2.178   1.415   5.014  1.2731 -0.5064  0.0953
 4837TIP3    H236003   2.273   1.306   4.968  0.4984 -0.6318 -1.2639
 4838TIP3   OH236004   6.185   4.301   4.466  0.1919 -0.1531  0.3775
 4838TIP3    H136005   6.171   4.294   4.372  2.3906 -1.6972  0.0981
 4838TIP3    H236006   6.131   4.375   4.493 -0.5639  0.2632 -2.0627
 4839TIP3   OH236007   1.409   1.135  12.791  0.1985  0.0156 -0.4138
 4839TIP3    H136008   1.332   1.123  12.735  0.0655 -1.7600  0.0940
 4839TIP3    H236009   1.483   1.125  12.731  0.0633  1.2042 -0.8063
 4840TIP3   OH236010   1.466   3.237  13.315  0.4976 -0.3692 -0.1032
 4840TIP3    H136011   1.393   3.277  13.363  1.2359  0.8885  0.0312
 4840TIP3    H236012   1.494   3.164  13.369  0.2249  0.0005  0.5453
 4841TIP3   OH236013   3.692   4.188  14.435  0.0053  0.0623  0.3286
 4841TIP3    H136014   3.758   4.244  14.395  0.7886 -0.5958  0.6831
 4841TIP3    H236015   3.609   4.215  14.394  0.2358  1.9842  1.0112
 4842TIP3   OH236016   4.376   3.914   5.160  0.6555  0.1425  0.4074
 4842TIP3    H136017   4.467   3.917   5.187  1.0968  0.3314 -1.0195
 4842TIP3    H236018   4.326   3.911   5.242  1.8669  1.8773  1.2663
 4843TIP3   OH236019   6.367   1.685   0.641  0.2668 -0.2753  0.2340
 4843TIP3    H136020   6.367   1.598   0.683  0.6943 -1.4292 -2.0213
 4843TIP3    H236021   6.275   1.701   0.619  0.4585 -1.3460 -1.5504
 4844TIP3   OH236022   2.817   2.326   5.012  0.0873 -0.2657 -0.3610
 4844TIP3    H136023   2.837   2.234   4.994  0.4611  0.0644 -1.7626
 4844TIP3    H236024   2.732   2.340   4.971  0.8587  0.4580 -1.7903
 4845TIP3   OH236025   2.698   6.651   5.467 -0.2647  0.1009 -0.1143
 4845TIP3    H136026   2.602   6.654   5.459 -0.3659 -0.8580  0.5498
 4845TIP3    H236027   2.727   6.606   5.388 -0.6007 -1.9367  0.8411
 4846TIP3   OH236028   0.448   3.351   1.331 -0.2576  0.0960  1.1039
 4846TIP3    H136029   0.504   3.276   1.310  0.8824  1.3439 -0.5473
 4846TIP3    H236030   0.506   3.412   1.377 -0.5207  0.9488  0.3315
 4847TIP3   OH236031   0.834   5.440  13.818 -0.1727  0.2331  0.0601
 4847TIP3    H136032   0.925   5.428  13.791 -0.9303 -1.8423 -1.8166
 4847TIP3    H236033   0.800   5.508  13.759 -0.6369 -1.2246 -1.4268
 4848TIP3   OH236034   1.040   4.312  11.406 -0.1430 -0.0511  0.5361
 4848TIP3    H136035   1.006   4.319  11.317 -0.0009  0.7235  0.5380
 4848TIP3    H236036   1.020   4.396  11.447 -0.8806 -0.6715  1.4846
 4849TIP3   OH236037   4.064   2.814  16.278 -0.6607 -0.0062 -0.5493
 4849TIP3    H136038   3.999   2.772  16.223  0.6533 -0.6831 -1.6646
 4849TIP3    H236039   4.135   2.838  16.217  0.1459  0.6653  0.6087
 4850TIP3   OH236040   0.704   0.744  16.812 -0.0660 -0.3032  0.3083
 4850TIP3    H136041   0.732   0.796  16.887  0.5564  2.3166 -1.5731
 4850TIP3    H236042   0.683   0.809  16.745 -1.2359 -2.4929 -1.5856
 4851TIP3   OH236043   5.934   5.899   3.665  0.0139  0.5502  0.0114
 4851TIP3    H136044   5.955   5.828   3.725 -0.5635  0.5316  0.1982
 4851TIP3    H236045   5.838   5.904   3.666  0.0441  1.2323 -0.1142
 4852TIP3   OH236046   0.004   4.642  15.747 -0.1541 -0.4292 -0.1618
 4852TIP3    H136047   0.028   4.562  15.700  0.6347  0.5760 -1.5557
 4852TIP3    H236048  -0.054   4.688  15.686 -1.9310 -0.6626  1.2810
 4853TIP3   OH236049   1.527   3.972   0.366 -0.2567  0.2458  0.7356
 4853TIP3    H136050   1.443   4.013   0.346  0.4376  1.3663 -0.0274
 4853TIP3    H236051   1.590   4.043   0.360  0.9414 -0.8415 -0.1747
 4854TIP3   OH236052   3.538   5.881  11.139 -0.3873 -0.1617 -0.0394
 4854TIP3    H136053   3.475   5.870  11.068 -1.0635  1.3988  0.2706
 4854TIP3    H236054   3.497   5.945  11.198  1.7334  1.3756 -0.1279
 4855TIP3   OH236055   6.564   2.653   0.572  0.0369  0.2836  0.0305
 4855TIP3    H136056   6.656   2.655   0.598 -0.1339  1.3484  0.6211
 4855TIP3    H236057   6.541   2.560   0.571  1.5708 -0.1305 -1.8614
 4856TIP3   OH236058   2.910   3.309  11.253  0.0135 -0.2270 -0.0074
 4856TIP3    H136059   2.852   3.234  11.266  0.2327 -0.0442  2.6321
 4856TIP3    H236060   2.998   3.271  11.259  0.1253  0.1762  1.3851
 4857TIP3   OH236061   5.693   0.630  16.986  0.2741 -0.0737  0.1415
 4857TIP3    H136062   5.736   0.548  17.012 -0.5926 -1.0862 -1.4838
 4857TIP3    H236063   5.602   0.619  17.014  0.4567  0.9729  1.2192
 4858TIP3   OH236064   4.571   2.839  13.675 -0.0895 -0.2070  0.2572
 4858TIP3    H136065   4.553   2.911  13.615  0.2616  0.0694  0.4757
 4858TIP3    H236066   4.593   2.881  13.758  0.4490 -0.5467  0.2985
 4859TIP3   OH236067   5.902   4.948  12.761 -0.0200 -0.0813 -0.3415
 4859TIP3    H136068   5.807   4.947  12.772 -0.1701  0.0275 -1.5121
 4859TIP3    H236069   5.936   4.908  12.841 -1.0026  0.7718  0.5390
 4860TIP3   OH236070   0.648   2.909  16.877  0.3466  0.4047  0.7000
 4860TIP3    H136071   0.736   2.883  16.904  0.2202  0.2770  0.9956
 4860TIP3    H236072   0.610   2.950  16.955  0.7920  2.1370  0.0470
 4861TIP3   OH236073   5.992   6.397   5.037 -0.1152 -0.2815 -0.5133
 4861TIP3    H136074   5.966   6.441   5.118 -1.9449 -0.0366 -1.1888
 4861TIP3    H236075   6.087   6.411   5.032 -0.0429  0.1543  1.2937
 4862TIP3   OH236076   1.289   4.022  12.471 -0.3114 -0.0719 -0.3069
 4862TIP3    H136077   1.366   3.966  12.481 -1.3730 -1.6025 -0.3159
 4862TIP3    H236078   1.317   4.108  12.501  0.8172 -1.0810  1.7157
 4863TIP3   OH236079   2.747   0.084   2.369 -0.6458  0.2697  0.1323
 4863TIP3    H136080   2.750   0.026   2.293 -0.5568  1.0524 -0.4728
 4863TIP3    H236081   2.719   0.027   2.441  0.1855 -0.6947 -0.2750
 4864TIP3   OH236082   1.805   2.587   3.467 -0.1469  0.0306  0.2915
 4864TIP3    H136083   1.838   2.499   3.449  2.3160  0.6651  1.3270
 4864TIP3    H236084   1.757   2.578   3.550  0.6688 -0.2169  0.7413
 4865TIP3   OH236085   0.398   1.204  15.109  0.6065 -0.0541  0.2044
 4865TIP3    H136086   0.348   1.182  15.031 -0.4941 -1.6187  1.2827
 4865TIP3    H236087   0.444   1.123  15.131  0.5414  0.2219  1.4096
 4866TIP3   OH236088   4.480   3.593  11.051 -0.6228  0.5917  0.2454
 4866TIP3    H136089   4.539   3.517  11.058 -0.4947  0.6727  0.0432
 4866TIP3    H236090   4.486   3.619  10.959 -2.9273 -0.9775 -0.4384
 4867TIP3   OH236091   1.391   0.883  12.478 -0.0152 -0.0933  0.6191
 4867TIP3    H136092   1.462   0.940  12.508 -0.5734  1.1615 -0.3361
 4867TIP3    H236093   1.425   0.794  12.489  2.0703  0.4812 -0.6557
 4868TIP3   OH236094   4.218   1.018   3.235  0.0211 -1.0049 -0.1748
 4868TIP3    H136095   4.178   0.942   3.193  0.1793 -0.9341 -0.4544
 4868TIP3    H236096   4.149   1.052   3.293 -0.5000 -0.5878 -1.0245
 4869TIP3   OH236097   3.768   2.586   2.228 -0.1740 -0.8885  0.0157
 4869TIP3    H136098   3.769   2.610   2.136  4.1113  1.2718  0.4059
 4869TIP3    H236099   3.716   2.654   2.270 -0.4115 -0.6983 -0.5771
 4870TIP3   OH236100   2.931   6.668   6.237  0.0295  0.2424 -0.0631
 4870TIP3    H136101   3.009   6.644   6.186 -0.0999 -2.7573  0.9548
 4870TIP3    H236102   2.962   6.737   6.297  1.8649 -0.6786  0.1312
 4871TIP3   OH236103   3.600   6.154   1.317  0.2261  0.3533 -0.3002
 4871TIP3    H136104   3.571   6.109   1.396 -0.7284  2.7588  0.8473
 4871TIP3    H236105   3.619   6.243   1.346  0.4930  1.1563 -2.6830
 4872TIP3   OH236106   4.097   0.975  14.615  0.0528 -0.5442 -0.4160
 4872TIP3    H136107   4.007   0.955  14.640 -0.3819  1.1536 -0.5252
 4872TIP3    H236108   4.148   0.961  14.695 -0.7114  0.8880  0.3688
 4873TIP3   OH236109   0.856   0.168   3.983  0.0213  1.0024 -0.4123
 4873TIP3    H136110   0.801   0.174   4.062 -0.7220  1.9224 -0.9734
 4873TIP3    H236111   0.800   0.200   3.913  0.9246  0.9067 -1.1956
 4874TIP3   OH236112   2.150   4.572   2.257 -0.0467  0.0114 -0.0929
 4874TIP3    H136113   2.202   4.493   2.243  0.5793  0.4241 -0.1550
 4874TIP3    H236114   2.134   4.607   2.170 -3.1984 -1.8033 -0.3813
 4875TIP3   OH236115   4.811   6.125   3.608 -1.1126  0.2453  0.3428
 4875TIP3    H136116   4.716   6.135   3.618 -1.8450 -2.8004 -1.9690
 4875TIP3    H236117   4.832   6.044   3.654 -0.0792 -0.2706 -0.9724
 4876TIP3   OH236118   2.794   0.373  13.710 -0.4350  0.2736  0.4997
 4876TIP3    H136119   2.738   0.437  13.754  0.3212  0.3259  1.4292
 4876TIP3    H236120   2.811   0.307  13.777 -0.3042 -0.3220 -0.1172
 4877TIP3   OH236121   2.641   4.219  13.642  0.9558  0.1676  0.8656
 4877TIP3    H136122   2.549   4.245  13.647  1.4461  2.1226  0.6282
 4877TIP3    H236123   2.639   4.124  13.651 -1.3521 -0.2314 -2.2474
 4878TIP3   OH236124   3.445   2.149   2.316  0.3512  0.6023 -0.0677
 4878TIP3    H136125   3.350   2.159   2.325  0.3917  1.0365 -0.1247
 4878TIP3    H236126   3.467   2.198   2.237  0.5862  0.2686 -0.2119
 4879TIP3   OH236127   4.051   4.907  15.300 -0.0113  0.2027  0.2648
 4879TIP3    H136128   4.118   4.954  15.251 -0.2632  0.9798  0.6449
 4879TIP3    H236129   4.077   4.916  15.392 -0.8006  0.8166  0.4467
 4880TIP3   OH236130   5.242   1.608  15.268  0.0212  0.6520  0.0620
 4880TIP3    H136131   5.190   1.613  15.349  0.8594 -0.1056  0.6715
 4880TIP3    H236132   5.333   1.616  15.298  0.4800 -1.5155 -0.5660
 4881TIP3   OH236133   5.985   3.315  11.581 -0.3048 -0.1432 -0.1924
 4881TIP3    H136134   6.062   3.273  11.620 -1.6735 -1.3564  1.3555
 4881TIP3    H236135   5.975   3.397  11.629 -1.0770 -0.9060  1.0069
 4882TIP3   OH236136   6.479   0.551  12.956 -0.0334  0.0904 -0.2207
 4882TIP3    H136137   6.499   0.626  12.900 -1.3717  0.3579 -0.3760
 4882TIP3    H236138   6.522   0.570  13.039 -0.1970  0.9514 -0.3240
 4883TIP3   OH236139   6.291   4.611  11.483 -0.4962  0.4725  0.0732
 4883TIP3    H136140   6.287   4.542  11.417  1.4666 -1.3086  1.6621
 4883TIP3    H236141   6.221   4.589  11.545  1.6936 -1.7882  1.9574
 4884TIP3   OH236142   4.402   2.648  11.272  0.3671  0.5238 -0.2210
 4884TIP3    H136143   4.347   2.579  11.311 -0.7388  1.8931  0.7450
 4884TIP3    H236144   4.382   2.644  11.179 -0.3366  0.0905 -0.0673
 4885TIP3   OH236145   0.117   3.105  13.678  0.4230 -0.3759  0.3566
 4885TIP3    H136146   0.192   3.052  13.706  0.9187 -0.2641 -0.6730
 4885TIP3    H236147   0.136   3.193  13.710  0.4088 -0.4874  0.6684
 4886TIP3   OH236148   1.792   2.932   2.594  0.2914  0.5420  0.7282
 4886TIP3    H136149   1.710   2.897   2.628  0.0960  0.4712  0.1932
 4886TIP3    H236150   1.858   2.905   2.658  0.2521 -1.3852  0.0248
 4887TIP3   OH236151   3.632   4.626  15.030  0.7060  0.3691 -0.6400
 4887TIP3    H136152   3.702   4.690  15.013  1.0684 -0.0595 -0.7851
 4887TIP3    H236153   3.653   4.552  14.972  0.1924  0.1923 -0.6001
 4888TIP3   OH236154   3.865   4.962  12.405 -0.2649  0.2488 -0.4117
 4888TIP3    H136155   3.806   4.920  12.467  1.1543 -3.8959 -1.5413
 4888TIP3    H236156   3.932   5.004  12.460 -1.5877  0.8310  0.8033
 4889TIP3   OH236157   3.050   6.403   1.402 -0.3446  0.0302 -0.2751
 4889TIP3    H136158   3.124   6.383   1.344  1.1556  3.5061  0.2124
 4889TIP3    H236159   3.080   6.376   1.489 -0.0934  0.3707 -0.2525
 4890TIP3   OH236160   3.221   3.477  13.812 -0.1549  0.0474  0.0324
 4890TIP3    H136161   3.294   3.415  13.816 -1.2940 -1.3047  0.3052
 4890TIP3    H236162   3.188   3.470  13.723 -0.1374  0.4479 -0.0083
 4891TIP3   OH236163   3.630   4.985   3.549  0.1455 -0.4528 -0.1204
 4891TIP3    H136164   3.628   4.941   3.634 -1.3355  0.0575  0.1367
 4891TIP3    H236165   3.602   5.075   3.568  0.6455 -0.0929 -1.0322
 4892TIP3   OH236166   5.241   5.392  13.603  0.0063  0.5110 -0.1555
 4892TIP3    H136167   5.282   5.348  13.678  1.5693 -0.9780 -1.8067
 4892TIP3    H236168   5.306   5.388  13.534 -1.4140  1.8184 -1.6559
 4893TIP3   OH236169   6.710   4.069  10.962  0.2438 -0.9093 -0.2128
 4893TIP3    H136170   6.740   4.160  10.958 -0.7769 -0.5240  0.4668
 4893TIP3    H236171   6.684   4.047  10.873 -2.0351  0.3784  0.0743
 4894TIP3   OH236172   2.424   0.519   6.660  0.3955 -0.2404  0.3194
 4894TIP3    H136173   2.494   0.582   6.671  1.3865 -0.8844 -1.8489
 4894TIP3    H236174   2.468   0.437   6.637 -0.9957 -0.9420  0.0198
 4895TIP3   OH236175   1.580   0.612   3.801  0.0938  0.0761  0.4007
 4895TIP3    H136176   1.502   0.595   3.854  0.4471 -0.2203  0.8332
 4895TIP3    H236177   1.545   0.632   3.714 -0.6201  2.7472  1.2053
 4896TIP3   OH236178   3.823   4.362  11.382  0.6718 -0.7078  0.3430
 4896TIP3    H136179   3.813   4.309  11.303  0.6911 -0.6206  0.2815
 4896TIP3    H236180   3.911   4.341  11.413  0.7343 -0.6080  0.2400
 4897TIP3   OH236181   1.136   0.405   6.015 -0.0973 -0.1395 -0.3935
 4897TIP3    H136182   1.221   0.377   5.984 -1.1203 -2.3851 -1.3867
 4897TIP3    H236183   1.106   0.335   6.073 -0.0104  2.0558  2.5423
 4898TIP3   OH236184   0.791   0.364   3.363 -0.0060 -0.2643  0.5031
 4898TIP3    H136185   0.785   0.269   3.361 -0.7519 -0.2166 -1.6340
 4898TIP3    H236186   0.709   0.393   3.403 -1.5179 -0.4890 -2.1695
 4899TIP3   OH236187   4.336   5.221  13.183 -0.3532  0.8236  0.8805
 4899TIP3    H136188   4.286   5.250  13.258 -2.8364  0.1201 -0.3913
 4899TIP3    H236189   4.285   5.250  13.107  0.5781 -0.8911 -0.4822
 4900TIP3   OH236190   1.338   1.493   1.486 -0.0669  0.4343 -0.2484
 4900TIP3    H136191   1.264   1.450   1.443 -0.0245  0.4646 -0.3525
 4900TIP3    H236192   1.415   1.462   1.437  0.1799 -1.1492  1.0815
 4901TIP3   OH236193   4.161   3.541   3.079 -0.4525 -0.6399 -0.0484
 4901TIP3    H136194   4.179   3.607   3.146  0.6458 -1.4395  0.4749
 4901TIP3    H236195   4.087   3.491   3.113 -0.8077 -0.1628 -0.1042
 4902TIP3   OH236196   5.091   3.359  15.095 -0.6197 -0.0414  0.3148
 4902TIP3    H136197   5.032   3.283  15.088 -1.5437  0.5563  1.3520
 4902TIP3    H236198   5.177   3.324  15.072 -1.2286 -1.1222 -0.4427
 4903TIP3   OH236199   6.734   6.534   3.316 -0.1384 -0.4212  0.4042
 4903TIP3    H136200   6.670   6.534   3.387 -0.1468 -4.4716  0.6407
 4903TIP3    H236201   6.819   6.529   3.360  0.1679  1.2661  0.0671
 4904TIP3   OH236202   0.270   0.214   2.015  0.5012 -0.5469 -0.4726
 4904TIP3    H136203   0.262   0.204   2.110 -0.6771 -0.1126 -0.5082
 4904TIP3    H236204   0.179   0.220   1.984  0.9033  0.7113 -1.4627
 4905TIP3   OH236205   3.403   1.341   0.410 -0.3394 -0.0192 -0.1877
 4905TIP3    H136206   3.319   1.386   0.417 -0.1250  0.4845 -0.8024
 4905TIP3    H236207   3.391   1.280   0.338 -0.3750 -0.3913  0.1317
 4906TIP3   OH236208   6.225   4.751  13.886  0.2983 -0.0206  0.1009
 4906TIP3    H136209   6.293   4.798  13.838 -0.0616 -1.4851 -1.9502
 4906TIP3    H236210   6.143   4.777  13.844 -0.1069 -0.7119  0.4517
 4907TIP3   OH236211   2.138   2.256  10.555 -0.0115 -0.2269 -0.2571
 4907TIP3    H136212   2.133   2.349  10.578 -1.4914 -0.7424  1.8945
 4907TIP3    H236213   2.186   2.216  10.628 -1.7608 -1.4738  0.2962
 4908TIP3   OH236214   3.362   1.495  13.844  0.2309 -0.4844 -0.6324
 4908TIP3    H136215   3.282   1.535  13.810 -0.1427 -1.4870 -0.9851
 4908TIP3    H236216   3.433   1.536  13.794  0.1304  1.6543  0.8390
 4909TIP3   OH236217   1.029   5.195   5.450  0.6116  0.5163  0.4935
 4909TIP3    H136218   0.959   5.182   5.513  0.4589  1.0118  0.4357
 4909TIP3    H236219   0.984   5.228   5.371  0.5774 -1.6515 -0.4662
 4910TIP3   OH236220   5.498   6.382  16.550 -0.1963 -0.4502  0.0427
 4910TIP3    H136221   5.555   6.458  16.539 -1.0566  0.1920 -0.0765
 4910TIP3    H236222   5.442   6.382  16.473  0.1608 -1.5402 -0.2345
 4911TIP3   OH236223   0.628   1.911  13.284  0.3427 -0.0323  0.4082
 4911TIP3    H136224   0.547   1.917  13.233 -0.3963 -0.9623  1.4089
 4911TIP3    H236225   0.692   1.872  13.224  0.3548  1.6209 -0.6997
 4912TIP3   OH236226   2.548   4.400   5.517  0.1194 -0.0768 -0.0918
 4912TIP3    H136227   2.460   4.427   5.490  0.6754  1.4806 -0.4546
 4912TIP3    H236228   2.572   4.461   5.587  1.0495 -0.2459 -0.2487
 4913TIP3   OH236229   0.935   6.099   3.758  0.3578  0.3473  0.0104
 4913TIP3    H136230   0.862   6.151   3.791  0.7571 -0.1257  1.8002
 4913TIP3    H236231   0.906   6.066   3.673 -1.7530 -0.2960  0.9285
 4914TIP3   OH236232   5.332   2.279   5.149  0.2771 -0.0863  0.6732
 4914TIP3    H136233   5.362   2.273   5.240 -0.6747 -2.2857  0.9086
 4914TIP3    H236234   5.268   2.351   5.150 -0.7839 -1.0028  2.0986
 4915TIP3   OH236235   3.403   6.562  16.393 -0.6034  0.3430 -0.1596
 4915TIP3    H136236   3.369   6.585  16.306 -0.2884  1.2770 -0.0396
 4915TIP3    H236237   3.363   6.625  16.452 -2.5006 -1.5751  0.7453
 4916TIP3   OH236238   4.324   0.266  12.090  0.6207  0.1814  0.2622
 4916TIP3    H136239   4.265   0.314  12.148  0.6370  0.2126  0.2529
 4916TIP3    H236240   4.268   0.233  12.020  0.4806 -0.4448  0.6613
 4917TIP3   OH236241   4.348   0.519  11.776 -0.2678  0.4653  0.3005
 4917TIP3    H136242   4.253   0.521  11.764 -0.2469  2.6522  0.1616
 4917TIP3    H236243   4.361   0.539  11.869  0.0868  1.1348  0.1065
 4918TIP3   OH236244   6.395   4.552  15.803  0.1012 -0.2323 -0.6977
 4918TIP3    H136245   6.356   4.482  15.750  0.0989 -0.9770  0.2477
 4918TIP3    H236246   6.366   4.533  15.892  0.8769  0.4420 -0.2873
 4919TIP3   OH236247   1.126   3.818   4.281 -0.3957 -0.0677  0.1516
 4919TIP3    H136248   1.057   3.855   4.225 -0.1400  0.8294  0.4027
 4919TIP3    H236249   1.128   3.725   4.259 -0.5920  0.1883 -1.0156
 4920TIP3   OH236250   6.700   5.809  14.878  0.1344  0.0470  0.1129
 4920TIP3    H136251   6.794   5.823  14.883  0.0498  1.5843 -1.5692
 4920TIP3    H236252   6.690   5.721  14.841  0.9106  0.0180 -0.0397
 4921TIP3   OH236253   2.913   4.282  13.924 -0.3858  0.6983 -0.0183
 4921TIP3    H136254   2.915   4.223  14.000 -2.7827  0.0172 -0.3965
 4921TIP3    H236255   2.938   4.227  13.850 -0.0814  0.8349 -0.0191
 4922TIP3   OH236256   2.445   2.111  12.746  0.3702  0.4563  0.2950
 4922TIP3    H136257   2.527   2.071  12.777 -0.4466 -0.3041  1.5739
 4922TIP3    H236258   2.424   2.177  12.812 -0.2681  0.3419  0.2130
 4923TIP3   OH236259   4.667   1.506   6.422  0.0067  0.1032  0.3857
 4923TIP3    H136260   4.586   1.490   6.472  0.7678 -4.7121  0.5853
 4923TIP3    H236261   4.645   1.481   6.332  0.7993  0.6637  0.0255
 4924TIP3   OH236262   0.434   5.530   5.578  0.0629 -0.1928 -0.1981
 4924TIP3    H136263   0.476   5.503   5.659  3.0304 -0.9670 -1.8303
 4924TIP3    H236264   0.398   5.449   5.542 -3.3981  0.4997  1.3123
 4925TIP3   OH236265   3.107   3.892   1.059  0.2603  0.1953 -0.1161
 4925TIP3    H136266   3.121   3.924   0.970 -1.8262  2.4565  0.2675
 4925TIP3    H236267   3.091   3.971   1.111 -3.1298 -1.2550  1.3432
 4926TIP3   OH236268   0.045   2.993   0.120  0.6572  0.0676  0.3714
 4926TIP3    H136269   0.102   3.066   0.144  0.8693 -0.0999  0.3787
 4926TIP3    H236270   0.103   2.932   0.074  0.6579 -0.4601  1.0612
 4927TIP3   OH236271   6.469   4.109   2.174 -0.6487 -0.5348  0.0644
 4927TIP3    H136272   6.511   4.194   2.168 -1.3883 -0.2532 -1.8824
 4927TIP3    H236273   6.541   4.046   2.168 -0.0068 -0.1111  2.3688
 4928TIP3   OH236274   1.046   6.552  11.426 -0.5372  0.1507 -0.2431
 4928TIP3    H136275   1.056   6.581  11.516 -0.0740  1.8500 -0.8018
 4928TIP3    H236276   1.080   6.625  11.373  1.4609 -1.7123 -1.7569
 4929TIP3   OH236277   6.513   4.706   3.608  0.1841 -0.2247 -0.6583
 4929TIP3    H136278   6.608   4.720   3.600 -0.0047  1.7192 -0.0081
 4929TIP3    H236279   6.492   4.645   3.536  1.8564 -0.4251 -1.0269
 4930TIP3   OH236280   4.895   4.438   1.847 -0.6163 -0.4910  0.0559
 4930TIP3    H136281   4.958   4.494   1.892 -1.0314  0.9351 -1.0441
 4930TIP3    H236282   4.811   4.458   1.888 -0.6349 -1.0200  0.2840
 4931TIP3   OH236283   4.011   6.659  15.447 -0.0011 -0.2005 -0.1187
 4931TIP3    H136284   4.051   6.588  15.496  2.7199  0.8439 -0.6299
 4931TIP3    H236285   3.973   6.617  15.370  4.2684 -0.9956 -2.0711
 4932TIP3   OH236286   5.271   0.632   4.401  0.0703 -0.2622  0.2326
 4932TIP3    H136287   5.218   0.593   4.470  0.6815 -1.8007 -0.1409
 4932TIP3    H236288   5.207   0.679   4.347 -0.5801 -0.1034  1.1053
 4933TIP3   OH236289   4.322   2.908   0.166 -0.8879 -0.5020 -0.0503
 4933TIP3    H136290   4.409   2.873   0.186 -1.2574 -0.4574  1.8938
 4933TIP3    H236291   4.323   2.997   0.203 -2.4349 -1.2881  2.0966
 4934TIP3   OH236292   2.439   0.030   3.601 -0.1990 -0.3313  0.2578
 4934TIP3    H136293   2.470  -0.002   3.686  1.3775  1.2932  0.3601
 4934TIP3    H236294   2.415  -0.049   3.553  2.5785 -1.6773  0.8355
 4935TIP3   OH236295   6.146   2.962  13.247  0.0740  0.6829 -0.2162
 4935TIP3    H136296   6.085   2.888  13.238 -0.6508  1.2913 -0.3915
 4935TIP3    H236297   6.232   2.921  13.255 -0.4591 -0.2600  1.2629
 4936TIP3   OH236298   1.497   6.499  12.562  0.0445  0.1146 -0.2484
 4936TIP3    H136299   1.481   6.442  12.637 -3.1453  1.4733  0.2930
 4936TIP3    H236300   1.531   6.580  12.600  0.6606 -0.0045 -0.5411
 4937TIP3   OH236301   2.415   1.675   2.125  0.0346  0.4547  0.3837
 4937TIP3    H136302   2.461   1.610   2.072 -0.7491  0.5145 -0.3773
 4937TIP3    H236303   2.394   1.745   2.064 -2.2462 -0.1566  0.3950
 4938TIP3   OH236304   4.443   5.473   4.916 -0.0527  0.3182 -0.9049
 4938TIP3    H136305   4.461   5.385   4.950  0.3289  1.0805  1.0128
 4938TIP3    H236306   4.387   5.459   4.840 -1.8510 -1.5040  0.6444
 4939TIP3   OH236307   3.020   6.298   1.856 -0.3225 -0.0500  0.2642
 4939TIP3    H136308   3.069   6.358   1.800 -1.1883  2.0454  1.6255
 4939TIP3    H236309   3.087   6.260   1.913 -0.0969  2.6055  1.9561
 4940TIP3   OH236310   1.240   1.619   4.306 -0.6468 -0.8873 -1.1933
 4940TIP3    H136311   1.229   1.532   4.345 -0.9286 -0.9646 -1.4443
 4940TIP3    H236312   1.152   1.646   4.281 -0.7097 -0.0637 -0.1516
 4941TIP3   OH236313   0.583   2.828  12.226 -0.5371 -0.3857  0.6308
 4941TIP3    H136314   0.510   2.821  12.164  1.0212 -0.8667 -1.2918
 4941TIP3    H236315   0.615   2.738  12.235  1.4427  0.1079 -0.7453
 4942TIP3   OH236316   0.851   1.088   1.468  0.0537 -0.0233 -0.0684
 4942TIP3    H136317   0.845   1.175   1.429 -0.8183  0.8297  1.8388
 4942TIP3    H236318   0.836   1.027   1.395 -1.7419  1.4798 -1.0184
 4943TIP3   OH236319   2.533   0.510   6.011  0.0081  0.3326  0.5693
 4943TIP3    H136320   2.566   0.471   6.092 -0.8236 -0.4395  0.5557
 4943TIP3    H236321   2.462   0.452   5.984  0.8058  0.1072 -1.1604
 4944TIP3   OH236322   2.299   1.862   0.294  0.1387 -0.2017  0.0628
 4944TIP3    H136323   2.294   1.811   0.375 -0.1183 -2.9123 -1.5180
 4944TIP3    H236324   2.381   1.833   0.253  0.5598  1.5549 -0.4365
 4945TIP3   OH236325   0.946   0.232  16.391 -0.0053  0.1134 -0.1539
 4945TIP3    H136326   0.870   0.258  16.338  0.7808  0.6553 -1.0581
 4945TIP3    H236327   1.009   0.304  16.379  1.1153 -0.8665 -0.3858
 4946TIP3   OH236328   3.749   3.188   6.381 -0.1192 -0.1965 -0.1776
 4946TIP3    H136329   3.795   3.105   6.369 -0.9321 -0.6082 -0.4660
 4946TIP3    H236330   3.734   3.194   6.475  1.3689  0.4111  0.0544
 4947TIP3   OH236331   5.909   3.313  16.532  0.3542  0.1632 -0.4400
 4947TIP3    H136332   5.842   3.345  16.471  1.3609  0.1455 -1.5756
 4947TIP3    H236333   5.858   3.275  16.605 -0.8837 -0.5050 -1.6019
 4948TIP3   OH236334   1.414   5.704  15.239 -0.1005 -0.9261 -0.3573
 4948TIP3    H136335   1.501   5.712  15.199  1.7389 -0.2979  3.3459
 4948TIP3    H236336   1.366   5.780  15.207  2.2612  1.1852  0.7128
 4949TIP3   OH236337   2.965   0.158  13.231 -0.0041 -0.2371 -0.3312
 4949TIP3    H136338   3.008   0.144  13.147 -0.9773  0.9637 -1.0676
 4949TIP3    H236339   2.913   0.080  13.245  0.5102 -0.6397 -0.6170
 4950TIP3   OH236340   0.630   3.628  10.928  0.1537  0.4318 -0.1840
 4950TIP3    H136341   0.637   3.691  10.856 -0.9187  1.2345  0.3802
 4950TIP3    H236342   0.659   3.545  10.891  3.6663  1.5695 -0.4110
 4951TIP3   OH236343   2.717   6.534   5.104  0.0163 -0.2557 -0.3326
 4951TIP3    H136344   2.692   6.618   5.142  1.3693  1.4454 -2.8701
 4951TIP3    H236345   2.634   6.492   5.082 -0.7079  1.2331 -0.5629
 4952TIP3   OH236346   4.036   5.670  11.591  0.0758 -0.5203 -0.4024
 4952TIP3    H136347   4.127   5.653  11.614  1.2100  2.8290 -1.8742
 4952TIP3    H236348   4.040   5.728  11.516 -3.3755 -2.4574 -2.3347
 4953TIP3   OH236349   1.788   0.932  11.334 -0.4344  0.5365  0.2071
 4953TIP3    H136350   1.868   0.981  11.352 -0.3455  1.1424 -1.5929
 4953TIP3    H236351   1.811   0.840  11.351  0.4154  0.7801  0.4070
 4954TIP3   OH236352   1.243   3.541  12.706 -0.5681  0.2490  0.3027
 4954TIP3    H136353   1.248   3.629  12.669 -2.4923 -0.2124 -1.1992
 4954TIP3    H236354   1.330   3.503  12.690 -0.1852  1.3716 -0.3849
 4955TIP3   OH236355   3.195   5.531   3.789 -0.5294 -0.4759 -0.1291
 4955TIP3    H136356   3.252   5.520   3.713  0.2096 -2.4210  0.6625
 4955TIP3    H236357   3.119   5.578   3.754 -0.5238 -1.9097 -2.2455
 4956TIP3   OH236358   0.967   1.027  13.085 -0.0476 -0.0421 -0.2418
 4956TIP3    H136359   0.898   1.002  13.146  0.2815 -1.2042 -0.3340
 4956TIP3    H236360   0.951   0.973  13.007  0.0468  0.8028 -0.8665
 4957TIP3   OH236361   3.555   3.445  12.835  0.9267  0.0383  0.2127
 4957TIP3    H136362   3.549   3.518  12.775 -0.6394 -0.6393 -0.5158
 4957TIP3    H236363   3.615   3.475  12.904 -1.9563  3.2153  1.6207
 4958TIP3   OH236364   1.347   1.557  15.740 -0.2630 -0.1455  0.3108
 4958TIP3    H136365   1.400   1.479  15.723 -0.3655 -0.4106  1.1582
 4958TIP3    H236366   1.392   1.626  15.692  1.0063 -0.3182  1.1754
 4959TIP3   OH236367   1.734   6.709  16.208  0.0356 -0.3910  0.0825
 4959TIP3    H136368   1.730   6.642  16.140  0.1346 -0.8907  0.5650
 4959TIP3    H236369   1.815   6.756  16.190  0.6653 -1.2675  0.5340
 4960TIP3   OH236370   6.798   4.103  11.241 -0.0809  0.1168  0.0436
 4960TIP3    H136371   6.746   4.044  11.187 -0.1380 -1.3295  1.6011
 4960TIP3    H236372   6.749   4.185  11.242  0.6106  0.7282 -3.1945
 4961TIP3   OH236373   4.820   2.094  16.195  0.9322 -0.1762 -0.1494
 4961TIP3    H136374   4.861   2.036  16.132  2.2618 -0.6730  1.1133
 4961TIP3    H236375   4.890   2.117  16.256  0.4801  2.8153 -0.5955
 4962TIP3   OH236376   3.196   2.084  11.229 -0.4887 -0.0873  0.2413
 4962TIP3    H136377   3.212   2.178  11.243  0.2428  0.1535 -1.8739
 4962TIP3    H236378   3.268   2.056  11.173 -1.4757 -1.6013 -0.3185
 4963TIP3   OH236379   3.669   6.412   1.366 -0.3548  0.0025  0.2178
 4963TIP3    H136380   3.715   6.469   1.303 -0.9315  0.0847 -0.1393
 4963TIP3    H236381   3.716   6.425   1.448  1.1089 -0.9514 -0.4277
 4964TIP3   OH236382   1.790   5.398  15.547  0.1848  0.4220  0.4506
 4964TIP3    H136383   1.790   5.427  15.638 -0.0623 -1.4223  1.0723
 4964TIP3    H236384   1.859   5.332  15.543  0.9743  1.2747 -0.9979
 4965TIP3   OH236385   2.790   4.183   3.694 -0.4131  1.3256  1.0023
 4965TIP3    H136386   2.725   4.221   3.753  0.9798  0.1831  3.4287
 4965TIP3    H236387   2.873   4.192   3.740  0.6100 -0.5596 -0.3073
 4966TIP3   OH236388   0.889   4.626  13.370 -0.1913  0.1846 -0.0243
 4966TIP3    H136389   0.978   4.631  13.334 -0.2736  2.1741 -0.0749
 4966TIP3    H236390   0.880   4.705  13.423 -1.5839 -0.5098  0.8385
 4967TIP3   OH236391   3.043   5.713  15.654 -0.5863 -0.1851  0.0678
 4967TIP3    H136392   3.117   5.763  15.689 -0.5601  0.1279 -0.4306
 4967TIP3    H236393   2.995   5.775  15.600 -2.2097  0.1172  1.7432
 4968TIP3   OH236394   3.618   6.194   4.746 -0.8121  0.1142 -0.2067
 4968TIP3    H136395   3.686   6.253   4.780  0.1555 -1.1219  0.0978
 4968TIP3    H236396   3.584   6.238   4.669  2.3465 -0.4356 -2.1013
 4969TIP3   OH236397   5.951   6.174   3.033  0.3638  0.0872  0.0932
 4969TIP3    H136398   5.916   6.257   3.066 -1.1190 -0.8509  0.9622
 4969TIP3    H236399   5.965   6.121   3.111  1.0279 -0.5863 -0.4768
 4970TIP3   OH236400   0.355   0.532   3.282 -0.3316  0.0477 -0.1560
 4970TIP3    H136401   0.393   0.620   3.281 -2.5326  1.0800 -0.6949
 4970TIP3    H236402   0.347   0.507   3.190  3.2354 -2.2151 -0.0180
 4971TIP3   OH236403   3.563   2.389   0.165  0.1174 -0.2659 -0.1510
 4971TIP3    H136404   3.582   2.353   0.078 -0.2444 -1.6404  0.3104
 4971TIP3    H236405   3.487   2.340   0.195  0.3829  0.0271  1.0348
 4972TIP3   OH236406   4.621   6.360  14.099  0.0090  0.5540 -0.1052
 4972TIP3    H136407   4.694   6.324  14.150 -0.5227 -0.5924 -0.1199
 4972TIP3    H236408   4.551   6.295  14.108 -1.3727  2.0891  0.7067
 4973TIP3   OH236409   1.186   0.255  14.701  0.0332 -0.0162 -0.4441
 4973TIP3    H136410   1.202   0.161  14.709  0.0395  0.1067  1.3810
 4973TIP3    H236411   1.118   0.262  14.634 -1.3440 -1.5010  0.7094
 4974TIP3   OH236412   2.001   5.130  16.714  0.1348  0.0141 -0.4578
 4974TIP3    H136413   1.970   5.220  16.722 -0.9558 -0.2639 -1.2437
 4974TIP3    H236414   1.921   5.079  16.697  0.4886 -1.3532  1.6541
 4975TIP3   OH236415   3.191   5.067   5.171 -0.2852  0.0277  0.1090
 4975TIP3    H136416   3.113   5.097   5.125  0.5475 -0.3394 -1.6310
 4975TIP3    H236417   3.256   5.136   5.157 -0.0402 -0.0357  0.8662
 4976TIP3   OH236418   2.101   0.706  11.518 -0.0888 -0.6664 -0.2864
 4976TIP3    H136419   2.024   0.664  11.556  0.7361 -0.4828  1.7321
 4976TIP3    H236420   2.079   0.799  11.514 -0.9420 -0.9012 -2.3109
 4977TIP3   OH236421   0.853   5.818   6.013  0.1329 -0.1634  0.3505
 4977TIP3    H136422   0.799   5.833   5.935 -1.4288 -1.0823  1.1950
 4977TIP3    H236423   0.853   5.902   6.058 -1.3717 -0.3441  0.7582
 4978TIP3   OH236424   2.356   6.696   1.628  0.0432 -0.3170 -0.4793
 4978TIP3    H136425   2.339   6.695   1.722  4.2012  0.2452  0.4904
 4978TIP3    H236426   2.312   6.774   1.596  1.2873  1.4455  1.7830
 4979TIP3   OH236427   6.435   1.658  16.637 -0.7561  0.5245 -0.2892
 4979TIP3    H136428   6.377   1.725  16.599 -0.0720  1.9187  1.0213
 4979TIP3    H236429   6.523   1.694  16.625 -0.2934 -0.6536 -0.4862
 4980TIP3   OH236430   6.723   4.085   4.985 -0.0080  0.1010 -0.3077
 4980TIP3    H136431   6.713   4.098   5.079  0.7681 -1.7787  0.0753
 4980TIP3    H236432   6.639   4.046   4.957  1.3425 -3.9781  0.6120
 4981TIP3   OH236433   2.848   2.513   1.418 -0.5940 -0.0518  0.1879
 4981TIP3    H136434   2.852   2.465   1.335 -0.8121 -2.2810  1.3984
 4981TIP3    H236435   2.839   2.605   1.392  0.0924 -0.6017 -2.2443
 4982TIP3   OH236436   6.076   2.510  14.179 -0.4470 -0.5147  0.0828
 4982TIP3    H136437   6.027   2.576  14.130  0.8896  1.8643  1.7009
 4982TIP3    H236438   6.031   2.428  14.162 -2.6743  0.9323 -1.4666
 4983TIP3   OH236439   6.518   1.069   4.216 -0.4789  0.0128 -0.0047
 4983TIP3    H136440   6.460   1.030   4.282 -1.6503 -1.0272 -1.5765
 4983TIP3    H236441   6.600   1.021   4.224  0.3025  1.5712  2.3276
 4984TIP3   OH236442   5.963   4.105   2.810 -0.1888  0.1100  0.0473
 4984TIP3    H136443   5.966   4.062   2.725 -0.1892  2.0698 -0.9873
 4984TIP3    H236444   5.870   4.119   2.827 -0.3416 -2.0172  1.3499
 4985TIP3   OH236445   0.253   0.227  14.834  0.7285 -0.4801 -0.2135
 4985TIP3    H136446   0.168   0.257  14.802  0.7621 -0.7740 -0.5828
 4985TIP3    H236447   0.242   0.133  14.848  1.3645 -0.7735 -1.5170
 4986TIP3   OH236448   1.712   2.300   6.113  0.0664  0.5501 -0.3377
 4986TIP3    H136449   1.725   2.290   6.207  0.8395  2.6320 -0.1740
 4986TIP3    H236450   1.782   2.249   6.073 -0.5045 -0.6706  0.1800
 4987TIP3   OH236451   2.798   2.397  15.602 -0.0327  0.0407 -0.3140
 4987TIP3    H136452   2.836   2.485  15.599  0.4749 -0.1709 -0.0789
 4987TIP3    H236453   2.855   2.348  15.661 -0.8759 -0.1839  0.3377
 4988TIP3   OH236454   2.358   3.456  13.745 -0.1083  0.3583  0.0444
 4988TIP3    H136455   2.440   3.441  13.697 -0.4904 -2.4734  0.0927
 4988TIP3    H236456   2.361   3.394  13.818 -2.9355 -1.0465 -0.8778
 4989TIP3   OH236457   4.533   6.519  11.780 -0.0587 -0.0965  0.0424
 4989TIP3    H136458   4.511   6.578  11.852 -2.0587 -0.0980 -0.4869
 4989TIP3    H236459   4.456   6.523  11.722  1.8191  0.5960 -2.5790
 4990TIP3   OH236460   2.642   2.705   1.522 -0.0053  1.1114 -0.0552
 4990TIP3    H136461   2.567   2.653   1.551  0.5700 -0.6096 -1.4167
 4990TIP3    H236462   2.646   2.689   1.427  3.0843 -0.2941  0.2093
 4991TIP3   OH236463   1.630   3.346  15.458 -0.1190  0.0806  0.5334
 4991TIP3    H136464   1.581   3.284  15.512  2.0148 -0.1407  2.3640
 4991TIP3    H236465   1.633   3.306  15.371 -1.9232 -0.5421  0.7188
 4992TIP3   OH236466   6.767   3.248   1.214  0.2743 -0.1096  0.5249
 4992TIP3    H136467   6.772   3.228   1.307  1.5260 -0.6252  0.3709
 4992TIP3    H236468   6.852   3.288   1.194 -0.8751  2.2784  0.0946
 4993TIP3   OH236469   3.395   3.171  16.383 -0.3319  0.2560  0.3699
 4993TIP3    H136470   3.382   3.078  16.364  0.7152  0.2752 -0.5204
 4993TIP3    H236471   3.317   3.213  16.349 -0.9576 -0.3248  1.0518
 4994TIP3   OH236472   2.356   1.350  15.654 -0.2761 -0.4145 -0.1898
 4994TIP3    H136473   2.369   1.308  15.569 -1.1983 -0.9456 -0.0792
 4994TIP3    H236474   2.327   1.279  15.712  0.2589 -0.0451  0.5485
 4995TIP3   OH236475   4.152   6.577  15.033  0.2894  0.0135  0.0133
 4995TIP3    H136476   4.213   6.609  14.966  1.0907  0.3814  0.9098
 4995TIP3    H236477   4.115   6.497  14.995  2.4603 -1.0794  0.0535
 4996TIP3   OH236478   1.894   3.387   6.664 -0.1632 -0.4518 -0.4883
 4996TIP3    H136479   1.866   3.325   6.597  1.6139 -1.4294 -0.3635
 4996TIP3    H236480   1.984   3.408   6.643 -0.6767  2.0592 -0.4532
 4997TIP3   OH236481   5.632   6.235   2.910 -0.1506  0.1242  0.2041
 4997TIP3    H136482   5.580   6.201   2.838  0.7939 -1.8884  0.3956
 4997TIP3    H236483   5.722   6.212   2.888  0.5073  2.0266  0.6862
 4998TIP3   OH236484   4.248   6.578   3.008 -0.4045 -0.0043  0.0823
 4998TIP3    H136485   4.179   6.612   2.951 -1.6068 -0.2615  1.3190
 4998TIP3    H236486   4.252   6.641   3.080 -0.9758 -1.1908  1.1771
 4999TIP3   OH236487   3.250   3.026   4.473  0.6370  0.0664 -0.1595
 4999TIP3    H136488   3.309   3.054   4.542  1.4060  0.8369 -1.0993
 4999TIP3    H236489   3.203   3.105   4.447 -0.2047 -0.3681 -0.0100
 5000TIP3   OH236490   6.353   3.616   0.913  0.1419  0.2665  0.1210
 5000TIP3    H136491   6.388   3.680   0.851  2.5138 -0.8490  0.1764
 5000TIP3    H236492   6.263   3.601   0.884  0.3910  1.6103 -1.5100
 5001TIP3   OH236493   5.514   1.455   2.549 -0.0138  0.4769 -0.1480
 5001TIP3    H136494   5.595   1.505   2.562  0.4277  0.7255 -3.0475
 5001TIP3    H236495   5.537   1.366   2.577  1.4049  0.4785 -1.1607
 5002TIP3   OH236496   5.162   2.730  14.865  0.6879 -0.5669 -0.0423
 5002TIP3    H136497   5.182   2.659  14.926  0.7555 -0.7775 -0.3078
 5002TIP3    H236498   5.110   2.791  14.916  0.7882 -0.7157  0.2428
 5003TIP3   OH236499   3.092   0.244  15.841 -0.6709  0.2300 -0.1924
 5003TIP3    H136500   3.078   0.149  15.842  2.1326 -0.2615  1.1668
 5003TIP3    H236501   3.131   0.262  15.756  0.2446 -0.1120  0.1472
 5004TIP3   OH236502   1.776   6.234  13.338  0.4586  0.5090 -0.3275
 5004TIP3    H136503   1.865   6.270  13.343  1.6189 -2.2232  1.9741
 5004TIP3    H236504   1.790   6.140  13.327 -2.2431  0.1839 -1.6802
 5005TIP3   OH236505   3.575   5.363  14.281  0.5872 -0.5530 -0.6558
 5005TIP3    H136506   3.637   5.423  14.323  0.6371 -0.1590 -1.2747
 5005TIP3    H236507   3.583   5.282  14.331  0.6727 -0.1147  0.0663
 5006TIP3   OH236508   0.256   0.367  17.139 -0.0270  0.4138  0.2432
 5006TIP3    H136509   0.225   0.277  17.135  1.4007 -0.1937  1.8912
 5006TIP3    H236510   0.241   0.401  17.050 -1.4893 -1.0943 -0.1458
 5007TIP3   OH236511   0.557   5.140  13.168  1.0651  0.3251 -0.3422
 5007TIP3    H136512   0.485   5.149  13.231 -1.2153 -1.1565 -2.5244
 5007TIP3    H236513   0.591   5.052  13.184  1.0286  0.2614 -0.6138
 5008TIP3   OH236514   6.552   1.857   0.554 -0.3071  0.4096  0.2495
 5008TIP3    H136515   6.502   1.785   0.592 -0.7793 -1.1729 -3.0828
 5008TIP3    H236516   6.644   1.833   0.568 -0.3636  1.3245  2.7715
 5009TIP3   OH236517   4.096   3.549   3.739  0.0523 -0.3778  0.4219
 5009TIP3    H136518   4.088   3.486   3.668  0.1410  0.1099 -0.0301
 5009TIP3    H236519   4.163   3.513   3.796  3.1450  1.1792 -1.8846
 5010TIP3   OH236520   4.513   2.019   5.404 -0.0620  0.1350 -0.2593
 5010TIP3    H136521   4.605   2.017   5.377  0.0394  0.9642 -0.0050
 5010TIP3    H236522   4.467   1.974   5.333  0.6142 -0.9285 -0.0372
 5011TIP3   OH236523   5.658   6.031   1.108  0.3298 -0.8581 -0.3661
 5011TIP3    H136524   5.701   6.086   1.172 -1.3339  0.7840 -0.5783
 5011TIP3    H236525   5.573   6.010   1.147 -0.7572  0.2558 -1.9899
 5012TIP3   OH236526   4.219   3.209   4.447  0.0483 -0.6767  0.2009
 5012TIP3    H136527   4.282   3.197   4.375  1.4008 -1.8421  1.4980
 5012TIP3    H236528   4.233   3.299   4.476  0.0312 -0.4396 -0.5075
 5013TIP3   OH236529   3.150   1.152  12.022 -0.1637 -0.0125  0.0412
 5013TIP3    H136530   3.163   1.071  11.972  2.6073 -0.6209  1.5351
 5013TIP3    H236531   3.223   1.208  11.997 -1.1932  1.4647  0.1808
 5014TIP3   OH236532   4.620   4.513  14.336 -0.5351 -0.2912  0.4251
 5014TIP3    H136533   4.680   4.485  14.406  0.5061 -1.4691 -0.8757
 5014TIP3    H236534   4.545   4.455  14.343 -0.2713 -0.6434  0.3602
 5015TIP3   OH236535   6.156   3.189  11.004 -0.4979  0.3388 -0.0608
 5015TIP3    H136536   6.166   3.158  10.914 -2.1949  2.2842 -1.0101
 5015TIP3    H236537   6.063   3.177  11.023 -0.2350  0.3251  1.3138
 5016TIP3   OH236538   0.163   4.390  12.716 -0.0402  0.2524  0.2238
 5016TIP3    H136539   0.107   4.418  12.788  0.2827 -1.6606  1.2932
 5016TIP3    H236540   0.251   4.387  12.754  0.3666  0.6211 -0.6619
 5017TIP3   OH236541   6.782   4.493   2.574 -0.3553 -0.7245 -0.7643
 5017TIP3    H136542   6.707   4.539   2.612  0.9149 -1.4241  3.0956
 5017TIP3    H236543   6.823   4.558   2.516 -1.2618  1.3821  0.8028
 5018TIP3   OH236544   4.117   6.249   2.372  0.0957  0.0805  0.1623
 5018TIP3    H136545   4.140   6.321   2.314  0.1759  0.5046  0.7189
 5018TIP3    H236546   4.042   6.281   2.423 -1.1580 -0.9316 -0.9468
 5019TIP3   OH236547   5.717   6.091  16.937  0.1854 -0.5360  0.1318
 5019TIP3    H136548   5.788   6.155  16.928  0.0804 -0.2971  0.9310
 5019TIP3    H236549   5.688   6.074  16.847  0.1404  0.6324 -0.0883
 5020TIP3   OH236550   5.234   5.673   1.445  0.2448 -0.2000 -0.2535
 5020TIP3    H136551   5.202   5.673   1.535 -0.0319  1.8798 -0.3038
 5020TIP3    H236552   5.215   5.585   1.412  1.6769 -1.4927  2.1417
 5021TIP3   OH236553   4.217   1.350  15.695  0.2026 -0.4647 -0.0642
 5021TIP3    H136554   4.235   1.301  15.615  0.5207 -1.7581  0.7616
 5021TIP3    H236555   4.293   1.333  15.751 -0.9092 -1.2563  1.2747
 5022TIP3   OH236556   2.042   0.352  10.874 -0.0536 -0.0541 -0.2304
 5022TIP3    H136557   2.012   0.386  10.790 -0.3745  3.7323  1.2437
 5022TIP3    H236558   2.136   0.367  10.874 -0.0652  0.0147  0.1086
 5023TIP3   OH236559   0.879   0.338  15.792  0.6342 -0.4864 -0.1896
 5023TIP3    H136560   0.944   0.269  15.795  1.5399  0.3571  0.1873
 5023TIP3    H236561   0.916   0.409  15.844  0.3044  0.7625 -1.5814
 5024TIP3   OH236562   5.031   2.333  16.241  0.0346 -0.3325 -0.9219
 5024TIP3    H136563   5.066   2.251  16.276  1.7316  1.0195  0.7995
 5024TIP3    H236564   5.087   2.352  16.166  0.0472 -0.4577 -0.9451
 5025TIP3   OH236565   6.169   0.052   0.062  0.2284 -0.4289 -0.4611
 5025TIP3    H136566   6.196   0.108  -0.011 -1.6346  0.7479 -0.3197
 5025TIP3    H236567   6.201  -0.035   0.038 -0.5758 -0.1536 -2.8575
 5026TIP3   OH236568   5.621   2.528  15.575  0.3986  0.3051  0.3985
 5026TIP3    H136569   5.636   2.574  15.657  1.7726  1.1686 -0.2933
 5026TIP3    H236570   5.599   2.597  15.512  0.5024 -0.2007 -0.2064
 5027TIP3   OH236571   1.886   3.284   5.550  0.2476 -0.0019  0.3606
 5027TIP3    H136572   1.795   3.294   5.580  0.1818  0.9077 -0.0931
 5027TIP3    H236573   1.894   3.348   5.480  1.1445 -0.3299  0.1604
 5028TIP3   OH236574   2.734   4.396   5.174  0.0941  0.4114  0.4877
 5028TIP3    H136575   2.707   4.331   5.109 -0.1609  1.7576 -0.8361
 5028TIP3    H236576   2.692   4.477   5.144  1.4065  1.4523  1.3474
 5029TIP3   OH236577   1.795   5.838  14.209 -1.0728  0.0253  0.0303
 5029TIP3    H136578   1.863   5.771  14.209 -0.5403  0.4921  2.0860
 5029TIP3    H236579   1.834   5.911  14.160  0.2072  0.4930  1.6259
 5030TIP3   OH236580   6.794   2.315   4.527 -0.2956 -0.0573  0.1063
 5030TIP3    H136581   6.867   2.369   4.559 -2.1502  1.5539  1.9566
 5030TIP3    H236582   6.790   2.242   4.589  0.8373 -1.2116 -1.1073
 5031TIP3   OH236583   0.854   2.565  15.852  0.3559 -0.5110 -0.1266
 5031TIP3    H136584   0.831   2.480  15.813  0.7251 -0.9349  0.5422
 5031TIP3    H236585   0.927   2.544  15.911  0.0423  0.1614  0.5123
 5032TIP3   OH236586   3.206   1.087   3.840 -0.8883  0.4587  0.1126
 5032TIP3    H136587   3.170   1.022   3.899  4.0816 -1.5356  1.4747
 5032TIP3    H236588   3.192   1.050   3.752  0.5079 -1.8988  0.7814
 5033TIP3   OH236589   3.751   1.814   3.442 -0.1911  0.1231 -0.1158
 5033TIP3    H136590   3.675   1.845   3.393  1.4782  0.6632 -2.5795
 5033TIP3    H236591   3.821   1.876   3.420  0.9839 -0.3281  2.0655
 5034TIP3   OH236592   3.051   5.886  13.494  0.0848 -0.4148 -0.3132
 5034TIP3    H136593   2.996   5.816  13.530  0.2122 -0.4109 -0.1100
 5034TIP3    H236594   2.994   5.932  13.433 -0.1196 -0.4542 -0.1543
 5035TIP3   OH236595   5.886   1.998  13.438  1.3079 -0.1296 -0.6951
 5035TIP3    H136596   5.903   1.965  13.526 -0.3740  0.4039 -0.1393
 5035TIP3    H236597   5.795   1.976  13.421  0.9452  1.7314 -1.3976
 5036TIP3   OH236598   0.770   1.746  11.900  0.0078 -0.2285 -0.5489
 5036TIP3    H136599   0.688   1.793  11.917 -0.6601 -1.3440 -0.5837
 5036TIP3    H236600   0.800   1.778  11.815  0.3938  1.2504  0.1069
 5037TIP3   OH236601   6.414   1.856  12.893 -0.0514  0.0886 -0.1052
 5037TIP3    H136602   6.390   1.838  12.984  1.3952  0.8776  0.4625
 5037TIP3    H236603   6.434   1.770  12.856  2.3867 -0.0130  1.2648
 5038TIP3   OH236604   0.863   1.493  12.907  0.1150  0.6733 -0.1410
 5038TIP3    H136605   0.917   1.461  12.978  0.5891  0.3876 -0.6235
 5038TIP3    H236606   0.902   1.455  12.828 -1.3512 -0.3250 -0.4213
 5039TIP3   OH236607   5.237   2.809   3.180 -0.0410  0.4108  0.2357
 5039TIP3    H136608   5.290   2.858   3.242  1.5099 -1.1590  0.2121
 5039TIP3    H236609   5.245   2.718   3.207  0.2930 -0.2755 -1.9389
 5040TIP3   OH236610   2.288   2.357   5.263  0.2159 -0.5594  0.2549
 5040TIP3    H136611   2.238   2.347   5.181 -0.7277 -0.3418  0.7852
 5040TIP3    H236612   2.348   2.429   5.246  0.7670 -1.2054 -0.5985
 5041TIP3   OH236613   5.228   1.052  12.233  0.2726  0.0448 -0.1749
 5041TIP3    H136614   5.197   1.111  12.164 -2.1114  0.4635  1.1485
 5041TIP3    H236615   5.282   1.107  12.289  1.2942 -0.0305 -1.0467
 5042TIP3   OH236616   6.198   3.434  15.434  0.0993  0.1717  0.0435
 5042TIP3    H136617   6.128   3.482  15.478 -0.4777 -0.7304  0.1342
 5042TIP3    H236618   6.174   3.435  15.341 -0.3393 -0.5972  0.1354
 5043TIP3   OH236619   0.260   2.040   5.828 -0.0336  0.0734 -0.1082
 5043TIP3    H136620   0.173   2.067   5.799 -0.0837 -0.6981 -0.7024
 5043TIP3    H236621   0.243   1.986   5.906 -0.0051  0.8226  0.4272
 5044TIP3   OH236622   5.014   5.612   3.269 -0.4446  0.2301 -1.0759
 5044TIP3    H136623   4.997   5.670   3.195 -0.9326  1.1847 -0.2430
 5044TIP3    H236624   4.945   5.633   3.332  0.5635  0.1898  0.0803
 5045TIP3   OH236625   0.154   2.045   2.307 -0.3232 -0.4909  0.0713
 5045TIP3    H136626   0.143   2.038   2.212  0.7966 -1.2345 -0.0340
 5045TIP3    H236627   0.134   2.136   2.328  0.5045 -0.0255 -1.0523
 5046TIP3   OH236628   1.234   4.910  12.868 -0.8496  0.1482  0.0300
 5046TIP3    H136629   1.147   4.877  12.844 -0.3816 -0.0157 -1.6025
 5046TIP3    H236630   1.295   4.857  12.816  0.1076  1.4391 -0.2378
 5047TIP3   OH236631   5.665   1.822   0.034  0.3015  0.0706  0.3215
 5047TIP3    H136632   5.649   1.812  -0.060  0.7220 -1.4348  0.3852
 5047TIP3    H236633   5.707   1.908   0.042 -0.6012  0.6439 -0.7334
 5048TIP3   OH236634   6.431   0.890  16.015 -0.2314  0.2014  0.2267
 5048TIP3    H136635   6.341   0.921  16.007  0.0491  1.3323  1.0637
 5048TIP3    H236636   6.438   0.861  16.106  0.3005  0.2927  0.2183
 5049TIP3   OH236637   5.435   6.523   1.841 -0.1375  0.8192 -0.1605
 5049TIP3    H136638   5.369   6.566   1.786 -1.1533  1.5786  1.5513
 5049TIP3    H236639   5.500   6.490   1.780 -0.7327  2.4342 -1.7423
 5050TIP3   OH236640   4.980   0.001   1.482  0.3889  0.2165  0.5431
 5050TIP3    H136641   5.000   0.055   1.405  0.0001 -0.5627 -0.1178
 5050TIP3    H236642   4.945  -0.080   1.446  4.0899 -1.9438  1.2814
 5051TIP3   OH236643   6.671   6.072  11.890 -0.4205  0.2027 -0.3387
 5051TIP3    H136644   6.640   5.982  11.898 -2.3249  0.7820 -0.6322
 5051TIP3    H236645   6.729   6.071  11.814 -0.5630 -0.7421 -0.4414
 5052TIP3   OH236646   0.259   3.645  12.149 -0.2307  0.2896 -0.2320
 5052TIP3    H136647   0.217   3.724  12.181 -2.2251 -0.9703  0.4291
 5052TIP3    H236648   0.353   3.660  12.161 -0.5763  2.4656 -0.0098
 5053TIP3   OH236649   1.257   6.489  15.976  0.1350 -0.0777 -0.0708
 5053TIP3    H136650   1.248   6.549  16.051  3.3807 -0.2118  0.5744
 5053TIP3    H236651   1.313   6.536  15.915  0.6227 -1.4265 -0.7038
 5054TIP3   OH236652   3.013   4.591  10.848 -0.0537 -0.1465  0.1439
 5054TIP3    H136653   3.033   4.668  10.901  0.3643 -0.4549  0.4324
 5054TIP3    H236654   3.028   4.517  10.907  1.5994 -0.5599 -0.7563
 5055TIP3   OH236655   6.627   4.463  15.638  0.0899 -0.3001 -0.3003
 5055TIP3    H136656   6.617   4.421  15.723 -2.6220 -2.0816 -1.3707
 5055TIP3    H236657   6.556   4.526  15.634  2.3475  2.4931  0.0725
 5056TIP3   OH236658   2.592   3.239  15.034  0.3979  0.1166  0.2585
 5056TIP3    H136659   2.629   3.180  15.100 -0.4973  0.1043  0.7641
 5056TIP3    H236660   2.499   3.217  15.033  0.2134  0.9034 -0.2000
 5057TIP3   OH236661   0.347   4.696   1.689 -0.4642  0.1475  0.0748
 5057TIP3    H136662   0.362   4.767   1.752 -0.6627 -1.6761  2.2856
 5057TIP3    H236663   0.432   4.683   1.647 -0.2485  1.1826  0.1443
 5058TIP3   OH236664   0.491   1.937   2.207  0.3214 -0.5577 -0.1528
 5058TIP3    H136665   0.414   1.994   2.212  0.1024 -0.8322 -0.3699
 5058TIP3    H236666   0.565   1.997   2.204  0.1824 -0.3061  1.1430
 5059TIP3   OH236667   2.097   3.561   3.217  0.6365 -0.5383 -0.5390
 5059TIP3    H136668   2.040   3.504   3.268 -1.3303  1.8896  0.2055
 5059TIP3    H236669   2.185   3.537   3.243 -0.2144 -1.3140  1.8720
 5060TIP3   OH236670   0.914   2.863   5.206 -0.1235  0.3044  0.4666
 5060TIP3    H136671   0.902   2.788   5.147  1.2814  0.0886  0.4158
 5060TIP3    H236672   0.961   2.927   5.153  0.5657  0.3694  1.1386
 5061TIP3   OH236673   2.253   3.364   6.116 -0.2596  0.5104  0.1920
 5061TIP3    H136674   2.240   3.277   6.078  0.8633  0.4345 -0.0596
 5061TIP3    H236675   2.172   3.382   6.164  0.0657 -1.3408  1.5342
 5062TIP3   OH236676   6.831   0.913  13.910  0.1773 -0.6941 -0.6959
 5062TIP3    H136677   6.797   0.824  13.900 -0.5041 -0.5135 -0.0963
 5062TIP3    H236678   6.758   0.969  13.885 -0.5373 -0.2753  2.0424
 5063TIP3   OH236679   4.458   1.353  16.751 -0.0364 -0.0339 -0.6527
 5063TIP3    H136680   4.450   1.419  16.820 -1.4506  1.3561 -2.0706
 5063TIP3    H236681   4.510   1.283  16.791 -0.4947  0.8682  1.6882
 5064TIP3   OH236682   2.895   1.843  11.002 -0.2787 -0.0769  0.0520
 5064TIP3    H136683   2.835   1.908  10.965 -0.0362 -0.2350 -0.6397
 5064TIP3    H236684   2.978   1.861  10.958 -0.5118 -1.6698 -1.0958
 5065TIP3   OH236685   5.627   5.115  16.193  0.6934 -0.1983  0.3584
 5065TIP3    H136686   5.592   5.142  16.109  1.1766 -1.0343 -0.1285
 5065TIP3    H236687   5.559   5.137  16.256  0.7932  1.4869 -0.0871
 5066TIP3   OH236688   6.556   3.081   1.633 -0.2214  0.1849 -0.4835
 5066TIP3    H136689   6.547   3.172   1.663 -2.0930  0.4424 -1.6730
 5066TIP3    H236690   6.550   3.029   1.713 -2.9663  0.9660 -0.0598
 5067TIP3   OH236691   6.173   5.939   0.796 -0.3250 -0.3027  0.8349
 5067TIP3    H136692   6.262   5.973   0.806  0.8410 -2.5056 -1.1414
 5067TIP3    H236693   6.147   5.914   0.884  0.5976  1.2215  1.5990
 5068TIP3   OH236694   1.012   4.310   3.024 -0.1374 -0.5650  0.0512
 5068TIP3    H136695   0.960   4.320   3.104  0.9048 -0.0323  0.6897
 5068TIP3    H236696   0.949   4.321   2.953 -0.7839  0.8456  0.7936
 5069TIP3   OH236697   3.949   3.057   2.325 -0.0062 -0.0287 -0.4677
 5069TIP3    H136698   3.925   3.013   2.243 -1.1415  0.2264 -0.2983
 5069TIP3    H236699   3.949   2.988   2.391 -0.1011 -0.0643 -0.5050
 5070TIP3   OH236700   5.253   5.230  13.872 -0.0695  0.1212 -0.1292
 5070TIP3    H136701   5.162   5.202  13.871 -0.0914  0.1887  0.0074
 5070TIP3    H236702   5.286   5.202  13.957 -0.5843  2.0744  0.7696
 5071TIP3   OH236703   2.441   5.018  15.395  0.2486  0.0377  0.0185
 5071TIP3    H136704   2.417   4.969  15.316  2.1960 -0.3548 -0.3754
 5071TIP3    H236705   2.515   4.970  15.431  0.7974  1.4651  0.8549
 5072TIP3   OH236706   2.163   5.970  17.151 -0.1834 -0.1943 -0.3400
 5072TIP3    H136707   2.189   6.058  17.126 -0.7542  0.4332  1.1543
 5072TIP3    H236708   2.222   5.912  17.102  1.5294  1.0622  0.1559
 5073TIP3   OH236709   0.581   1.760   0.211  0.0623 -0.3276 -0.6841
 5073TIP3    H136710   0.583   1.679   0.160  0.6011 -0.8530  0.1433
 5073TIP3    H236711   0.488   1.786   0.212 -0.1041 -0.9018 -1.0117
 5074TIP3   OH236712   4.375   3.285  11.794 -0.5441  0.3069  0.0529
 5074TIP3    H136713   4.441   3.304  11.860 -0.6797  2.6084 -0.4072
 5074TIP3    H236714   4.324   3.365  11.787 -0.9866 -0.1045 -2.3200
 5075TIP3   OH236715   2.830   6.159  12.706 -0.4789  0.4945 -0.2981
 5075TIP3    H136716   2.853   6.176  12.615 -0.6620  0.2853 -0.3823
 5075TIP3    H236717   2.743   6.197  12.717 -0.3735  0.7023 -0.1529
 5076TIP3   OH236718   3.161   6.232  11.302  0.2161 -0.2625  0.3202
 5076TIP3    H136719   3.101   6.267  11.236  0.5581 -0.2199  0.0283
 5076TIP3    H236720   3.111   6.234  11.383 -0.1454 -0.1367  0.0980
 5077TIP3   OH236721   2.216   6.749   5.994 -0.6272  0.6046 -0.1390
 5077TIP3    H136722   2.182   6.703   6.071  1.0322 -1.8225 -0.7434
 5077TIP3    H236723   2.301   6.784   6.023  0.6249 -1.4253 -1.0814
 5078TIP3   OH236724   6.777   3.440  13.329 -0.2359 -0.8853 -0.3349
 5078TIP3    H136725   6.805   3.351  13.351  1.5447 -0.1382  0.7197
 5078TIP3    H236726   6.840   3.497  13.376 -0.9650  0.9130 -1.4219
 5079TIP3   OH236727   5.039   5.950  14.651 -0.0311 -0.1344 -0.2675
 5079TIP3    H136728   5.062   5.918  14.564  1.8717  1.8088 -0.5801
 5079TIP3    H236729   4.977   6.022  14.635  0.8380  0.6716 -0.1069
 5080TIP3   OH236730   1.905   1.668   3.725  0.2536 -0.4286 -0.6085
 5080TIP3    H136731   1.944   1.581   3.713 -0.8293 -0.7747 -1.9111
 5080TIP3    H236732   1.944   1.722   3.657  0.8964  0.1151  0.1750
 5081TIP3   OH236733   6.764   3.738  14.366 -0.3307 -0.5851  0.1074
 5081TIP3    H136734   6.731   3.768  14.282  0.7333  1.7557  0.4530
 5081TIP3    H236735   6.698   3.676  14.397 -1.4590 -0.3939 -1.7645
 5082TIP3   OH236736   0.080   1.009  11.071 -0.3929  0.1940 -0.4933
 5082TIP3    H136737   0.150   1.057  11.028 -1.3171  1.3479 -0.7364
 5082TIP3    H236738   0.035   0.963  11.000 -1.4883  1.5464 -0.7047
 5083TIP3   OH236739   5.668   4.312   2.085  0.6634  0.0037 -0.5380
 5083TIP3    H136740   5.743   4.252   2.076  1.2962  0.7769 -0.4867
 5083TIP3    H236741   5.702   4.386   2.135 -0.5898 -0.3825  0.9765
 5084TIP3   OH236742   5.855   0.080   5.474 -0.4756 -0.4970 -0.0082
 5084TIP3    H136743   5.774   0.105   5.518  0.0980 -0.0099  0.8129
 5084TIP3    H236744   5.894   0.013   5.531  0.0580 -0.1821  0.0061
 5085TIP3   OH236745   2.097   2.058  10.951  0.1032 -0.0450  0.4988
 5085TIP3    H136746   2.184   2.093  10.930 -0.1475  0.5488  0.4407
 5085TIP3    H236747   2.077   1.999  10.878 -0.3065  1.1951 -0.4164
 5086TIP3   OH236748   3.149   2.084   2.055 -0.0614  0.8214  0.6104
 5086TIP3    H136749   3.229   2.076   2.002  0.3752 -0.2027  1.3828
 5086TIP3    H236750   3.157   2.170   2.097  2.2031 -0.4514  3.0591
 5087TIP3   OH236751   1.224   5.407   0.350  0.5753 -0.1267  0.1791
 5087TIP3    H136752   1.174   5.480   0.315  0.0005 -0.1563  0.9098
 5087TIP3    H236753   1.241   5.351   0.274 -0.3932 -0.0482 -0.1110
 5088TIP3   OH236754   5.309   3.393   3.256 -0.1031 -0.3325  0.6087
 5088TIP3    H136755   5.344   3.478   3.280  1.5707 -1.3039  1.8093
 5088TIP3    H236756   5.334   3.382   3.164  1.8447 -0.5040  1.1161
 5089TIP3   OH236757   3.337   0.166  16.425 -0.2946  0.0453  0.0867
 5089TIP3    H136758   3.268   0.225  16.455  0.3307  0.3398  0.9881
 5089TIP3    H236759   3.357   0.195  16.336 -1.0172  0.2354 -0.0162
 5090TIP3   OH236760   2.746   2.959   5.200  0.1054  0.2841 -0.2712
 5090TIP3    H136761   2.657   2.924   5.198  0.5132 -0.7966 -0.1428
 5090TIP3    H236762   2.748   3.024   5.130 -0.5563 -0.2524 -0.7991
 5091TIP3   OH236763   5.144   4.435  15.354 -0.0178 -0.3919 -0.3743
 5091TIP3    H136764   5.070   4.411  15.409 -1.8675 -1.7597 -3.2487
 5091TIP3    H236765   5.109   4.498  15.291  2.1107  1.4245  0.1201
 5092TIP3   OH236766   5.726   2.394  14.826 -0.7454  0.0813  0.6358
 5092TIP3    H136767   5.671   2.458  14.871 -0.8429 -0.0543  0.7094
 5092TIP3    H236768   5.713   2.312  14.874  2.2057  0.7785  2.8727
 5093TIP3   OH236769   0.747   2.607   0.201 -0.3186  0.0833  0.1081
 5093TIP3    H136770   0.822   2.620   0.259  0.3463  0.6479 -0.8413
 5093TIP3    H236771   0.771   2.531   0.148 -0.4744  0.1721 -0.0942
 5094TIP3   OH236772   6.392   2.678  13.725 -0.0703 -0.4097 -0.5799
 5094TIP3    H136773   6.395   2.730  13.806 -1.0305 -1.2907  0.0579
 5094TIP3    H236774   6.337   2.729  13.666 -1.3033 -0.8247  0.1650
 5095TIP3   OH236775   6.101   3.402  16.762 -0.1014 -0.4063 -0.3970
 5095TIP3    H136776   6.064   3.401  16.674  0.4544 -0.0324 -0.6447
 5095TIP3    H236777   6.029   3.430  16.818 -0.7105 -1.5106 -0.5993
 5096TIP3   OH236778   6.333   6.129   3.758 -0.8083 -0.2863 -0.6493
 5096TIP3    H136779   6.296   6.043   3.738 -0.9448 -0.6767  1.1528
 5096TIP3    H236780   6.410   6.110   3.812 -1.2390  0.7361  0.3563
 5097TIP3   OH236781   3.898   3.176   3.579 -0.0239  0.1118 -0.2476
 5097TIP3    H136782   3.896   3.082   3.594  0.2273  0.1915  0.3098
 5097TIP3    H236783   3.991   3.199   3.581 -0.1741  0.7265  2.0519
 5098TIP3   OH236784   1.011   5.293  16.927  0.1438 -0.5390  1.1522
 5098TIP3    H136785   0.993   5.267  17.017 -2.9809  3.0051  1.7903
 5098TIP3    H236786   0.931   5.336  16.898  1.5086 -0.3484 -2.9257
 5099TIP3   OH236787   1.576   2.638   1.715 -0.2065  0.0903 -0.1904
 5099TIP3    H136788   1.583   2.731   1.733 -0.8560 -0.0239  0.6755
 5099TIP3    H236789   1.502   2.630   1.655 -1.0566 -0.0035  0.8568
 5100TIP3   OH236790   3.839   5.615  13.684  0.4727 -0.4847  0.4376
 5100TIP3    H136791   3.832   5.593  13.591 -1.2273  0.0231  0.4243
 5100TIP3    H236792   3.913   5.676  13.689  0.4920 -0.4105 -0.5881
 5101TIP3   OH236793   2.750   4.923   4.300  0.4877  0.1591 -0.0646
 5101TIP3    H136794   2.836   4.960   4.318 -0.5423  2.5090  0.3395
 5101TIP3    H236795   2.688   4.994   4.319 -1.4512 -0.9213 -1.9144
 5102TIP3   OH236796   3.922   4.138   2.569 -0.0989  0.0706  0.3124
 5102TIP3    H136797   3.959   4.055   2.542  2.6998  1.5570 -0.8439
 5102TIP3    H236798   3.937   4.143   2.663  1.7146  0.1528  0.0417
 5103TIP3   OH236799   3.343   5.025  16.762  0.4163  0.2096  0.3169
 5103TIP3    H136800   3.406   5.080  16.809 -0.1691 -0.6978  2.2553
 5103TIP3    H236801   3.376   4.936  16.772 -0.8868 -0.2255  0.9128
 5104TIP3   OH236802   2.758   4.750   3.931 -0.4731  0.3452  0.5994
 5104TIP3    H136803   2.832   4.808   3.948  2.6066 -2.3542 -2.2959
 5104TIP3    H236804   2.797   4.667   3.904 -4.6022 -1.8181  0.3879
 5105TIP3   OH236805   1.789   3.197  11.621 -0.0994 -0.2377 -0.1661
 5105TIP3    H136806   1.768   3.159  11.706 -0.2917 -0.7836 -0.4539
 5105TIP3    H236807   1.830   3.126  11.572  0.3578  0.1810 -0.4018
 5106TIP3   OH236808   0.980   4.077  12.408 -0.1445  0.2012  0.5100
 5106TIP3    H136809   1.075   4.077  12.404 -0.1567 -0.4712 -0.1135
 5106TIP3    H236810   0.955   4.168  12.392  0.3922  0.3477  0.5033
 5107TIP3   OH236811   5.410   5.427  12.251  0.9036  0.6734 -0.0445
 5107TIP3    H136812   5.398   5.338  12.216 -0.4200  1.3563 -1.4590
 5107TIP3    H236813   5.339   5.478  12.211  0.5694  2.0098  2.0780
 5108TIP3   OH236814   2.073   0.624   2.122  0.0575 -0.2100 -0.0342
 5108TIP3    H136815   2.161   0.662   2.129  0.7836 -1.9850  1.2542
 5108TIP3    H236816   2.023   0.689   2.074  2.1118  0.7935 -0.9512
 5109TIP3   OH236817   1.348   5.216  17.028  0.2966  0.5665 -0.1030
 5109TIP3    H136818   1.329   5.131  17.068 -0.4036  0.7475 -0.0391
 5109TIP3    H236819   1.372   5.273  17.101  1.0783  0.3437 -0.1798
 5110TIP3   OH236820   6.595   1.264  11.573  0.4618  0.8021 -0.2249
 5110TIP3    H136821   6.654   1.199  11.611 -0.6830 -0.6158 -0.7914
 5110TIP3    H236822   6.508   1.240  11.605 -0.4076  0.1452 -2.8250
 5111TIP3   OH236823   2.019   5.578   4.934  0.1772 -0.3788 -0.1961
 5111TIP3    H136824   2.040   5.578   4.841  2.3223  0.6771  0.2178
 5111TIP3    H236825   1.988   5.489   4.952  1.6814 -1.2198 -1.5350
 5112TIP3   OH236826   3.693   2.718  16.468 -0.7315 -0.2158 -0.4419
 5112TIP3    H136827   3.718   2.798  16.515 -0.7850  0.8532 -2.1463
 5112TIP3    H236828   3.759   2.654  16.494 -0.0444  0.6929  0.1395
 5113TIP3   OH236829   6.667   5.006  12.519  0.1615 -0.3057 -0.0724
 5113TIP3    H136830   6.747   5.058  12.525  1.0499 -1.7191  1.0439
 5113TIP3    H236831   6.628   5.011  12.607 -0.4107 -0.5094 -0.3072
 5114TIP3   OH236832   2.265   6.640   0.984  0.0700 -0.0676 -0.3093
 5114TIP3    H136833   2.283   6.734   0.990  0.2745 -0.1626  1.0246
 5114TIP3    H236834   2.350   6.599   0.999 -0.1681 -0.4710 -0.0520
 5115TIP3   OH236835   2.161   4.465  11.135  0.1981  0.4419  0.1544
 5115TIP3    H136836   2.103   4.391  11.151 -0.9580  1.6959  2.4266
 5115TIP3    H236837   2.204   4.480  11.220  0.2125  2.4883 -0.1652
 5116TIP3   OH236838   5.367   2.732  16.113 -0.1461 -0.2469  0.5188
 5116TIP3    H136839   5.448   2.743  16.163 -0.3709 -0.3131  0.9099
 5116TIP3    H236840   5.382   2.778  16.031 -0.1723  0.8310  1.0966
 5117TIP3   OH236841   5.673   5.680  14.641  0.2866 -0.3451  0.6391
 5117TIP3    H136842   5.729   5.656  14.715  1.9787  0.8831 -0.1813
 5117TIP3    H236843   5.685   5.774  14.632  0.2916 -0.4967 -1.3087
 5118TIP3   OH236844   4.022   1.896   3.306 -0.3855 -0.0412 -0.2487
 5118TIP3    H136845   4.017   1.812   3.260  1.3461 -0.1123 -0.3857
 5118TIP3    H236846   4.103   1.890   3.357 -0.8789  1.0807  0.7141
 5119TIP3   OH236847   3.207   1.085  16.845 -0.0913 -0.2466 -0.2359
 5119TIP3    H136848   3.177   0.996  16.867  0.6128 -0.1774  1.0912
 5119TIP3    H236849   3.175   1.139  16.917  0.5219  0.3703 -0.4252
 5120TIP3   OH236850   3.980   1.733  15.721  0.0847  0.2309 -0.0066
 5120TIP3    H136851   3.929   1.795  15.773  1.3037  0.7018  0.6745
 5120TIP3    H236852   3.923   1.712  15.647 -1.1912  0.5234  0.8485
 5121TIP3   OH236853   3.692   2.807  12.540  0.1037 -0.4517 -0.1602
 5121TIP3    H136854   3.739   2.772  12.616  0.6414  1.5716  0.4992
 5121TIP3    H236855   3.757   2.859  12.493 -0.6413 -0.3665 -1.1288
 5122TIP3   OH236856   5.237   6.822  15.557  0.4065  0.1624  0.7840
 5122TIP3    H136857   5.285   6.807  15.638  0.9692 -1.5467  0.1988
 5122TIP3    H236858   5.157   6.866  15.583  1.4240  1.3418  2.0276
 5123TIP3   OH236859   6.339   4.881   1.265 -0.3563 -0.7052  0.1953
 5123TIP3    H136860   6.423   4.896   1.221 -1.5050  0.5545 -1.7239
 5123TIP3    H236861   6.347   4.793   1.302  1.7148 -0.7145 -0.1075
 5124TIP3   OH236862   4.889   6.795  12.553  0.4342  0.6339  0.0960
 5124TIP3    H136863   4.878   6.737  12.478 -2.2615  2.2989 -0.9580
 5124TIP3    H236864   4.849   6.747  12.626 -0.7286  0.6373 -0.5058
 5125TIP3   OH236865   6.217   0.735   5.863 -0.0586  0.3573  0.1289
 5125TIP3    H136866   6.296   0.685   5.885 -0.7651 -1.4783 -1.2653
 5125TIP3    H236867   6.164   0.732   5.943  1.1412  1.3904  0.9912
 5126TIP3   OH236868   0.108   6.430   3.466  0.9815 -0.5961 -0.0895
 5126TIP3    H136869   0.186   6.481   3.488 -0.2346  0.1746  2.9465
 5126TIP3    H236870   0.127   6.342   3.498  0.8726 -0.5824  0.0131
 5127TIP3   OH236871   2.391   2.075  10.495 -0.1539 -0.1212  0.2899
 5127TIP3    H136872   2.313   2.063  10.441  0.1874  0.5103 -0.3701
 5127TIP3    H236873   2.418   2.165  10.478  0.1140  0.0005  1.3255
 5128TIP3   OH236874   4.922   2.704   4.897  0.2475  0.7239  0.0702
 5128TIP3    H136875   4.928   2.620   4.943 -3.1435 -0.5927 -1.5229
 5128TIP3    H236876   4.945   2.683   4.807 -2.5097  0.8855 -0.7745
 5129TIP3   OH236877   3.205   4.686  14.754 -0.4632  0.0415  0.6216
 5129TIP3    H136878   3.115   4.710  14.730 -0.1935  0.3881 -0.0689
 5129TIP3    H236879   3.217   4.722  14.842  0.4528  4.0147 -0.8898
 5130TIP3   OH236880   2.337   2.306   0.612  0.0676 -0.5570  0.0922
 5130TIP3    H136881   2.299   2.321   0.525  1.3868 -0.0403 -0.4142
 5130TIP3    H236882   2.342   2.393   0.651  0.3076 -0.6757  0.3266
 5131TIP3   OH236883   1.088   3.999   1.081 -0.5439 -0.0709 -0.3940
 5131TIP3    H136884   1.101   3.908   1.054 -0.4531  0.3109 -1.7270
 5131TIP3    H236885   1.000   4.021   1.051 -0.0278  0.7058 -1.4054
 5132TIP3   OH236886   0.699   2.111   0.138 -0.2936 -0.4966  0.7747
 5132TIP3    H136887   0.679   2.124   0.045 -1.5567 -3.3485  0.5552
 5132TIP3    H236888   0.762   2.039   0.139 -2.3159 -2.3718  2.1450
 5133TIP3   OH236889   3.971   0.250   4.378 -0.0197 -0.1058  0.3491
 5133TIP3    H136890   4.059   0.213   4.382  0.0922 -0.3159 -2.4102
 5133TIP3    H236891   3.983   0.339   4.346 -0.8529 -0.5614 -1.3464
 5134TIP3   OH236892   0.753   1.749   6.347 -0.1580  0.5347  0.2366
 5134TIP3    H136893   0.823   1.776   6.287  0.0115  0.2226  0.2904
 5134TIP3    H236894   0.722   1.665   6.313 -0.0969  0.3804  0.5484
 5135TIP3   OH236895   2.770   1.993  13.696 -0.1718 -0.2955  0.4331
 5135TIP3    H136896   2.852   1.947  13.681 -1.3225 -1.9739 -1.2295
 5135TIP3    H236897   2.753   2.039  13.614 -0.8695  0.0488  0.7637
 5136TIP3   OH236898   4.443   4.095  13.792 -0.6957 -0.2070  0.6164
 5136TIP3    H136899   4.401   4.180  13.802  3.4307  2.0679  0.7887
 5136TIP3    H236900   4.463   4.066  13.881 -0.1575 -0.2106  0.5030
 5137TIP3   OH236901   1.031   2.964   3.486  0.6453  0.2223  0.1869
 5137TIP3    H136902   1.089   2.973   3.561  2.2958 -1.8524 -0.7269
 5137TIP3    H236903   1.084   2.989   3.410  0.0852 -0.8260 -0.5899
 5138TIP3   OH236904   0.025   1.432  15.656 -0.0280 -0.2063  0.3251
 5138TIP3    H136905  -0.007   1.343  15.671 -0.8254  0.1651  0.9157
 5138TIP3    H236906   0.104   1.421  15.602 -1.4235 -1.1223 -1.6422
 5139TIP3   OH236907   5.835   0.796  16.331  0.0489  0.3937 -0.0307
 5139TIP3    H136908   5.891   0.763  16.401  0.1666  2.4600  0.9404
 5139TIP3    H236909   5.748   0.763  16.351  0.1600  0.6225  0.8620
 5140TIP3   OH236910   5.088   6.106  14.283  0.6033 -0.0489  0.1792
 5140TIP3    H136911   5.052   6.018  14.286 -1.0929  0.5130 -1.6699
 5140TIP3    H236912   5.182   6.094  14.277  0.4035 -1.7157  0.0208
 5141TIP3   OH236913   6.402   2.713   4.714  0.2470  0.4549  0.2872
 5141TIP3    H136914   6.470   2.699   4.647 -0.2940 -1.5399  0.0725
 5141TIP3    H236915   6.440   2.777   4.774  1.6768  0.5615 -0.6730
 5142TIP3   OH236916   3.190   4.237  12.530 -0.7343 -0.0343 -0.6977
 5142TIP3    H136917   3.109   4.287  12.543 -1.6656 -1.3621 -1.2535
 5142TIP3    H236918   3.203   4.192  12.613  0.9156  2.1738  0.3451
 5143TIP3   OH236919   4.729   4.859  13.624 -0.2910 -0.4827  0.2554
 5143TIP3    H136920   4.773   4.852  13.709 -1.0979 -0.6405  0.6614
 5143TIP3    H236921   4.718   4.953  13.611  0.4427 -0.4208 -0.0031
 5144TIP3   OH236922   2.568   3.744   3.939 -0.1961 -0.5116  0.0052
 5144TIP3    H136923   2.603   3.827   3.972  0.1884 -1.6123  2.5571
 5144TIP3    H236924   2.551   3.692   4.017 -1.6015 -2.4100 -1.4729
 5145TIP3   OH236925   4.436   1.120   1.324 -0.4214  0.6021 -0.1238
 5145TIP3    H136926   4.384   1.156   1.252 -0.0626  2.0784  0.3209
 5145TIP3    H236927   4.458   1.031   1.296 -3.4067 -0.2274 -0.2205
 5146TIP3   OH236928   6.729   6.585  13.416 -0.0208  0.6195 -0.4024
 5146TIP3    H136929   6.699   6.505  13.459 -0.4396  1.2200  0.4554
 5146TIP3    H236930   6.648   6.629  13.388  0.2096  0.7054 -0.9470
 5147TIP3   OH236931   5.924   1.902  13.730  0.5403 -1.2890  0.4522
 5147TIP3    H136932   5.851   1.886  13.791  0.1732 -0.7323  0.1627
 5147TIP3    H236933   5.992   1.941  13.785  0.0258 -0.3142  0.4261
 5148TIP3   OH236934   5.721   1.693  10.892  0.0357  0.3636  0.0775
 5148TIP3    H136935   5.691   1.712  10.803  2.0858  0.9978 -0.5257
 5148TIP3    H236936   5.796   1.751  10.905  0.3924 -0.4406  1.8541
 5149TIP3   OH236937   1.839   6.736  15.103 -0.4049 -0.5113  0.1840
 5149TIP3    H136938   1.788   6.657  15.121 -0.7105 -1.0008 -2.4195
 5149TIP3    H236939   1.775   6.807  15.102 -0.3695 -0.4598  0.9770
 5150TIP3   OH236940   5.973   4.530   3.926  0.1287 -0.4126 -0.5185
 5150TIP3    H136941   6.010   4.444   3.902  1.2944 -0.0731 -0.0064
 5150TIP3    H236942   5.879   4.514   3.933  0.3250 -1.6681 -0.4126
 5151TIP3   OH236943   2.803   4.604   1.213  0.1379  0.2584 -0.4022
 5151TIP3    H136944   2.787   4.548   1.137 -1.1564  0.2097 -0.1063
 5151TIP3    H236945   2.794   4.694   1.179 -0.1711  0.2412 -0.3682
 5152TIP3   OH236946   0.661   5.894   5.023  0.2729 -0.1379  0.4474
 5152TIP3    H136947   0.635   5.931   4.939  1.3573 -0.5514 -0.0853
 5152TIP3    H236948   0.725   5.957   5.058  0.0389 -0.1104  0.8308
 5153TIP3   OH236949   0.054   2.948   4.714 -0.3606  0.0119  0.1505
 5153TIP3    H136950   0.038   2.964   4.621 -0.7623  0.9746  0.3786
 5153TIP3    H236951   0.148   2.929   4.720 -0.6152 -1.7533 -0.6617
 5154TIP3   OH236952   2.289   6.205  11.635  0.7403  0.1484  0.4510
 5154TIP3    H136953   2.198   6.178  11.642  1.2488 -1.2725  2.1730
 5154TIP3    H236954   2.325   6.193  11.723  3.3232 -2.1363 -0.7622
 5155TIP3   OH236955   0.051   6.309  11.616 -0.2880  0.5622 -0.0509
 5155TIP3    H136956   0.121   6.301  11.550  0.8561  0.7007  1.1089
 5155TIP3    H236957   0.031   6.219  11.641  0.4374  0.5764  0.5914
 5156TIP3   OH236958   1.100   0.346  16.042  0.3289 -0.5980  0.7504
 5156TIP3    H136959   1.185   0.383  16.063  0.3230  0.0356 -0.2713
 5156TIP3    H236960   1.101   0.336  15.946 -1.6862  1.8974  0.3750
 5157TIP3   OH236961   1.079   4.036   0.028 -0.0434  0.1920  0.2413
 5157TIP3    H136962   1.167   4.073   0.015 -0.5006  1.4247  0.4694
 5157TIP3    H236963   1.040   4.093   0.095 -1.7169  0.9110 -1.2955
 5158TIP3   OH236964   4.445   3.206  13.964 -0.1196  0.0301  0.5174
 5158TIP3    H136965   4.453   3.198  14.059  0.1067  1.5507  0.6375
 5158TIP3    H236966   4.462   3.298  13.945  0.7082 -0.4050 -1.0896
 5159TIP3   OH236967   4.057   2.532  12.502 -0.2434  0.0516  0.7265
 5159TIP3    H136968   4.060   2.437  12.492 -0.2894  0.1259 -0.0267
 5159TIP3    H236969   4.021   2.564  12.419 -0.6753  0.6924  1.1514
 5160TIP3   OH236970   2.734   4.037   3.228 -0.1470  0.5770 -0.5883
 5160TIP3    H136971   2.671   4.034   3.157 -0.2326  0.7134 -0.5199
 5160TIP3    H236972   2.801   4.099   3.199 -0.9589  1.7907  0.0754
 5161TIP3   OH236973   0.933   1.228  10.786  0.2652  0.1531 -0.2374
 5161TIP3    H136974   0.950   1.163  10.718  0.6409 -0.0029  0.0006
 5161TIP3    H236975   0.985   1.198  10.861 -0.3001  0.2113  0.1871
 5162TIP3   OH236976   2.744   0.244  15.067  0.1139 -0.1660  0.2616
 5162TIP3    H136977   2.693   0.293  15.003  0.0041 -0.9677 -0.2834
 5162TIP3    H236978   2.802   0.308  15.106  0.4940  0.2608 -0.9631
 5163TIP3   OH236979   3.066   2.294   4.792 -0.1675  0.1823  0.1711
 5163TIP3    H136980   2.998   2.229   4.811 -0.8830  0.8683  0.0211
 5163TIP3    H236981   3.019   2.377   4.789  1.0379  1.0302  2.4605
 5164TIP3   OH236982   4.527   3.073  11.720  0.2480  0.8192  0.2899
 5164TIP3    H136983   4.590   3.107  11.656 -0.8657  0.5782 -0.9639
 5164TIP3    H236984   4.460   3.140  11.727 -1.8833 -0.8647 -2.0854
 5165TIP3   OH236985   4.215   1.743   3.100  0.6291  0.2011 -0.1555
 5165TIP3    H136986   4.286   1.680   3.112 -0.9947 -1.9020 -0.7838
 5165TIP3    H236987   4.148   1.694   3.051 -0.0258  3.0011 -2.2970
 5166TIP3   OH236988   1.263   3.422   6.085 -0.4641  0.2672 -0.1438
 5166TIP3    H136989   1.242   3.478   6.160 -1.2758 -0.9425  0.5552
 5166TIP3    H236990   1.337   3.369   6.115  0.3804  1.0200 -0.8458
 5167TIP3   OH236991   6.305   5.695  12.348 -0.5481 -0.5853 -0.1562
 5167TIP3    H136992   6.300   5.599  12.348  0.6349 -0.6669  0.1098
 5167TIP3    H236993   6.226   5.723  12.302 -1.2714 -1.6641  0.3656
 5168TIP3   OH236994   6.404   1.730   2.383 -1.0571 -0.3177  0.0236
 5168TIP3    H136995   6.375   1.766   2.299  1.1571 -0.5522 -0.9152
 5168TIP3    H236996   6.487   1.686   2.363 -1.2427 -1.7341  2.0583
 5169TIP3   OH236997   5.131   0.617  17.110  0.4303 -0.7128  0.1904
 5169TIP3    H136998   5.126   0.617  17.206  1.3746  1.5671  0.3005
 5169TIP3    H236999   5.040   0.605  17.082 -0.4090  1.8951  1.4659
 5170TIP3   OH237000   2.180   3.317  11.758  0.1919  0.6923  0.4762
 5170TIP3    H137001   2.135   3.358  11.685  1.0130  3.4135  1.4002
 5170TIP3    H237002   2.131   3.344  11.836  0.4917 -0.4958  1.1109
 5171TIP3   OH237003   1.060   4.702   4.092 -0.0739 -0.1365 -0.7549
 5171TIP3    H137004   1.028   4.625   4.045 -5.0863  1.4336 -0.4355
 5171TIP3    H237005   1.073   4.768   4.025 -2.2406  0.5774 -0.5425
 5172TIP3   OH237006   1.502   3.882   4.286 -0.1245 -0.4968 -0.5326
 5172TIP3    H137007   1.590   3.918   4.271 -0.2851  1.3860  2.2665
 5172TIP3    H237008   1.444   3.941   4.238 -0.1753  1.7674  2.0496
 5173TIP3   OH237009   2.694   2.883   0.814 -0.7227  0.2423  0.4700
 5173TIP3    H137010   2.609   2.867   0.854 -0.9745 -0.3101 -0.2762
 5173TIP3    H237011   2.756   2.834   0.869 -1.3314 -2.4617 -1.0870
 5174TIP3   OH237012   2.348   3.049  14.766  0.6819 -0.2973  0.0165
 5174TIP3    H137013   2.425   3.017  14.719 -0.7952 -2.1188 -1.2905
 5174TIP3    H237014   2.278   3.046  14.701 -1.4548 -2.8490  2.2402
 5175TIP3   OH237015   1.547   4.501  14.158 -0.3346  0.0731 -0.2319
 5175TIP3    H137016   1.594   4.490  14.075 -0.3959  0.2014 -0.2857
 5175TIP3    H237017   1.517   4.592  14.156  0.8150  0.4811  0.5436
 5176TIP3   OH237018   1.148   0.329  12.580  0.6595 -0.7806 -0.3205
 5176TIP3    H137019   1.234   0.347  12.542  0.9574 -2.0193 -0.2587
 5176TIP3    H237020   1.086   0.358  12.512  1.0904  0.3694 -0.2578
 5177TIP3   OH237021   6.766   3.852   4.179 -0.6278  0.1244 -0.1156
 5177TIP3    H137022   6.795   3.885   4.263 -0.6273  1.8316 -0.7555
 5177TIP3    H237023   6.726   3.767   4.199  1.6177 -0.7108  1.2460
 5178TIP3   OH237024   6.324   1.830   5.910 -0.6581 -0.1717 -0.5522
 5178TIP3    H137025   6.383   1.783   5.968  0.3917  2.3377  0.5281
 5178TIP3    H237026   6.248   1.850   5.964 -1.0998 -0.5642 -1.0078
 5179TIP3   OH237027   5.011   4.898  16.682  0.1406 -0.1793 -0.7625
 5179TIP3    H137028   4.922   4.876  16.656 -0.2767 -0.2580  0.6556
 5179TIP3    H237029   5.032   4.836  16.751  1.6860 -0.8178 -1.7574
 5180TIP3   OH237030   4.631   1.189  16.870 -0.1009 -0.0983 -0.7937
 5180TIP3    H137031   4.603   1.099  16.887  0.6193 -0.3036 -0.6743
 5180TIP3    H237032   4.699   1.181  16.804  0.2566  0.3257 -0.4793
 5181TIP3   OH237033   1.661   6.652   3.117  0.4054  0.1602 -0.3630
 5181TIP3    H137034   1.598   6.678   3.050  1.3959  0.6036 -1.1449
 5181TIP3    H237035   1.652   6.557   3.122 -0.2611  0.2117 -0.5264
 5182TIP3   OH237036   4.145   1.197   5.061 -0.7187 -0.3058  0.2364
 5182TIP3    H137037   4.233   1.174   5.090 -1.0394 -0.3915  1.1511
 5182TIP3    H237038   4.113   1.118   5.017  0.4607  0.4113 -2.1198
 5183TIP3   OH237039   4.899   6.215  14.903 -0.3739  0.0493 -0.9162
 5183TIP3    H137040   4.961   6.144  14.917 -1.9029 -1.2116 -0.2633
 5183TIP3    H237041   4.903   6.233  14.809 -0.9619 -1.8784 -1.3471
 5184TIP3   OH237042   6.438   6.222  12.250  0.0946  0.0556 -0.2984
 5184TIP3    H137043   6.446   6.127  12.258 -0.5754  0.0754  1.0637
 5184TIP3    H237044   6.507   6.257  12.307  0.4046  0.3855 -0.8757
 5185TIP3   OH237045   1.341   1.504   2.603  0.3196  0.6195  0.1493
 5185TIP3    H137046   1.283   1.445   2.555  1.0375  0.0087  0.0081
 5185TIP3    H237047   1.282   1.564   2.649 -0.5243 -1.3823  1.8551
 5186TIP3   OH237048   6.112   0.096   3.183 -0.7391  0.1539 -0.4347
 5186TIP3    H137049   6.149   0.167   3.130 -0.8031 -0.1505 -0.8909
 5186TIP3    H237050   6.185   0.067   3.237 -0.4535 -0.0638 -0.9264
 5187TIP3   OH237051   0.563   0.923   1.970 -0.2308 -0.3150 -0.5626
 5187TIP3    H137052   0.607   0.996   2.014 -0.0634 -1.0617  0.5631
 5187TIP3    H237053   0.474   0.924   2.006 -0.3216 -0.4614 -0.7805
 5188TIP3   OH237054   6.826   1.982   1.773  0.3838 -0.0193 -0.1673
 5188TIP3    H137055   6.839   1.890   1.795  0.9977  0.1635  0.2586
 5188TIP3    H237056   6.860   1.990   1.684  0.3748 -0.1975 -0.1870
 5189TIP3   OH237057   6.835   6.052  11.137  0.4985  0.8206  0.1317
 5189TIP3    H137058   6.925   6.079  11.121  0.8967 -0.4866  0.0570
 5189TIP3    H237059   6.806   6.015  11.053  0.7668 -1.0922  0.8466
 5190TIP3   OH237060   1.744   0.595   0.961  0.4443  0.3838  0.0159
 5190TIP3    H137061   1.748   0.508   1.001  0.6560 -0.0057 -0.8278
 5190TIP3    H237062   1.684   0.644   1.017 -0.5658 -0.6477 -0.1175
 5191TIP3   OH237063   4.925   3.277  14.765 -0.0695  0.7538 -0.8378
 5191TIP3    H137064   4.843   3.271  14.716 -0.9306 -2.9427  0.7000
 5191TIP3    H237065   4.977   3.202  14.735  1.0363  0.7054  1.0143
 5192TIP3   OH237066   3.921   5.445  12.849  0.1265  0.5683 -1.4005
 5192TIP3    H137067   3.875   5.362  12.844 -0.0175  0.5394 -0.0478
 5192TIP3    H237068   3.857   5.510  12.820 -0.7072  0.4952  0.1745
 5193TIP3   OH237069   4.833   2.266   3.110 -0.7301  0.1753 -0.1099
 5193TIP3    H137070   4.770   2.263   3.182  0.0288  1.3357  0.6422
 5193TIP3    H237071   4.883   2.185   3.118 -0.7647  0.2153  0.5731
 5194TIP3   OH237072   3.540   3.243  12.166 -0.1618 -0.6764 -0.2767
 5194TIP3    H137073   3.482   3.228  12.240 -0.5010 -1.3301 -0.6643
 5194TIP3    H237074   3.625   3.210  12.195  0.2319  0.9915  0.5739
 5195TIP3   OH237075   1.297   4.159   0.462  0.2910 -0.1263  0.7061
 5195TIP3    H137076   1.219   4.116   0.497  0.3972 -0.3717  0.6457
 5195TIP3    H237077   1.266   4.202   0.382 -0.0475  0.8098  1.3335
 5196TIP3   OH237078   3.072   1.198  13.994 -0.0721  0.2043  0.0212
 5196TIP3    H137079   3.104   1.258  14.060  0.8303 -0.3504  0.1096
 5196TIP3    H237080   3.142   1.133  13.985 -0.6766 -0.3731 -0.6431
 5197TIP3   OH237081   1.949   2.680  12.203  0.1447  0.0259  0.0384
 5197TIP3    H137082   1.919   2.766  12.176 -1.3828 -1.0549 -2.0097
 5197TIP3    H237083   2.027   2.697  12.256 -1.1862  2.7053  1.3345
 5198TIP3   OH237084   4.999   2.494   1.862  0.2487  0.1808 -0.5135
 5198TIP3    H137085   5.007   2.515   1.955  2.1091 -1.0924 -0.3238
 5198TIP3    H237086   4.934   2.555   1.829  0.4509  1.4987  1.3644
 5199TIP3   OH237087   3.870   6.056   4.626  0.1278  0.3450  0.3832
 5199TIP3    H137088   3.955   6.030   4.589 -0.5293  0.9144 -1.6925
 5199TIP3    H237089   3.842   6.129   4.571 -1.0024  1.2152  2.0454
 5200TIP3   OH237090   4.626   4.784   2.300 -0.1992  0.4097  0.0683
 5200TIP3    H137091   4.710   4.828   2.311  0.2057 -0.2959 -0.1098
 5200TIP3    H237092   4.617   4.730   2.378  0.1722 -0.5572 -0.5384
 5201TIP3   OH237093   3.130   4.716   4.609 -0.4221  0.3438 -0.1393
 5201TIP3    H137094   3.035   4.721   4.601 -0.7401 -0.9510  2.1155
 5201TIP3    H237095   3.149   4.742   4.699  1.3723  0.6687 -0.5682
 5202TIP3   OH237096   6.787   5.264   1.558  0.0406  0.2064  0.2828
 5202TIP3    H137097   6.701   5.285   1.524  0.2704 -0.9522 -1.1367
 5202TIP3    H237098   6.820   5.195   1.499  2.3749  1.3667  0.1174
 5203TIP3   OH237099   0.160   3.075   2.413 -0.4717 -0.2541 -0.0574
 5203TIP3    H137100   0.161   3.011   2.484 -0.6132 -2.6142 -1.9983
 5203TIP3    H237101   0.106   3.033   2.345  1.2814  0.9402 -2.3034
 5204TIP3   OH237102   2.487   4.710   5.420  0.7583 -0.2185 -0.0621
 5204TIP3    H137103   2.465   4.677   5.333  0.8381  1.9943 -0.9883
 5204TIP3    H237104   2.582   4.710   5.422  0.7856  0.9616 -0.5225
 5205TIP3   OH237105   3.978   4.061  13.909  0.9213 -0.2062  0.0336
 5205TIP3    H137106   3.962   3.968  13.898  1.2486 -0.7298  2.9821
 5205TIP3    H237107   3.904   4.092  13.962  1.9346  0.6886  0.9802
 5206TIP3   OH237108   3.896   5.628   2.850 -0.4607  0.1730  0.0499
 5206TIP3    H137109   3.865   5.711   2.886 -0.1136 -0.6058  2.2737
 5206TIP3    H237110   3.989   5.626   2.872 -0.0720 -0.0737 -1.5118
 5207TIP3   OH237111   1.172   6.742  12.178  0.0512  0.8200  0.7371
 5207TIP3    H137112   1.251   6.720  12.128 -0.7157 -0.4038  0.0037
 5207TIP3    H237113   1.190   6.707  12.265  0.1901  0.2099  0.4759
 5208TIP3   OH237114   4.681   2.622  12.676 -0.0892  0.1355  0.3191
 5208TIP3    H137115   4.687   2.582  12.762 -0.3022 -0.7854 -0.0878
 5208TIP3    H237116   4.671   2.549  12.615 -0.5659  0.8040 -0.4321
 5209TIP3   OH237117   3.972   4.023  12.816  0.6485 -0.1905 -0.8130
 5209TIP3    H137118   4.067   4.012  12.810  0.5630 -1.8204  0.1679
 5209TIP3    H237119   3.938   3.935  12.803 -0.6986  0.2685 -0.4959
 5210TIP3   OH237120   2.951   1.639   1.950 -0.2775  0.6061  0.1577
 5210TIP3    H137121   2.953   1.733   1.933 -1.0603  0.6487  0.2328
 5210TIP3    H237122   3.026   1.623   2.006  0.5122  0.9934 -0.7579
 5211TIP3   OH237123   1.786   4.538   1.400  0.3822  0.1534 -0.0460
 5211TIP3    H137124   1.792   4.541   1.304 -1.8937 -0.2034 -0.2440
 5211TIP3    H237125   1.744   4.454   1.418 -2.6652  1.7693  0.9855
 5212TIP3   OH237126   1.151   0.736   3.346 -0.1429  0.0734 -0.0745
 5212TIP3    H137127   1.186   0.826   3.343 -1.2851  0.5179 -0.4363
 5212TIP3    H237128   1.211   0.686   3.290  1.1811  0.3413  1.0438
 5213TIP3   OH237129   0.122   0.772   1.076 -0.6406 -0.1580  0.1571
 5213TIP3    H137130   0.099   0.788   0.985 -0.5287  3.0362  0.5695
 5213TIP3    H237131   0.208   0.730   1.072  0.3218  1.8156 -1.2399
 5214TIP3   OH237132   2.243   4.631  15.118  0.5648 -0.3126 -0.0878
 5214TIP3    H137133   2.181   4.561  15.136 -0.9867  0.8876 -0.5895
 5214TIP3    H237134   2.238   4.645  15.024  0.0109  1.2042  0.1409
 5215TIP3   OH237135   5.571   3.885   4.836  0.5926 -0.5827  0.0483
 5215TIP3    H137136   5.591   3.960   4.779 -1.4933  0.2910  0.3705
 5215TIP3    H237137   5.638   3.889   4.904  0.2036  1.3613  0.3751
 5216TIP3   OH237138   4.475   4.299  13.135 -0.1736  0.4325 -0.7232
 5216TIP3    H137139   4.441   4.337  13.216 -1.7237  0.9176 -1.5647
 5216TIP3    H237140   4.483   4.373  13.076 -0.3889 -0.1090 -1.4443
 5217TIP3   OH237141   3.773   1.092  11.918 -0.0833 -0.9394  0.4953
 5217TIP3    H137142   3.755   1.000  11.899  0.7321 -0.9671 -0.2295
 5217TIP3    H237143   3.862   1.092  11.955  0.5328 -0.3242 -0.8900
 5218TIP3   OH237144   3.055   1.631   1.592  0.6028  0.0372  0.6647
 5218TIP3    H137145   3.135   1.615   1.642  0.7375 -1.9174 -0.0813
 5218TIP3    H237146   3.078   1.701   1.531  1.7028 -0.3957  0.5705
 5219TIP3   OH237147   6.638   3.449   3.886  0.3851  0.4401 -0.1365
 5219TIP3    H137148   6.659   3.526   3.834  0.8276  2.3160  2.5863
 5219TIP3    H237149   6.569   3.478   3.946 -0.2546 -1.6426  0.2395
 5220TIP3   OH237150   1.268   4.509   1.000 -0.3420 -0.0080 -0.0794
 5220TIP3    H137151   1.276   4.492   0.906 -1.5570  0.3380 -0.2614
 5220TIP3    H237152   1.271   4.422   1.040  1.1180 -0.0986 -0.3424
 5221TIP3   OH237153   5.649   0.951   3.580  0.6615 -0.3005  0.3631
 5221TIP3    H137154   5.700   0.871   3.573  0.6910 -0.2652  0.1610
 5221TIP3    H237155   5.625   0.956   3.672 -0.9710 -1.5546  0.0493
 5222TIP3   OH237156   2.114   0.454   1.387 -1.0635 -1.0566  0.1650
 5222TIP3    H137157   2.105   0.540   1.347  1.8920 -0.9394 -0.4616
 5222TIP3    H237158   2.073   0.394   1.325  1.5886 -0.6237 -2.2328
 5223TIP3   OH237159   4.176   3.059   3.391 -0.2374  0.0387  0.4919
 5223TIP3    H137160   4.164   3.078   3.298 -0.4502 -2.1264  0.0314
 5223TIP3    H237161   4.265   3.025   3.399  0.1686  1.2164  1.2883
 5224TIP3   OH237162   2.690   3.756   2.418 -0.1919  0.5599  0.3574
 5224TIP3    H137163   2.737   3.714   2.490  1.8552  1.6773 -0.2293
 5224TIP3    H237164   2.601   3.720   2.422  1.0423 -2.8559  0.6174
 5225TIP3   OH237165   6.316   3.151  13.154 -0.1205  0.0970 -0.5523
 5225TIP3    H137166   6.239   3.101  13.182  0.3269 -0.4950 -0.3527
 5225TIP3    H237167   6.337   3.207  13.228  1.6689 -2.1812  0.8078
 5226TIP3   OH237168   2.303   6.122   1.581 -0.0684 -0.7517  0.1524
 5226TIP3    H137169   2.387   6.113   1.625  0.8106 -0.7413 -1.4335
 5226TIP3    H237170   2.276   6.212   1.598  2.4317  0.7628 -2.8234
 5227TIP3   OH237171   3.255   2.225   3.506  0.5803 -0.3553  0.4708
 5227TIP3    H137172   3.208   2.288   3.452  1.3679  0.4948  0.7520
 5227TIP3    H237173   3.238   2.141   3.465 -1.2031 -0.0968  0.5774
 5228TIP3   OH237174   3.760   3.699   0.582  0.1070 -0.3665 -0.2228
 5228TIP3    H137175   3.769   3.607   0.605  1.8626 -0.8336 -2.3929
 5228TIP3    H237176   3.818   3.745   0.642  0.8542 -0.9490 -0.4850
 5229TIP3   OH237177   6.607   0.537  11.579 -0.3913  0.1276  0.1898
 5229TIP3    H137178   6.674   0.516  11.644  0.2502  0.4658 -0.3513
 5229TIP3    H237179   6.584   0.452  11.540 -0.9267 -0.1021  0.9891
 5230TIP3   OH237180   3.088   2.574  12.417 -0.1803 -0.1504  0.1966
 5230TIP3    H137181   3.104   2.638  12.348  2.4118  0.0144  0.8420
 5230TIP3    H237182   3.161   2.513  12.411 -1.1894 -1.5354  1.2868
 5231TIP3   OH237183   6.049   3.364   4.160 -0.1434 -0.4877  0.1666
 5231TIP3    H137184   6.038   3.359   4.255  2.1536 -1.2220  0.4540
 5231TIP3    H237185   6.031   3.275   4.129 -2.2740  0.0677 -0.3037
 5232TIP3   OH237186   2.392   0.192  10.612 -0.2180  0.1341 -0.1947
 5232TIP3    H137187   2.403   0.110  10.660 -0.9430  0.4038  0.4588
 5232TIP3    H237188   2.434   0.259  10.667  1.5151  0.0460 -1.3287
 5233TIP3   OH237189   6.086   2.783  10.896 -0.3045  0.4887 -0.1260
 5233TIP3    H137190   6.105   2.772  10.803  0.1671  3.1658 -0.4305
 5233TIP3    H237191   6.172   2.788  10.939 -0.5007  0.2697  0.3018
 5234TIP3   OH237192   0.604   4.556  15.192  0.1904 -0.0367  0.4559
 5234TIP3    H137193   0.570   4.508  15.116  0.4939  1.2609 -0.5403
 5234TIP3    H237194   0.526   4.585  15.240 -0.0300  0.0313  0.0597
 5235TIP3   OH237195   6.319   6.636   5.858  0.1865 -0.1335  0.3611
 5235TIP3    H137196   6.357   6.624   5.944  2.2412  1.1694 -0.2800
 5235TIP3    H237197   6.228   6.661   5.875  0.1601 -1.2705  2.0609
 5236TIP3   OH237198   6.701   2.801   3.280 -1.0302  0.0757  0.2381
 5236TIP3    H137199   6.778   2.745   3.285 -1.3026 -0.3221  0.0758
 5236TIP3    H237200   6.638   2.750   3.228 -1.4283  0.3616  0.4347
 5237TIP3   OH237201   6.185   3.174   5.323  0.1841  0.2012 -0.0016
 5237TIP3    H137202   6.154   3.123   5.248 -0.4656  1.7168 -0.7861
 5237TIP3    H237203   6.279   3.153   5.328  0.0820 -0.4945 -0.7736
 5238TIP3   OH237204   1.996   1.727   2.130  0.2976 -0.2248 -0.1216
 5238TIP3    H137205   2.015   1.733   2.036  1.9983  1.2159  0.2398
 5238TIP3    H237206   1.901   1.735   2.136  0.3073  2.5598 -1.6170
 5239TIP3   OH237207   4.778   4.926   5.463  0.0393 -0.2816 -0.0495
 5239TIP3    H137208   4.790   4.966   5.549 -0.1496 -0.3565  0.0119
 5239TIP3    H237209   4.815   4.838   5.471  1.6855  0.3185 -0.5663
 5240TIP3   OH237210   6.127   5.390   5.911 -0.0229  0.5223 -0.0658
 5240TIP3    H137211   6.117   5.356   6.000 -0.6570 -0.1269 -0.3785
 5240TIP3    H237212   6.065   5.462   5.906 -2.5990 -1.5992 -1.0398
 5241TIP3   OH237213   5.250   3.158  16.613 -0.1387  0.3835  0.0547
 5241TIP3    H137214   5.194   3.184  16.686  0.6506  1.4550  0.3115
 5241TIP3    H237215   5.306   3.089  16.649 -1.7382 -1.2271 -0.4122
 5242TIP3   OH237216   1.495   5.547  16.897 -0.5633  0.1662  0.0479
 5242TIP3    H137217   1.536   5.625  16.859 -2.5385  1.0657 -0.3346
 5242TIP3    H237218   1.568   5.488  16.914  1.0182  2.1132  0.4061
 5243TIP3   OH237219   6.547   3.022  15.423 -0.3355  0.2575 -0.7973
 5243TIP3    H137220   6.602   3.095  15.393  0.4054 -0.0016 -0.0854
 5243TIP3    H237221   6.462   3.062  15.440  0.8021  1.6334  2.4445
 5244TIP3   OH237222   0.728   5.973  15.914 -0.4542  0.3306  0.2216
 5244TIP3    H137223   0.771   5.910  15.971  1.8504 -0.3967 -2.1488
 5244TIP3    H237224   0.639   5.981  15.950 -0.2195 -2.7125  1.7993
 5245TIP3   OH237225   4.622   1.753  12.619 -0.0728  0.0774  0.2466
 5245TIP3    H137226   4.614   1.845  12.643  0.5531  0.7767 -1.9979
 5245TIP3    H237227   4.628   1.707  12.703 -2.0548  1.8701  1.4968
 5246TIP3   OH237228   6.290   1.585  17.059 -0.3185 -0.4772  0.2557
 5246TIP3    H137229   6.301   1.530  17.137 -1.3444 -0.4092  0.4600
 5246TIP3    H237230   6.211   1.635  17.076 -0.7789 -0.7486 -1.0004
 5247TIP3   OH237231   4.063   3.981   0.786  0.4621  0.1983 -0.6220
 5247TIP3    H137232   4.098   4.059   0.742  0.5462  1.0161  0.8283
 5247TIP3    H237233   4.131   3.915   0.776  2.1489  1.5055  1.4276
 5248TIP3   OH237234   5.543   5.767  16.675 -0.3355  0.1164  0.2887
 5248TIP3    H137235   5.617   5.772  16.615 -0.4450  0.1240  0.1508
 5248TIP3    H237236   5.574   5.713  16.748 -0.0528  0.4969  0.4497
 5249TIP3   OH237237   1.374   3.601  13.494  0.3065  0.4147  0.6412
 5249TIP3    H137238   1.421   3.528  13.535 -0.1523  0.4860  1.3071
 5249TIP3    H237239   1.313   3.559  13.433  2.1838  0.3565 -1.3458
 5250TIP3   OH237240   1.989   0.623   0.032 -0.4277 -0.8306 -0.1748
 5250TIP3    H137241   2.020   0.569   0.105  1.1643  0.4105  0.1330
 5250TIP3    H237242   2.058   0.615  -0.034  0.6577  1.9629  0.4912
 5251TIP3   OH237243   2.225   2.724   4.467 -0.0183 -0.1459 -0.3542
 5251TIP3    H137244   2.151   2.715   4.527  1.6018  0.0836  1.7901
 5251TIP3    H237245   2.227   2.817   4.445  1.2486  0.4176  1.8724
 5252TIP3   OH237246   1.641   1.110  11.477 -0.2132 -0.7098  0.5397
 5252TIP3    H137247   1.661   1.040  11.415 -0.7366 -1.1999  0.9142
 5252TIP3    H237248   1.690   1.087  11.556  2.0769  0.9608 -0.2914
 5253TIP3   OH237249   0.488   2.348   3.933 -0.0433 -0.1633 -0.2426
 5253TIP3    H137250   0.573   2.350   3.889  0.4095 -1.9584  0.4610
 5253TIP3    H237251   0.428   2.311   3.868 -0.1429  0.4651 -0.5112
 5254TIP3   OH237252   0.550   0.811   1.714 -0.0169 -0.0616  0.0248
 5254TIP3    H137253   0.578   0.875   1.649 -0.2135  0.1128  0.1104
 5254TIP3    H237254   0.574   0.849   1.798  1.5908 -0.9429  0.0110
 5255TIP3   OH237255   5.602   2.541  13.823  0.3663 -0.1373 -0.3677
 5255TIP3    H137256   5.630   2.632  13.834  0.5985 -0.0765 -1.3539
 5255TIP3    H237257   5.548   2.543  13.744 -1.5764 -0.4384  0.8819
 5256TIP3   OH237258   5.816   0.927  13.689 -0.3663  0.7462 -0.4834
 5256TIP3    H137259   5.859   0.935  13.774  1.1054  0.1199 -1.1192
 5256TIP3    H237260   5.723   0.938  13.707 -0.0268  1.2799  1.1005
 5257TIP3   OH237261   3.207   0.222   0.483  0.6724 -0.4137  0.2431
 5257TIP3    H137262   3.128   0.237   0.431  1.0788  0.2551 -0.2066
 5257TIP3    H237263   3.267   0.176   0.424  0.6762 -0.7735  0.5278
 5258TIP3   OH237264   3.349   5.801   3.563 -0.3340  0.2574  0.1500
 5258TIP3    H137265   3.441   5.815   3.583 -0.4734 -0.0593  1.0347
 5258TIP3    H237266   3.348   5.720   3.512 -0.1672 -0.0189  0.5772
 5259TIP3   OH237267   4.664   1.232   4.083 -0.2371  0.1633 -0.5554
 5259TIP3    H137268   4.743   1.219   4.135 -0.4306  0.2500 -0.2326
 5259TIP3    H237269   4.649   1.147   4.040  0.3554  0.3215 -1.0829
 5260TIP3   OH237270   4.608   6.030  12.162 -0.1901 -0.3622  1.0010
 5260TIP3    H137271   4.579   6.121  12.163 -1.8052 -0.7947 -0.7568
 5260TIP3    H237272   4.703   6.035  12.154 -0.2518  1.1666  1.0064
 5261TIP3   OH237273   5.239   1.433  13.616  0.5774 -0.2023  0.4033
 5261TIP3    H137274   5.276   1.434  13.704  0.7865 -1.4129  0.3418
 5261TIP3    H237275   5.155   1.478  13.626  1.4928  1.4921  0.7832
 5262TIP3   OH237276   3.304   3.998  17.084  0.0465  0.2874 -0.0979
 5262TIP3    H137277   3.398   4.014  17.092  0.2653 -0.9302 -0.0149
 5262TIP3    H237278   3.288   3.999  16.989 -0.5035  3.7527 -0.0779
 5263TIP3   OH237279   4.700   3.593   1.212 -0.1564 -0.0796  0.2927
 5263TIP3    H137280   4.777   3.614   1.158 -0.2345  1.0514  0.5997
 5263TIP3    H237281   4.709   3.500   1.231  1.7840  0.2836  1.3417
 5264TIP3   OH237282   4.912   2.241  12.390 -0.3136 -0.2346  0.0092
 5264TIP3    H137283   4.861   2.169  12.427  2.2242 -2.2919 -0.1763
 5264TIP3    H237284   4.901   2.232  12.295 -0.5531  0.0640  0.0083
 5265TIP3   OH237285   1.985   0.496   3.477 -0.3611  0.0948 -0.0612
 5265TIP3    H137286   1.996   0.474   3.570 -0.2659 -0.2927 -0.1638
 5265TIP3    H237287   2.025   0.423   3.430  1.8194  1.4246 -0.4090
 5266TIP3   OH237288   0.566   2.739   5.015  0.1945  0.2899 -0.6874
 5266TIP3    H137289   0.636   2.702   5.069  1.1355  1.7993 -0.8315
 5266TIP3    H237290   0.488   2.732   5.070  0.9411  0.9077  0.5012
 5267TIP3   OH237291   0.447   6.184  14.952 -0.3705 -0.7921 -0.1623
 5267TIP3    H137292   0.361   6.223  14.940  0.3867  1.7609  1.7208
 5267TIP3    H237293   0.491   6.197  14.868 -0.4624  1.8965  0.1019
 5268TIP3   OH237294   1.366   0.649  15.242  0.6753  0.3360  0.4676
 5268TIP3    H137295   1.338   0.572  15.291 -1.5745  1.4054  1.0047
 5268TIP3    H237296   1.417   0.700  15.304 -0.4173  0.6941  1.1000
 5269TIP3   OH237297   0.463   2.423   5.984 -0.0758  0.1436  0.4426
 5269TIP3    H137298   0.457   2.517   5.999  0.9659  0.2124  0.4601
 5269TIP3    H237299   0.425   2.410   5.897  0.1379  0.6292  0.2751
 5270TIP3   OH237300   3.590   3.332  13.129 -0.1730  0.2728  0.2810
 5270TIP3    H137301   3.646   3.403  13.097  1.8507 -0.8989  1.0385
 5270TIP3    H237302   3.651   3.269  13.167 -1.8442 -2.0150 -0.5827
 5271TIP3   OH237303   1.994   4.704   2.674 -0.4902  0.0257 -0.1182
 5271TIP3    H137304   1.984   4.697   2.579 -1.0148 -1.1376  0.0036
 5271TIP3    H237305   2.086   4.681   2.690 -0.6514 -0.7434 -0.2657
 5272TIP3   OH237306   6.248   1.087   2.177  0.0089  0.4376 -0.4864
 5272TIP3    H137307   6.211   1.004   2.148 -2.0177  1.3379 -0.6249
 5272TIP3    H237308   6.253   1.079   2.272  1.7033 -0.5374 -0.6131
 5273TIP3   OH237309   3.613   3.240   5.597  0.4765 -0.3906  0.0730
 5273TIP3    H137310   3.705   3.228   5.572  1.1751  0.7453  1.8767
 5273TIP3    H237311   3.568   3.166   5.557  2.2889 -1.3719 -0.3043
 5274TIP3   OH237312   1.736   6.531   4.322  0.4330  0.5394  0.1606
 5274TIP3    H137313   1.684   6.611   4.334  0.4633  0.8214 -1.4368
 5274TIP3    H237314   1.806   6.556   4.262  0.4656 -0.6783 -0.3414
 5275TIP3   OH237315   5.225   6.474   2.810  0.3164  0.5613  0.0957
 5275TIP3    H137316   5.290   6.468   2.879  0.0357 -0.4264  0.2980
 5275TIP3    H237317   5.189   6.385   2.803 -1.2313  1.1469  0.2126
 5276TIP3   OH237318   6.102   4.535  12.462  0.1302 -0.0051  0.7886
 5276TIP3    H137319   6.106   4.631  12.468  1.3474 -0.0783  1.8240
 5276TIP3    H237320   6.170   4.505  12.523 -0.8801 -1.5520  1.2057
 5277TIP3   OH237321   1.255   6.469  11.988 -0.0851 -0.3306 -0.2334
 5277TIP3    H137322   1.337   6.446  12.031 -0.4192 -1.8054 -0.3125
 5277TIP3    H237323   1.188   6.421  12.037 -0.7637 -0.0299 -0.8474
 5278TIP3   OH237324   2.954   4.044  14.710 -0.0871 -0.1872  0.4744
 5278TIP3    H137325   2.880   4.035  14.769  0.9031  0.1493  1.8200
 5278TIP3    H237326   2.952   3.965  14.656 -1.4637 -0.1286  0.4038
 5279TIP3   OH237327   3.566   4.494   0.906  0.3187 -0.3234  0.0818
 5279TIP3    H137328   3.518   4.437   0.847 -0.7019 -0.6722  1.2188
 5279TIP3    H237329   3.561   4.581   0.865 -0.5179 -0.5245 -0.2496
 5280TIP3   OH237330   5.912   5.688   3.838  0.0809  0.0916 -0.2907
 5280TIP3    H137331   5.901   5.602   3.796 -0.1032  0.4522 -0.9904
 5280TIP3    H237332   5.974   5.672   3.909  2.2296 -0.0998 -2.1091
 5281TIP3   OH237333   3.135   5.245  12.864 -0.6908 -0.6092  0.1839
 5281TIP3    H137334   3.104   5.164  12.822  0.3255 -1.1002  0.3438
 5281TIP3    H237335   3.180   5.215  12.943  0.9080 -0.0137 -0.4640
 5282TIP3   OH237336   0.222   4.146  14.731  0.3231 -0.0596 -0.2021
 5282TIP3    H137337   0.208   4.231  14.774  0.3427  0.3757 -1.0427
 5282TIP3    H237338   0.187   4.158  14.642 -0.0315 -1.0536 -0.2106
 5283TIP3   OH237339   1.954   4.167   2.518 -1.0009  0.0417 -0.0932
 5283TIP3    H137340   1.910   4.182   2.602  1.7722 -1.2492  1.7056
 5283TIP3    H237341   2.029   4.226   2.520 -0.4653 -0.5781 -1.3395
 5284TIP3   OH237342   1.932   4.853   1.458  0.8689  0.3291 -0.5206
 5284TIP3    H137343   1.852   4.905   1.468  0.1030 -0.4873 -1.9795
 5284TIP3    H237344   1.928   4.789   1.529 -1.0173 -1.1525 -1.8261
 5285TIP3   OH237345   4.854   2.330  16.919 -0.1038  0.4130 -0.2744
 5285TIP3    H137346   4.893   2.250  16.882  1.0593  1.7761 -2.1708
 5285TIP3    H237347   4.910   2.351  16.994 -0.1981 -0.3246  0.0187
 5286TIP3   OH237348   4.340   5.899   6.388  0.1883 -0.2684  0.2137
 5286TIP3    H137349   4.308   5.841   6.456 -1.4372 -0.1391 -0.4065
 5286TIP3    H237350   4.266   5.911   6.329  1.0337  0.9920 -0.6544
 5287TIP3   OH237351   1.957   0.331   0.010  0.3180 -0.1382 -0.0177
 5287TIP3    H137352   1.862   0.320   0.009  0.3290 -0.1958 -0.5655
 5287TIP3    H237353   1.975   0.377   0.092 -0.0603 -1.2827  0.7373
 5288TIP3   OH237354   0.310   1.106   6.206 -0.6882 -0.8812 -0.1257
 5288TIP3    H137355   0.393   1.144   6.178  0.5412 -2.7657  0.7339
 5288TIP3    H237356   0.309   1.019   6.166 -0.7107 -2.1125  2.3663
 5289TIP3   OH237357   2.290   1.847  16.678 -0.3053 -0.3177  0.0181
 5289TIP3    H137358   2.212   1.860  16.733  1.6229  1.2283  2.6108
 5289TIP3    H237359   2.305   1.752  16.681 -1.6783 -0.5641  0.0307
 5290TIP3   OH237360   1.452   5.615  12.443 -0.4990  0.2423  0.0824
 5290TIP3    H137361   1.516   5.567  12.390 -1.1185 -0.1453 -0.3219
 5290TIP3    H237362   1.503   5.687  12.481  0.0467  0.2936 -0.7105
 5291TIP3   OH237363   0.630   1.030  10.630  0.1545 -0.1733  0.3021
 5291TIP3    H137364   0.719   1.001  10.615  0.0697 -0.1923 -0.1871
 5291TIP3    H237365   0.598   0.975  10.702  0.7442  0.2749  0.9112
 5292TIP3   OH237366   0.201   2.384   2.601  0.1019  0.2717  0.2316
 5292TIP3    H137367   0.137   2.382   2.672  0.3417  0.2381  0.4466
 5292TIP3    H237368   0.284   2.408   2.643  0.6131 -1.4173  0.2405
 5293TIP3   OH237369   2.451   4.380   3.583 -0.9858  0.4524 -0.0129
 5293TIP3    H137370   2.416   4.304   3.629 -0.7527 -0.8492 -1.9188
 5293TIP3    H237371   2.397   4.453   3.615 -3.6847 -1.0417 -0.7985
 5294TIP3   OH237372   0.480   2.651   3.889 -0.3968  0.5152  0.1412
 5294TIP3    H137373   0.437   2.610   3.965 -1.5561 -0.6528 -1.0863
 5294TIP3    H237374   0.562   2.603   3.880 -0.6048  0.1400  0.2136
 5295TIP3   OH237375   6.518   1.435   5.566 -0.1517  0.0866 -0.3692
 5295TIP3    H137376   6.599   1.451   5.613 -0.6234  0.4045  0.3625
 5295TIP3    H237377   6.474   1.366   5.616 -1.2582  1.3283  0.4530
 5296TIP3   OH237378   4.831   2.354   2.142 -0.6082 -0.3252  0.0156
 5296TIP3    H137379   4.767   2.412   2.185 -1.0272 -2.1225  2.0033
 5296TIP3    H237380   4.907   2.410   2.129 -0.8301  0.6503  2.2491
 5297TIP3   OH237381   5.038   4.744  13.522 -0.6416 -0.1258 -0.2360
 5297TIP3    H137382   5.095   4.686  13.572 -2.0651 -0.1246  1.4965
 5297TIP3    H237383   4.991   4.795  13.589 -2.1683  0.3462 -1.5993
 5298TIP3   OH237384   3.874   0.893  10.632 -0.7959 -0.5951 -0.2310
 5298TIP3    H137385   3.783   0.907  10.605 -0.7132 -1.1723 -0.8095
 5298TIP3    H237386   3.879   0.936  10.718 -0.9012  1.7578 -1.3273
 5299TIP3   OH237387   5.702   1.667   2.618  0.1964 -0.2598  0.2219
 5299TIP3    H137388   5.789   1.630   2.634  1.1376  0.5432 -2.5376
 5299TIP3    H237389   5.704   1.752   2.661  1.0134 -0.0151 -0.2696
 5300TIP3   OH237390   0.850   6.696   3.464  0.2729 -0.0393  0.0877
 5300TIP3    H137391   0.846   6.700   3.560 -0.6309  1.4012  0.0181
 5300TIP3    H237392   0.859   6.787   3.437  2.4095 -0.5740 -1.1661
 5301TIP3   OH237393   1.422   6.232  14.562 -0.7358  0.6707  0.1171
 5301TIP3    H137394   1.434   6.199  14.651  0.4903 -0.8121 -0.5404
 5301TIP3    H237395   1.511   6.254  14.533 -0.9467 -0.0540 -1.1501
 5302TIP3   OH237396   3.664   3.144   0.192 -0.4141 -0.0011 -0.3804
 5302TIP3    H137397   3.585   3.196   0.207 -0.6964 -0.4360 -0.3600
 5302TIP3    H237398   3.735   3.209   0.186 -0.7361  0.3696 -0.1594
 5303TIP3   OH237399   4.314   6.297  15.710  0.5048 -0.7195 -0.3686
 5303TIP3    H137400   4.299   6.220  15.765 -1.0358 -0.2910 -0.1218
 5303TIP3    H237401   4.347   6.363  15.771  0.6992 -0.8427 -0.3424
 5304TIP3   OH237402   5.229   3.708  15.285 -0.3306  0.1264  0.6685
 5304TIP3    H137403   5.154   3.667  15.329 -0.1405 -1.1277 -0.1208
 5304TIP3    H237404   5.282   3.634  15.256  0.5846  0.9806  0.1169
 5305TIP3   OH237405   3.659   2.849   2.240  0.8381  0.2413  0.6844
 5305TIP3    H137406   3.600   2.914   2.202  0.7676 -0.3122 -0.1983
 5305TIP3    H237407   3.739   2.857   2.188  0.2860 -1.4266 -0.4963
 5306TIP3   OH237408   5.331   1.852   1.686 -0.4622  0.7458  0.1295
 5306TIP3    H137409   5.294   1.766   1.666  1.3097  0.4006 -1.9924
 5306TIP3    H237410   5.340   1.852   1.781 -0.6611 -1.3609  0.1995
 5307TIP3   OH237411   0.959   5.631  14.838  0.2585  0.2887  0.5886
 5307TIP3    H137412   1.032   5.693  14.841  1.3185 -0.8685 -0.0851
 5307TIP3    H237413   0.996   5.553  14.796 -1.7891  0.1984 -1.2200
 5308TIP3   OH237414   2.036   4.147   4.457  0.2315 -0.1226  0.3636
 5308TIP3    H137415   2.021   4.233   4.418  0.7628  0.1452  0.7395
 5308TIP3    H237416   2.091   4.164   4.533 -0.0499 -0.7454  0.7176
 5309TIP3   OH237417   0.507   4.472   5.399  0.2044  0.0061  0.0422
 5309TIP3    H137418   0.583   4.418   5.418  0.4370  0.3076 -0.0388
 5309TIP3    H237419   0.436   4.433   5.451  0.9358  1.1501  2.0130
 5310TIP3   OH237420   6.335   1.439   0.125 -0.2605 -0.5370  0.5210
 5310TIP3    H137421   6.369   1.471   0.208  0.3629  0.3374 -0.0563
 5310TIP3    H237422   6.311   1.348   0.142 -0.4480 -0.2769  1.7375
 5311TIP3   OH237423   0.477   6.121  16.490 -0.7773  0.3045  0.1588
 5311TIP3    H137424   0.416   6.138  16.418 -0.4728  0.2896 -0.1037
 5311TIP3    H237425   0.542   6.062  16.453  0.4648  1.7796 -0.1238
 5312TIP3   OH237426   1.569   0.124  15.436 -0.5441  0.2950 -0.7850
 5312TIP3    H137427   1.647   0.068  15.439  0.3617  1.5262 -0.1326
 5312TIP3    H237428   1.496   0.063  15.429  0.4105 -0.9593 -0.3326
 5313TIP3   OH237429   2.630   5.159  10.704 -0.0176  0.1293 -0.5507
 5313TIP3    H137430   2.546   5.197  10.731 -1.6298 -1.3860 -2.9638
 5313TIP3    H237431   2.683   5.233  10.678 -1.2827  1.0390 -0.6276
 5314TIP3   OH237432   5.064   3.257  11.258  0.6795 -0.0157 -0.1221
 5314TIP3    H137433   5.158   3.241  11.255  0.3496 -2.2100 -0.2429
 5314TIP3    H237434   5.026   3.184  11.209 -1.1579 -0.0171  1.2101
 5315TIP3   OH237435   0.240   2.147  12.591  0.1063  0.3105  0.8659
 5315TIP3    H137436   0.314   2.087  12.598 -0.1234 -0.2017 -0.6893
 5315TIP3    H237437   0.258   2.197  12.512 -1.3650 -0.0515  0.2774
 5316TIP3   OH237438   5.627   3.652   0.564  0.2408  0.6807 -0.0887
 5316TIP3    H137439   5.598   3.565   0.536 -0.1204  0.5444  0.6723
 5316TIP3    H237440   5.547   3.695   0.594  0.3520  1.4348 -0.8595
 5317TIP3   OH237441   1.104   0.672  11.071  0.0376 -0.5924 -0.0859
 5317TIP3    H137442   1.095   0.733  11.144  1.7810 -2.0084  1.4048
 5317TIP3    H237443   1.160   0.718  11.009  0.2200 -0.1662  0.3817
 5318TIP3   OH237444   4.847   0.451  15.064 -0.6202  0.2107 -0.1992
 5318TIP3    H137445   4.819   0.380  15.122  0.9014  1.0763  1.7290
 5318TIP3    H237446   4.848   0.412  14.977 -0.6319 -1.8934  0.6732
 5319TIP3   OH237447   0.764   5.100  11.684 -0.1677  0.3356 -0.3975
 5319TIP3    H137448   0.680   5.146  11.693 -0.1440  0.7160 -1.9227
 5319TIP3    H237449   0.830   5.167  11.704 -0.1964  0.2189  0.1100
 5320TIP3   OH237450   1.941   5.887  13.791  0.0922  0.5510  0.1569
 5320TIP3    H137451   1.892   5.807  13.813 -2.5791  2.2515  0.8183
 5320TIP3    H237452   1.923   5.901  13.698 -0.6772  1.1220  0.3774
 5321TIP3   OH237453   6.762   2.065  11.778 -0.2296  0.0562 -0.0059
 5321TIP3    H137454   6.809   2.054  11.861 -0.5321  0.3392  0.2048
 5321TIP3    H237455   6.777   1.983  11.731  0.9243  0.3471 -0.1785
 5322TIP3   OH237456   2.355   6.832  15.871  0.0425  0.2036  0.1921
 5322TIP3    H137457   2.366   6.858  15.962 -0.0381 -0.8412  0.5121
 5322TIP3    H237458   2.428   6.772  15.854  0.1520  0.5130 -0.4844
 5323TIP3   OH237459   1.522   6.139   2.391 -0.3374  0.3306 -0.0938
 5323TIP3    H137460   1.483   6.226   2.378  2.4280  1.3122 -2.7869
 5323TIP3    H237461   1.449   6.085   2.423 -3.5884  2.3238 -3.3966
 5324TIP3   OH237462   6.765   3.882  11.455 -0.2158 -0.2645 -0.0681
 5324TIP3    H137463   6.727   3.947  11.396  0.1955 -0.5674 -0.6831
 5324TIP3    H237464   6.748   3.916  11.543 -0.6065  0.3268 -0.3665
 5325TIP3   OH237465   4.475   0.576  13.139 -0.4890  0.6166 -0.1616
 5325TIP3    H137466   4.509   0.487  13.148  2.7899  1.5438 -1.4975
 5325TIP3    H237467   4.472   0.590  13.044 -3.9517  1.0064 -0.0925
 5326TIP3   OH237468   2.150   4.093  14.094  0.0894  0.7420 -0.5580
 5326TIP3    H137469   2.178   4.071  14.183  0.2060 -2.4550 -1.2769
 5326TIP3    H237470   2.221   4.147  14.058  0.6069  1.0244  0.8380
 5327TIP3   OH237471   3.985   2.951  11.305 -0.4155  0.2549 -0.3040
 5327TIP3    H137472   3.963   2.904  11.225  1.6059 -0.7522 -0.3062
 5327TIP3    H237473   4.029   3.031  11.275  2.8574 -1.3992 -0.2709
 5328TIP3   OH237474   4.136   5.365  11.600  0.2314  0.1183 -0.4174
 5328TIP3    H137475   4.143   5.411  11.516 -1.0787  1.4507  0.1626
 5328TIP3    H237476   4.216   5.389  11.648 -0.3583  1.7206 -0.1829
 5329TIP3   OH237477   4.333   4.808   1.424  0.1582 -0.1541  0.3383
 5329TIP3    H137478   4.394   4.826   1.495  0.8638 -0.7966 -0.0918
 5329TIP3    H237479   4.386   4.818   1.344 -0.4380 -0.1645 -0.0645
 5330TIP3   OH237480   1.611   0.060  15.103 -0.3316 -0.0062 -0.1813
 5330TIP3    H137481   1.589   0.133  15.045  1.6792 -0.4738 -1.6354
 5330TIP3    H237482   1.550  -0.010  15.079  0.5601 -0.2397 -1.8999
 5331TIP3   OH237483   3.464   1.849  13.930  0.1714  0.3654  0.4004
 5331TIP3    H137484   3.535   1.789  13.955  0.0130 -0.7012 -1.5814
 5331TIP3    H237485   3.507   1.916  13.878 -0.4035 -1.1457 -2.1815
 5332TIP3   OH237486   1.991   3.379  11.544 -0.3367  0.7136  0.4685
 5332TIP3    H137487   1.990   3.388  11.449 -0.1870  1.0765  0.4974
 5332TIP3    H237488   1.945   3.297  11.562 -0.6692  0.8189  0.1037
 5333TIP3   OH237489   2.493   6.335  15.835  0.5266 -0.0496 -0.0757
 5333TIP3    H137490   2.527   6.399  15.898  0.2577  2.5632 -2.3804
 5333TIP3    H237491   2.560   6.267  15.832  2.1733  1.4418  0.5998
 5334TIP3   OH237492   1.011   1.098  11.066  0.0055  0.2117 -1.1973
 5334TIP3    H137493   1.003   1.144  11.150 -0.8304 -0.3953 -0.9264
 5334TIP3    H237494   1.099   1.117  11.037  0.6027 -0.2119  0.2228
 5335TIP3   OH237495   3.133   5.363   1.046 -0.4809 -0.0254 -0.1457
 5335TIP3    H137496   3.087   5.291   1.090  0.3992 -0.6173 -0.1791
 5335TIP3    H237497   3.209   5.380   1.101  0.8983 -1.0939 -1.6572
 5336TIP3   OH237498   1.584   2.441  10.521 -0.2868  0.2968  0.1239
 5336TIP3    H137499   1.519   2.510  10.518 -0.7702 -0.0433  1.6870
 5336TIP3    H237500   1.601   2.419  10.429 -0.3344  2.2521 -0.3903
 5337TIP3   OH237501   2.268   6.632  11.656 -0.2924 -0.4347  0.1041
 5337TIP3    H137502   2.263   6.725  11.678  0.5115 -0.6954  1.5137
 5337TIP3    H237503   2.297   6.630  11.565  0.7704  0.6954  0.3956
 5338TIP3   OH237504   5.296   5.538   6.667  0.1504  0.2729  0.7233
 5338TIP3    H137505   5.215   5.546   6.716 -1.1973  1.9921 -1.5938
 5338TIP3    H237506   5.363   5.578   6.723 -1.3448  2.3142  1.1563
 5339TIP3   OH237507   3.139   1.007   0.520 -0.1043  0.1143 -0.4564
 5339TIP3    H137508   3.070   0.961   0.568  0.1572 -0.2819 -0.4565
 5339TIP3    H237509   3.217   0.996   0.574 -0.4293  2.1916  0.5155
 5340TIP3   OH237510   0.606   0.800   0.759 -0.2146 -0.2309 -0.3682
 5340TIP3    H137511   0.567   0.883   0.731  0.0656 -0.1067 -0.4001
 5340TIP3    H237512   0.549   0.733   0.723 -0.8641 -0.0453  0.2743
 5341TIP3   OH237513   5.274   5.178   3.373  0.1321 -0.0981 -0.2489
 5341TIP3    H137514   5.208   5.243   3.397  1.4098  0.7116  1.2706
 5341TIP3    H237515   5.228   5.094   3.380 -1.1531  0.5221 -0.8409
 5342TIP3   OH237516   4.189   2.607  11.474 -0.7412 -0.5141  0.2107
 5342TIP3    H137517   4.159   2.618  11.384  2.1156  0.5559 -0.7116
 5342TIP3    H237518   4.183   2.694  11.512  2.5222  0.1846 -0.5621
 5343TIP3   OH237519   6.031   6.545  14.849  0.4986  0.4497  0.1611
 5343TIP3    H137520   5.987   6.462  14.832 -0.7544  0.9193  0.9791
 5343TIP3    H237521   6.040   6.585  14.762 -0.6421  0.3031 -0.0375
 5344TIP3   OH237522   1.214   5.306  11.053 -0.0383  0.3210 -0.1360
 5344TIP3    H137523   1.251   5.388  11.020  1.3006  0.1500  0.8327
 5344TIP3    H237524   1.189   5.258  10.974  0.8769  0.9033 -0.8115
 5345TIP3   OH237525   4.328   6.569   3.311 -0.1614  0.2849  0.3901
 5345TIP3    H137526   4.246   6.618   3.305  0.5999  1.4679 -1.2426
 5345TIP3    H237527   4.304   6.484   3.348 -2.3072  0.1839 -1.1006
 5346TIP3   OH237528   1.900   5.021  11.139 -0.1797 -0.6007  0.1339
 5346TIP3    H137529   1.917   4.977  11.055  1.7510  0.6503 -0.2012
 5346TIP3    H237530   1.953   4.973  11.202  1.6115  0.8503 -0.1617
 5347TIP3   OH237531   1.138   2.094   3.005  0.2939  0.2030 -0.0091
 5347TIP3    H137532   1.223   2.106   2.964  1.9433  1.3135  3.4440
 5347TIP3    H237533   1.148   2.014   3.057 -0.9657  0.0865  0.0829
 5348TIP3   OH237534   6.035   3.919   3.175 -0.2040 -0.4067  0.1208
 5348TIP3    H137535   6.107   3.946   3.116 -1.0312 -0.5845 -1.0052
 5348TIP3    H237536   6.074   3.920   3.262  0.9276  0.3745 -0.3664
 5349TIP3   OH237537   6.068   6.017  13.593  0.9699 -0.4490  0.2971
 5349TIP3    H137538   6.162   6.001  13.596  1.1160  0.3941  1.5252
 5349TIP3    H237539   6.061   6.111  13.574  0.3352 -0.7464 -0.9994
 5350TIP3   OH237540   1.031   4.266  17.012  0.0552  0.1622 -0.5964
 5350TIP3    H137541   1.062   4.195  17.069  1.0323  0.9137 -0.1542
 5350TIP3    H237542   1.104   4.280  16.951  0.2557  1.3901 -0.0968
 5351TIP3   OH237543   5.936   1.392  11.478 -0.4231 -0.0737 -0.3460
 5351TIP3    H137544   5.885   1.469  11.452  1.1877  1.0318 -0.3779
 5351TIP3    H237545   5.967   1.412  11.566  0.0251 -0.6637 -0.3627
 5352TIP3   OH237546   6.481   5.560  12.548 -0.1284 -0.3707  0.0353
 5352TIP3    H137547   6.411   5.616  12.515  0.4886  0.6212  0.3517
 5352TIP3    H237548   6.484   5.579  12.642  0.0087 -1.0359  0.1688
 5353TIP3   OH237549   6.374   2.332  10.397 -0.3329  0.4059  0.4758
 5353TIP3    H137550   6.338   2.420  10.394 -0.7904  0.2332  0.6942
 5353TIP3    H237551   6.468   2.343  10.387 -0.5019  0.8132 -0.8037
 5354TIP3   OH237552   0.031   5.460   0.131 -0.3238  0.0420 -0.4834
 5354TIP3    H137553   0.125   5.478   0.122 -0.3379 -0.0171 -0.7429
 5354TIP3    H237554  -0.009   5.546   0.141 -0.1055  0.0059  0.9196
 5355TIP3   OH237555   2.623   4.913   5.209  0.7726  0.5653 -0.2562
 5355TIP3    H137556   2.660   4.843   5.263  0.7937 -1.3437 -2.5800
 5355TIP3    H237557   2.528   4.897   5.212  0.6137  1.5784  0.6325
 5356TIP3   OH237558   5.126   4.694  16.503 -0.2851 -0.0383 -0.7244
 5356TIP3    H137559   5.120   4.743  16.585 -1.1315 -0.5987 -0.4448
 5356TIP3    H237560   5.188   4.745  16.450  0.8269 -0.0430  0.5064
 5357TIP3   OH237561   3.099   6.183  12.799  0.3036 -0.3548 -0.4268
 5357TIP3    H137562   3.141   6.122  12.738  0.2532  0.3031 -1.1263
 5357TIP3    H237563   3.006   6.167  12.788  0.2887 -2.2728  1.5870
 5358TIP3   OH237564   4.564   2.978   1.076 -0.4575  0.8425  0.0686
 5358TIP3    H137565   4.504   3.050   1.053 -0.6900  0.8715  0.7132
 5358TIP3    H237566   4.647   3.022   1.094 -1.0028  1.1999  2.0728
 5359TIP3   OH237567   2.436   5.023  16.600  0.0779  0.1755  0.2252
 5359TIP3    H137568   2.436   5.070  16.683 -0.8687 -1.0030  0.9352
 5359TIP3    H237569   2.514   5.053  16.554  2.1011 -1.0272  2.6423
 5360TIP3   OH237570   2.807   0.213   3.907 -0.0871  0.0966  0.4096
 5360TIP3    H137571   2.802   0.265   3.987 -0.0749  2.0567 -0.8015
 5360TIP3    H237572   2.781   0.273   3.837  0.5749 -1.3445 -1.1590
 5361TIP3   OH237573   4.269   2.094  13.912 -0.2795  0.3902 -0.0592
 5361TIP3    H137574   4.362   2.083  13.930 -0.2293  0.1349 -0.4612
 5361TIP3    H237575   4.227   2.016  13.948 -0.1564 -0.2091 -1.1859
 5362TIP3   OH237576   3.249   4.230   6.724 -0.1133  0.1246  0.3653
 5362TIP3    H137577   3.300   4.191   6.653  1.0178  0.4255  0.9888
 5362TIP3    H237578   3.308   4.228   6.800 -0.7895  1.1160  0.9381
 5363TIP3   OH237579   4.096   2.374  14.902  0.3863 -0.0355 -0.5427
 5363TIP3    H137580   4.164   2.419  14.952 -0.2583  1.0262 -0.5725
 5363TIP3    H237581   4.050   2.445  14.856 -1.6771 -0.5505  0.6237
 5364TIP3   OH237582   6.774   5.272   4.152  0.0935  0.1631  0.7864
 5364TIP3    H137583   6.683   5.289   4.128  0.5678  3.1269  0.7352
 5364TIP3    H237584   6.825   5.335   4.101  2.1292 -0.8366  1.4511
 5365TIP3   OH237585   5.559   2.272  12.980  0.1250 -0.0604  0.1421
 5365TIP3    H137586   5.601   2.350  13.016  0.4568 -0.4390  0.5926
 5365TIP3    H237587   5.606   2.255  12.898  1.7534 -1.2027  1.2422
 5366TIP3   OH237588   3.396   0.822   4.637 -0.7766 -0.0641 -0.0391
 5366TIP3    H137589   3.439   0.905   4.653 -1.7051  0.2778  0.8158
 5366TIP3    H237590   3.323   0.843   4.579  0.0778 -0.6074 -1.3511
 5367TIP3   OH237591   5.560   3.358   6.470  0.1542  0.7796 -0.1742
 5367TIP3    H137592   5.500   3.309   6.414 -0.9488  2.1688 -0.2455
 5367TIP3    H237593   5.615   3.408   6.409  0.2531  0.8025 -0.0688
 5368TIP3   OH237594   2.154   0.068   1.524 -0.1452 -0.7119 -0.1024
 5368TIP3    H137595   2.203   0.124   1.464 -0.2063 -0.2270  0.2893
 5368TIP3    H237596   2.078   0.039   1.473 -0.7610  0.5595  0.0435
 5369TIP3   OH237597   2.664   6.829  14.990 -0.7690 -0.6663 -0.3410
 5369TIP3    H137598   2.627   6.866  14.910 -1.6087  1.1220  0.8290
 5369TIP3    H237599   2.723   6.896  15.023  0.3206 -1.7847  0.0577
 5370TIP3   OH237600   5.275   0.310  16.528  0.7482  0.4604 -0.1507
 5370TIP3    H137601   5.328   0.295  16.450 -0.3777 -1.5308 -0.6033
 5370TIP3    H237602   5.241   0.223  16.551 -0.7122  1.3513  1.2619
 5371TIP3   OH237603   0.230   1.978  15.799 -0.0387  0.5241  0.2758
 5371TIP3    H137604   0.204   1.907  15.740  0.3041  1.1956 -0.7119
 5371TIP3    H237605   0.165   1.976  15.869 -2.3282  1.6279 -1.6713
 5372TIP3   OH237606   3.795   3.938  11.958 -0.3229 -0.2818 -0.0309
 5372TIP3    H137607   3.727   3.873  11.940  0.4755 -1.2731  0.4068
 5372TIP3    H237608   3.847   3.943  11.878 -0.6610  0.1693 -0.2249
 5373TIP3   OH237609   1.363   2.615   0.862 -0.1929  0.1062  0.1088
 5373TIP3    H137610   1.305   2.672   0.811  2.1700  2.6216  0.0240
 5373TIP3    H237611   1.350   2.643   0.953  1.1648  1.0272  0.0413
 5374TIP3   OH237612   4.482   0.901   4.864  0.0183 -0.6292  0.4554
 5374TIP3    H137613   4.487   0.814   4.824  0.5064 -0.5415  0.3267
 5374TIP3    H237614   4.447   0.957   4.794 -1.3130 -0.9177  0.8559
 5375TIP3   OH237615   3.429   5.190   5.699 -0.3386  0.0968 -0.8783
 5375TIP3    H137616   3.434   5.282   5.723 -1.0429 -0.8627  4.0575
 5375TIP3    H237617   3.335   5.170   5.701 -0.1442 -0.8910 -1.0084
 5376TIP3   OH237618   3.276   6.688  14.619  0.1042 -0.3727 -0.0044
 5376TIP3    H137619   3.305   6.779  14.616 -1.2559  0.1196  1.2612
 5376TIP3    H237620   3.234   6.678  14.704  1.0853 -2.4723  0.3145
 5377TIP3   OH237621   6.428   6.477  16.557  0.4497 -0.3345  0.2466
 5377TIP3    H137622   6.385   6.559  16.534  2.6875  1.8619  3.1198
 5377TIP3    H237623   6.362   6.427  16.605 -0.9847 -0.4098 -1.6741
 5378TIP3   OH237624   6.766   6.719  10.630  0.4690  0.0568  0.1150
 5378TIP3    H137625   6.698   6.687  10.690  1.4260 -1.1583  0.5843
 5378TIP3    H237626   6.755   6.814  10.631 -1.3729 -0.1138 -0.0099
 5379TIP3   OH237627   4.532   0.535  15.248  0.1096  0.0044 -0.3448
 5379TIP3    H137628   4.453   0.579  15.218  1.2463  4.1696  2.0180
 5379TIP3    H237629   4.590   0.534  15.171 -0.4602  1.5481 -0.8323
 5380TIP3   OH237630   3.594   2.834   3.674  0.6465  0.7391  0.4644
 5380TIP3    H137631   3.533   2.760   3.678  1.4833 -0.0347 -0.4493
 5380TIP3    H237632   3.564   2.894   3.742 -1.6053  0.7693 -0.4778
 5381TIP3   OH237633   1.471   3.546   3.302 -0.1065 -0.0113 -0.9032
 5381TIP3    H137634   1.417   3.466   3.304 -0.4119  0.1553  1.3926
 5381TIP3    H237635   1.550   3.522   3.351 -0.8226  1.4334  1.0733
 5382TIP3   OH237636   2.071   3.066  15.804 -0.2826  0.1228  0.2190
 5382TIP3    H137637   2.110   3.049  15.718 -1.5344  2.0667 -0.7975
 5382TIP3    H237638   1.999   3.003  15.810 -0.8679  0.6900 -0.6630
 5383TIP3   OH237639   3.506   5.836   0.658 -0.3552 -0.2496  0.6615
 5383TIP3    H137640   3.502   5.929   0.684 -0.7402  0.2772 -1.1517
 5383TIP3    H237641   3.427   5.798   0.697 -2.6052  1.2201 -2.0810
 5384TIP3   OH237642   1.362   0.841   1.152  0.0758 -0.5023 -0.9524
 5384TIP3    H137643   1.324   0.923   1.119 -0.7453 -0.4469  0.0791
 5384TIP3    H237644   1.301   0.773   1.123 -1.7288 -0.2829  1.8894
 5385TIP3   OH237645   3.143   3.454  13.557 -0.5431  0.6061  0.5341
 5385TIP3    H137646   3.200   3.384  13.524 -0.4329  0.1667  1.6170
 5385TIP3    H237647   3.108   3.496  13.478 -0.8724 -0.8808 -0.1412
 5386TIP3   OH237648   4.044   0.380   0.855 -0.2219 -0.2472  0.0913
 5386TIP3    H137649   4.090   0.454   0.895 -0.2764 -0.0441 -0.2211
 5386TIP3    H237650   4.039   0.402   0.762 -1.3589 -0.0512  0.1861
 5387TIP3   OH237651   4.025   4.803   1.464 -0.8539 -0.0892 -0.3439
 5387TIP3    H137652   4.007   4.734   1.527 -1.8928 -1.1421 -1.7264
 5387TIP3    H237653   4.121   4.810   1.463 -0.3989 -3.8654 -2.4776
 5388TIP3   OH237654   6.653   6.833   1.046 -0.3001 -0.9102  0.2010
 5388TIP3    H137655   6.688   6.745   1.058  1.4300 -0.2920  0.0259
 5388TIP3    H237656   6.704   6.888   1.106 -1.6722 -0.0956  0.6598
 5389TIP3   OH237657   3.414   5.999   5.682 -0.3574  0.5725  0.1471
 5389TIP3    H137658   3.365   6.080   5.665 -2.4211 -0.9357 -1.6039
 5389TIP3    H237659   3.500   6.015   5.643 -0.0294  2.5914  1.5650
 5390TIP3   OH237660   3.476   6.657   1.117  0.9220  0.1959 -0.1395
 5390TIP3    H137661   3.533   6.663   1.040  1.5447  0.8935  0.3564
 5390TIP3    H237662   3.502   6.732   1.172  0.9221 -0.6389  1.0394
 5391TIP3   OH237663   3.115   3.949   5.956  0.6747 -0.3405 -0.2425
 5391TIP3    H137664   3.077   4.017   6.011  1.2321 -0.7993  0.7431
 5391TIP3    H237665   3.113   3.985   5.867 -2.2038 -0.4117 -0.2956
 5392TIP3   OH237666   4.295   6.821  12.915 -0.5971 -0.2500 -0.1584
 5392TIP3    H137667   4.304   6.912  12.886  0.1066  0.4913  2.2086
 5392TIP3    H237668   4.295   6.825  13.010  0.0229 -2.8029  0.0314
 5393TIP3   OH237669   0.158   1.063   0.424  0.2291  0.3167  0.3525
 5393TIP3    H137670   0.126   1.151   0.443 -0.4310  0.4160 -1.0787
 5393TIP3    H237671   0.247   1.076   0.392  0.7648  0.2833  1.7496
 5394TIP3   OH237672   3.075   4.830   3.757  0.2695 -0.1524  0.2079
 5394TIP3    H137673   3.168   4.844   3.740 -0.1676 -0.2443 -2.6717
 5394TIP3    H237674   3.052   4.899   3.819  1.4935  2.2564 -1.8466
 5395TIP3   OH237675   4.109   0.529   1.585 -0.0997 -0.1174  0.1102
 5395TIP3    H137676   4.164   0.476   1.644  1.8989  1.7549  0.0318
 5395TIP3    H237677   4.020   0.514   1.617  0.3974 -2.9511  0.5054
 5396TIP3   OH237678   2.557   1.916  10.072  0.3712  0.0249  0.5037
 5396TIP3    H137679   2.510   1.871  10.142  0.0400  0.1862  0.3904
 5396TIP3    H237680   2.648   1.889  10.082 -0.0196 -1.7969 -0.4374
 5397TIP3   OH237681   5.388   6.042  15.296 -0.7134  0.1005  0.3728
 5397TIP3    H137682   5.365   6.053  15.389  2.1975  1.5538  1.0422
 5397TIP3    H237683   5.458   5.977  15.296 -1.1952 -0.4441 -0.9365
 5398TIP3   OH237684   2.302   3.756  12.064 -0.0275 -0.0507 -0.2788
 5398TIP3    H137685   2.259   3.841  12.053  1.9789  0.9620 -0.7826
 5398TIP3    H237686   2.325   3.728  11.976  0.7043 -0.3496 -0.0045
 5399TIP3   OH237687   5.933   1.130  13.531  0.1737  0.4042  0.8647
 5399TIP3    H137688   5.892   1.071  13.594  0.2177 -0.2107  0.3389
 5399TIP3    H237689   6.027   1.109  13.536  0.2362  0.6934  0.9380
 5400TIP3   OH237690   5.678   1.291  15.975 -0.0671 -0.6342 -0.4189
 5400TIP3    H137691   5.638   1.373  15.949  2.4552  1.1736  0.9408
 5400TIP3    H237692   5.722   1.259  15.896  0.0095  0.0342 -0.6500
 5401TIP3   OH237693   5.367   0.108  12.683  0.1211  0.0039  0.1023
 5401TIP3    H137694   5.405   0.120  12.770  0.0300  1.5956 -0.0476
 5401TIP3    H237695   5.395   0.185  12.634 -0.6189 -0.4002 -0.9989
 5402TIP3   OH237696   1.346   0.900   3.526  0.4749  0.1589  0.1985
 5402TIP3    H137697   1.413   0.955   3.487  0.6721  0.6693  1.2161
 5402TIP3    H237698   1.284   0.962   3.566  0.0403 -0.3309  0.3014
 5403TIP3   OH237699   4.730   6.326  12.638 -0.7934  0.1877 -0.2218
 5403TIP3    H137700   4.667   6.253  12.637 -1.3656  0.6856 -0.5529
 5403TIP3    H237701   4.787   6.307  12.714 -0.5976 -0.8825 -0.6203
 5404TIP3   OH237702   2.046   0.635  15.225  0.1887  0.7619 -0.1846
 5404TIP3    H137703   1.970   0.607  15.175  0.0541  1.0287 -0.1336
 5404TIP3    H237704   2.092   0.554  15.248 -1.3174  0.3865  1.7834
 5405TIP3   OH237705   4.966   5.178  14.150 -0.5487 -0.4914  0.3650
 5405TIP3    H137706   4.987   5.271  14.148 -2.3896 -0.0612 -0.6657
 5405TIP3    H237707   4.900   5.166  14.082 -0.8487 -2.4310  0.9290
 5406TIP3   OH237708   6.571   3.534  11.918  0.0301  0.3808 -0.1029
 5406TIP3    H137709   6.549   3.467  11.983 -0.5152 -1.3242 -1.9692
 5406TIP3    H237710   6.537   3.615  11.956 -2.8715 -0.9834  0.5296
 5407TIP3   OH237711   2.422   1.865  15.917  0.6752  0.1403 -0.3323
 5407TIP3    H137712   2.389   1.796  15.975  0.8655  0.7312  0.5046
 5407TIP3    H237713   2.467   1.925  15.976  1.5104  0.3877 -1.2009
 5408TIP3   OH237714   2.204   4.844   2.066  0.3136 -0.2145 -0.1747
 5408TIP3    H137715   2.125   4.896   2.080  0.8474  0.7115 -0.4934
 5408TIP3    H237716   2.179   4.778   2.001  0.7732  2.5596 -3.4532
 5409TIP3   OH237717   2.577   5.020  12.883  0.4690 -0.1926  0.4165
 5409TIP3    H137718   2.527   5.015  12.964  1.2986 -0.0623  0.9568
 5409TIP3    H237719   2.512   5.024  12.813 -0.2930  2.0592  1.2003
 5410TIP3   OH237720   3.863   1.408   5.619 -0.2914 -0.2011 -1.0215
 5410TIP3    H137721   3.933   1.471   5.604  0.4541 -0.5026  0.9275
 5410TIP3    H237722   3.885   1.366   5.702 -2.9876 -0.0105 -0.1014
 5411TIP3   OH237723   2.292   2.122   0.211 -0.6740  0.3376 -0.2486
 5411TIP3    H137724   2.278   2.028   0.219  1.0825 -0.1452 -2.0613
 5411TIP3    H237725   2.271   2.141   0.120 -1.4740  1.8181  0.2148
 5412TIP3   OH237726   0.152   1.121  16.033  0.5986 -0.0941 -0.1917
 5412TIP3    H137727   0.150   1.068  15.954 -1.0421 -0.7396  0.2422
 5412TIP3    H237728   0.197   1.066  16.097 -0.2831 -0.6007  0.0013
 5413TIP3   OH237729   3.332   0.154  13.033  0.6071  0.3332 -0.4218
 5413TIP3    H137730   3.252   0.201  13.012  0.2436 -0.0185  0.1653
 5413TIP3    H237731   3.303   0.069  13.065  0.9864  1.4124  3.2206
 5414TIP3   OH237732   0.870   2.844   2.903 -0.2745 -0.1596  0.0913
 5414TIP3    H137733   0.947   2.787   2.896 -0.2769 -0.2265  0.5517
 5414TIP3    H237734   0.796   2.786   2.885 -0.1086  0.5036 -3.4094
 5415TIP3   OH237735   3.844   5.433  14.310  1.0020  0.7203 -0.4156
 5415TIP3    H137736   3.862   5.424  14.217  0.4491 -0.6809 -0.4063
 5415TIP3    H237737   3.888   5.514  14.335 -0.4172  2.1377 -2.2751
 5416TIP3   OH237738   5.953   2.818  15.056  0.2090 -0.4000  0.0207
 5416TIP3    H137739   5.881   2.813  15.119  0.5974  1.0509  0.6050
 5416TIP3    H237740   6.032   2.816  15.110  0.5897 -0.9227 -0.5495
 5417TIP3   OH237741   1.947   4.824  11.769 -0.1084  0.4624  0.4441
 5417TIP3    H137742   1.962   4.745  11.821  0.7028  0.3374  0.0491
 5417TIP3    H237743   1.852   4.833  11.766 -0.2255 -0.6122  0.3414
 5418TIP3   OH237744   0.506   3.911   0.707  0.1984  0.0374  0.3501
 5418TIP3    H137745   0.488   3.954   0.790 -2.7704 -1.3691  0.5763
 5418TIP3    H237746   0.420   3.885   0.674  1.2823  0.1622 -2.9914
 5419TIP3   OH237747   6.637   4.279   5.533  0.0489 -0.0023 -0.3409
 5419TIP3    H137748   6.728   4.259   5.555 -0.2205 -0.9485 -0.0318
 5419TIP3    H237749   6.586   4.237   5.603 -0.7749 -1.9567 -2.0144
 5420TIP3   OH237750   4.369   0.880   5.461  0.4664  0.5799  0.0504
 5420TIP3    H137751   4.384   0.791   5.493 -0.4846  0.4303  0.0871
 5420TIP3    H237752   4.389   0.875   5.367 -1.4916 -0.1669 -0.3647
 5421TIP3   OH237753   0.054   5.031  10.601 -0.0748  0.2162 -0.1066
 5421TIP3    H137754   0.140   5.072  10.613  0.2701 -0.5768  0.1389
 5421TIP3    H237755   0.074   4.942  10.573 -0.6831 -1.5192  4.3120
 5422TIP3   OH237756   4.900   5.669   1.355 -0.2552  0.0947  0.0114
 5422TIP3    H137757   4.809   5.682   1.326  0.2273 -0.9394 -2.2311
 5422TIP3    H237758   4.941   5.754   1.342 -0.9179  0.6131  1.1828
 5423TIP3   OH237759   4.204   4.207   5.412 -0.2191  0.1829 -0.0037
 5423TIP3    H137760   4.144   4.215   5.485 -0.5074 -2.5731  0.1636
 5423TIP3    H237761   4.167   4.137   5.358  1.4383  0.2547 -1.3194
 5424TIP3   OH237762   3.223   2.953   3.986 -0.3690 -0.2228  0.1053
 5424TIP3    H137763   3.189   3.042   3.996 -0.0293 -0.1766  0.8547
 5424TIP3    H237764   3.292   2.961   3.920 -2.2325 -0.4389 -2.0162
 5425TIP3   OH237765   5.795   4.551  11.583 -0.0625  0.3574 -1.1532
 5425TIP3    H137766   5.814   4.503  11.502  0.0344  1.2355 -1.6638
 5425TIP3    H237767   5.826   4.494  11.653  2.0354  0.5744 -1.8263
 5426TIP3   OH237768   1.847   6.207   4.971  0.1630  0.4657  0.3574
 5426TIP3    H137769   1.809   6.266   4.907 -0.0833  0.2835  0.3331
 5426TIP3    H237770   1.876   6.264   5.042 -2.1084  0.4576  1.3663
 5427TIP3   OH237771   1.024   6.664  12.462  0.2598 -0.1513  0.0612
 5427TIP3    H137772   1.026   6.751  12.501  0.4075  0.5111 -1.3776
 5427TIP3    H237773   1.108   6.625  12.485  0.2978  0.1772  0.4844
 5428TIP3   OH237774   4.550   3.156  14.777 -0.4335 -0.0465 -0.3906
 5428TIP3    H137775   4.547   3.113  14.691  0.5660 -0.7853 -0.0720
 5428TIP3    H237776   4.609   3.230  14.763 -0.3201 -0.1301 -0.3528
 5429TIP3   OH237777   0.450   4.307   2.358 -0.1935  0.0974  0.3765
 5429TIP3    H137778   0.540   4.327   2.333 -0.0072 -0.0979  0.8611
 5429TIP3    H237779   0.418   4.249   2.289  0.0455  0.1817  0.1932
 5430TIP3   OH237780   5.907   0.537   1.742 -0.1276 -0.1520  0.1511
 5430TIP3    H137781   5.825   0.574   1.774 -0.0305  1.9226 -1.7788
 5430TIP3    H237782   5.974   0.579   1.796 -0.0672  2.1882 -1.5942
 5431TIP3   OH237783   3.051   3.531   6.479 -0.1885  0.0455  0.3038
 5431TIP3    H137784   3.099   3.464   6.528 -0.8006  0.9712  2.3014
 5431TIP3    H237785   3.107   3.609   6.486  0.2774 -0.0766 -1.5587
 5432TIP3   OH237786   5.026   6.333   0.190 -0.4681 -0.0513 -0.0949
 5432TIP3    H137787   5.029   6.419   0.147  2.2982 -0.1671 -0.3169
 5432TIP3    H237788   5.080   6.345   0.268 -0.7764 -1.3643  0.3287
 5433TIP3   OH237789   3.799   0.655  12.295  0.0024  0.8481  0.3005
 5433TIP3    H137790   3.781   0.571  12.339  2.1196 -0.7454 -1.6058
 5433TIP3    H237791   3.809   0.717  12.367  2.7392 -1.4935  2.2021
 5434TIP3   OH237792   3.742   5.904  12.621 -0.2054  0.1851 -0.6103
 5434TIP3    H137793   3.736   5.865  12.708 -2.3177 -0.5248 -1.0116
 5434TIP3    H237794   3.769   5.994  12.637  0.5836 -0.2598  0.6824
 5435TIP3   OH237795   5.347   4.684  16.799  0.0945  0.1552 -0.3559
 5435TIP3    H137796   5.261   4.645  16.785 -0.8517  2.4495 -1.5820
 5435TIP3    H237797   5.371   4.661  16.889 -1.7857 -0.5374  0.0019
 5436TIP3   OH237798   5.638   3.385  16.067 -0.4179  0.3510  0.2844
 5436TIP3    H137799   5.717   3.420  16.024  1.3389 -0.9012  2.2872
 5436TIP3    H237800   5.572   3.453  16.054  1.0818  1.6342 -1.1602
 5437TIP3   OH237801   3.427   1.241  16.134  0.3433 -0.1369 -0.3246
 5437TIP3    H137802   3.367   1.293  16.080 -1.3066 -1.3235  0.2734
 5437TIP3    H237803   3.514   1.266  16.104 -0.3852  2.4416 -0.5230
 5438TIP3   OH237804   0.443   4.438   6.033 -0.2068 -0.2690  0.2546
 5438TIP3    H137805   0.505   4.388   5.980 -1.0377 -0.0334 -0.9734
 5438TIP3    H237806   0.362   4.388   6.029 -0.3879 -0.0458  1.0023
 5439TIP3   OH237807   1.786   5.827  10.937  0.1766 -0.1187 -0.1069
 5439TIP3    H137808   1.824   5.751  10.892  2.0284  0.5660  0.1837
 5439TIP3    H237809   1.722   5.862  10.876 -1.3040 -2.3406  0.0702
 5440TIP3   OH237810   0.674   6.241  14.112 -0.0261 -0.6232 -0.5564
 5440TIP3    H137811   0.633   6.155  14.115 -1.3211 -0.1069 -2.1575
 5440TIP3    H237812   0.623   6.295  14.172  0.1910 -0.7401 -0.2690
 5441TIP3   OH237813   4.614   4.068   5.898 -0.3802 -0.3287  0.0617
 5441TIP3    H137814   4.527   4.105   5.884  0.2084  1.6990  1.3575
 5441TIP3    H237815   4.636   4.090   5.988  1.8918  0.1981 -0.5376
 5442TIP3   OH237816   0.658   2.658   4.615 -0.0166 -0.4539  0.3983
 5442TIP3    H137817   0.732   2.661   4.675  0.2721 -1.2531  0.0963
 5442TIP3    H237818   0.616   2.574   4.633  0.1238 -0.7435 -0.5733
 5443TIP3   OH237819   5.456   5.259   1.773 -0.3739  0.0932 -0.1232
 5443TIP3    H137820   5.460   5.352   1.750  1.4328  0.1573  0.2591
 5443TIP3    H237821   5.389   5.253   1.840 -0.2402  1.1874  0.1295
 5444TIP3   OH237822   0.749   5.817   4.651  0.1313 -0.2065 -0.0435
 5444TIP3    H137823   0.842   5.802   4.632 -0.0995 -0.4839 -1.0046
 5444TIP3    H237824   0.738   5.912   4.646  0.5407 -0.0864  0.9923
 5445TIP3   OH237825   6.653   1.970   0.195  0.6309  0.3198 -0.0347
 5445TIP3    H137826   6.587   2.031   0.161 -0.7106 -1.4386 -0.7476
 5445TIP3    H237827   6.728   1.981   0.137 -0.4738 -0.3692 -1.6679
 5446TIP3   OH237828   5.272   5.373   2.891  0.1041  0.4053 -0.0747
 5446TIP3    H137829   5.243   5.411   2.808 -0.7907  1.9354  0.8950
 5446TIP3    H237830   5.264   5.444   2.955 -0.0148 -0.9505  1.5022
 5447TIP3   OH237831   2.491   6.014   4.765  0.5822  1.0306 -0.6021
 5447TIP3    H137832   2.468   6.034   4.856  1.6669  0.7103 -0.2348
 5447TIP3    H237833   2.413   5.972   4.729  0.7188 -0.4470  0.7051
 5448TIP3   OH237834   6.323   4.263   2.534 -0.0748 -0.3575 -0.4799
 5448TIP3    H137835   6.292   4.248   2.444  0.5888 -0.8363 -0.6342
 5448TIP3    H237836   6.312   4.358   2.546  2.7312  0.3192 -2.2256
 5449TIP3   OH237837   1.550   3.392  14.252 -0.2703 -0.2022 -0.9807
 5449TIP3    H137838   1.580   3.310  14.290  0.0370 -0.5236 -1.8944
 5449TIP3    H237839   1.458   3.376  14.229 -0.3295 -0.1459 -0.7932
 5450TIP3   OH237840   1.444   2.921  13.022  0.2781 -0.0990 -0.7630
 5450TIP3    H137841   1.531   2.957  13.037  0.0340  0.7606 -1.3555
 5450TIP3    H237842   1.460   2.832  12.989  0.9221  0.0640 -0.8979
 5451TIP3   OH237843   0.292   4.421  10.853 -0.7332 -0.2591 -0.2020
 5451TIP3    H137844   0.358   4.447  10.789 -0.9878  0.6811 -0.1042
 5451TIP3    H237845   0.227   4.492  10.851 -2.1415 -1.5295 -0.8419
 5452TIP3   OH237846   3.843   1.639   1.464  0.4686  0.2477 -0.2658
 5452TIP3    H137847   3.777   1.597   1.409 -0.8484  0.9388  0.7211
 5452TIP3    H237848   3.906   1.569   1.483  0.6132 -0.1675 -2.0611
 5453TIP3   OH237849   5.691   5.236  13.311  0.4423  0.0594  0.3004
 5453TIP3    H137850   5.760   5.262  13.373  0.8280  2.0350 -0.8760
 5453TIP3    H237851   5.738   5.191  13.241  0.3602  0.2130  0.1474
 5454TIP3   OH237852   2.152   1.973   1.342  0.5648 -0.9255 -0.0068
 5454TIP3    H137853   2.062   2.005   1.336  0.7573 -0.1846  0.9075
 5454TIP3    H237854   2.202   2.031   1.283  0.5183 -1.0703 -0.1903
 5455TIP3   OH237855   5.859   3.736  14.676 -0.2633  0.0720 -0.5604
 5455TIP3    H137856   5.830   3.815  14.631  0.5234  0.5601 -0.2257
 5455TIP3    H237857   5.784   3.677  14.670  0.3824 -0.6029 -4.0882
 5456TIP3   OH237858   1.545   0.861  11.249  0.4869 -0.3279 -0.1208
 5456TIP3    H137859   1.639   0.865  11.264  0.4315 -1.8699  0.8478
 5456TIP3    H237860   1.533   0.788  11.189 -0.1606 -0.9721  0.7518
 5457TIP3   OH237861   1.873   5.808   5.938  0.1061  0.4444  0.4505
 5457TIP3    H137862   1.869   5.820   5.843  2.5033 -0.0400  0.2342
 5457TIP3    H237863   1.819   5.731   5.955  0.2607  0.0899 -0.6108
 5458TIP3   OH237864   2.479   2.840   3.046  0.1632 -0.1128 -0.4478
 5458TIP3    H137865   2.516   2.929   3.048 -1.6896  0.7000  0.1733
 5458TIP3    H237866   2.401   2.846   3.101 -0.0197 -2.1439 -0.4335
 5459TIP3   OH237867   6.657   1.551  12.885 -0.2222  0.1683  1.0174
 5459TIP3    H137868   6.647   1.492  12.811 -1.5232  2.5236 -0.8573
 5459TIP3    H237869   6.731   1.607  12.862 -1.2562  1.5663  0.9845
 5460TIP3   OH237870   2.712   4.650   5.849  0.2704 -0.1584 -0.1458
 5460TIP3    H137871   2.681   4.693   5.929 -0.3744  0.5191 -0.7415
 5460TIP3    H237872   2.633   4.636   5.797  0.5472 -1.6212 -0.1921
 5461TIP3   OH237873   5.893   3.595   2.484 -0.0762  0.0149  0.1274
 5461TIP3    H137874   5.840   3.638   2.418 -0.4822  1.0425  1.0880
 5461TIP3    H237875   5.850   3.614   2.567  0.0373 -1.8121  0.6678
 5462TIP3   OH237876   5.448   0.108  13.329  0.1408 -0.3616  0.3322
 5462TIP3    H137877   5.464   0.162  13.252 -0.6893  1.1271  1.1482
 5462TIP3    H237878   5.419   0.023  13.294  1.3327 -0.2553 -0.9790
 5463TIP3   OH237879   1.447   2.519  15.721  0.1627  0.5720 -0.7010
 5463TIP3    H137880   1.370   2.474  15.688  1.1312 -0.3656 -1.7495
 5463TIP3    H237881   1.436   2.517  15.816 -1.2123  0.6734 -0.8367
 5464TIP3   OH237882   0.338   1.851  13.080 -0.1989  0.3743 -0.1561
 5464TIP3    H137883   0.288   1.927  13.109 -3.0373 -1.1036 -0.8161
 5464TIP3    H237884   0.366   1.874  12.991  1.8570  1.8498  0.7854
 5465TIP3   OH237885   3.520   5.677  16.002 -0.2325 -0.1908  0.3855
 5465TIP3    H137886   3.613   5.658  16.016 -0.3970 -2.3259 -1.0021
 5465TIP3    H237887   3.520   5.750  15.940  0.5259 -0.3424  0.1949
 5466TIP3   OH237888   1.791   2.724  13.111  0.3021  0.0690  0.2096
 5466TIP3    H137889   1.793   2.650  13.172  0.9096 -1.3493 -1.4521
 5466TIP3    H237890   1.874   2.718  13.063 -0.4952  0.6412 -1.3086
 5467TIP3   OH237891   2.316   1.569   4.061 -0.1087 -0.1914 -0.0111
 5467TIP3    H137892   2.337   1.491   4.009  2.4826 -0.4113  1.2068
 5467TIP3    H237893   2.332   1.642   4.002 -0.1874 -0.4974 -0.4202
 5468TIP3   OH237894   1.174   6.173  14.842 -0.6808  0.2032  0.0427
 5468TIP3    H137895   1.231   6.190  14.918  0.2365 -1.4724 -0.2254
 5468TIP3    H237896   1.183   6.252  14.789  2.5692 -0.4745 -0.6724
 5469TIP3   OH237897   1.958   5.714   3.548  0.3592 -0.6472  0.2430
 5469TIP3    H137898   1.991   5.797   3.583 -1.1181 -0.3648  1.0739
 5469TIP3    H237899   2.002   5.647   3.599  1.1874 -0.3638 -0.0846
 5470TIP3   OH237900   6.520   3.324   1.749  0.5420  0.5789  0.4889
 5470TIP3    H137901   6.452   3.362   1.804  2.2159 -0.0121  3.1577
 5470TIP3    H237902   6.593   3.307   1.809  2.0688 -1.2916 -1.7029
 5471TIP3   OH237903   2.662   2.002  12.863  0.4645  0.2333  0.0260
 5471TIP3    H137904   2.695   1.926  12.815 -0.2781  0.5709 -1.0371
 5471TIP3    H237905   2.683   1.983  12.955  1.1729 -0.7912 -0.3332
 5472TIP3   OH237906   4.792   3.822   4.175 -0.1616  0.5956  0.1283
 5472TIP3    H137907   4.819   3.867   4.094 -1.9276  1.2799 -0.1267
 5472TIP3    H237908   4.697   3.815   4.168 -0.2936  0.1359  1.8863
 5473TIP3   OH237909   0.278   0.809  11.233  0.0060  0.3617 -0.2900
 5473TIP3    H137910   0.257   0.854  11.152  1.6242  2.1379  0.2136
 5473TIP3    H237911   0.306   0.722  11.206 -0.2016  0.6803 -1.5606
 5474TIP3   OH237912   1.925   5.086  12.807 -0.2072  0.4871 -0.1779
 5474TIP3    H137913   1.928   5.126  12.720  1.3921  0.8005 -0.0218
 5474TIP3    H237914   1.967   5.001  12.796 -1.1153 -0.0052  0.0578
 5475TIP3   OH237915   2.760   5.402  10.390 -0.2571 -0.0250  0.6846
 5475TIP3    H137916   2.827   5.437  10.448 -0.8343 -0.4257  1.6042
 5475TIP3    H237917   2.782   5.310  10.379  0.7000  0.3607 -0.9514
 5476TIP3   OH237918   6.325   3.405   3.407 -0.0718 -0.4666 -0.6034
 5476TIP3    H137919   6.268   3.441   3.339 -0.6590  0.3561  0.3108
 5476TIP3    H237920   6.331   3.473   3.473  1.3280 -0.8550 -0.2894
 5477TIP3   OH237921   0.551   3.443  16.863 -0.4066 -0.4097  0.2854
 5477TIP3    H137922   0.632   3.448  16.812  0.8657 -0.0799  2.2104
 5477TIP3    H237923   0.526   3.351  16.860 -0.8974 -0.2575 -1.6349
 5478TIP3   OH237924   4.890   5.924  11.804 -0.2146  0.8798  0.4869
 5478TIP3    H137925   4.975   5.903  11.764 -0.0954  0.5367  0.9176
 5478TIP3    H237926   4.837   5.957  11.731  0.3959  1.4295  0.2778
 5479TIP3   OH237927   4.106   2.041   2.791 -0.0833 -0.1416  0.3698
 5479TIP3    H137928   4.112   2.071   2.700  0.4003 -2.0667 -0.2646
 5479TIP3    H237929   4.056   2.110   2.835  2.1401  2.2869 -0.6504
 5480TIP3   OH237930   6.393   0.132   3.898  0.2284  0.0273 -0.2015
 5480TIP3    H137931   6.394   0.121   3.993  1.1082 -0.8873 -0.3012
 5480TIP3    H237932   6.485   0.149   3.875  0.2768 -1.1987 -1.0321
 5481TIP3   OH237933   2.701   3.428   6.634 -0.3070  0.2934  0.0972
 5481TIP3    H137934   2.743   3.479   6.704 -2.3214  0.7300  1.0573
 5481TIP3    H237935   2.765   3.361   6.611  2.2311  2.8213 -0.7819
 5482TIP3   OH237936   4.181   4.406   3.155  0.4555 -0.2911  0.0792
 5482TIP3    H137937   4.088   4.405   3.134  0.5179  1.0176 -0.3866
 5482TIP3    H237938   4.224   4.430   3.073  1.2580 -1.3514  0.1616
 5483TIP3   OH237939   2.812   2.381  16.493 -0.0093 -0.4508  0.2306
 5483TIP3    H137940   2.842   2.442  16.426 -0.7036 -0.7209 -0.3427
 5483TIP3    H237941   2.740   2.426  16.537 -0.5907 -0.8699 -0.2609
 5484TIP3   OH237942   6.611   0.939  15.807 -0.0491  0.5519 -0.2209
 5484TIP3    H137943   6.670   0.903  15.872  0.6685 -0.9643 -1.6387
 5484TIP3    H237944   6.534   0.968  15.857  0.1025 -1.3364  1.2032
 5485TIP3   OH237945   6.581   0.260  11.440 -0.1429  0.0818  0.3832
 5485TIP3    H137946   6.530   0.272  11.360 -0.8842  0.5463  0.9215
 5485TIP3    H237947   6.516   0.252  11.509  0.4726 -1.1693  0.8392
 5486TIP3   OH237948   3.859   4.269   1.645 -0.3507 -0.4369  0.2286
 5486TIP3    H137949   3.932   4.209   1.661 -0.5817 -0.8600 -0.2766
 5486TIP3    H237950   3.901   4.351   1.621 -0.0294 -0.8640 -0.7387
 5487TIP3   OH237951   3.494   4.279   5.234 -0.0876  0.0282  0.3439
 5487TIP3    H137952   3.558   4.304   5.168 -0.9099  1.7728  0.1585
 5487TIP3    H237953   3.430   4.350   5.234 -1.9790 -1.6106  0.5982
 5488TIP3   OH237954   4.145   2.211   1.205  0.1618 -0.6374  0.0488
 5488TIP3    H137955   4.101   2.177   1.283 -0.2223  0.2119  0.2054
 5488TIP3    H237956   4.073   2.239   1.148  0.3947 -2.0623 -1.0049
 5489TIP3   OH237957   4.402   5.471  12.428 -0.2617  0.1248  0.7974
 5489TIP3    H137958   4.428   5.484  12.337  0.4521 -1.9498  0.6509
 5489TIP3    H237959   4.472   5.512  12.479  0.2120 -0.1996  0.4095
 5490TIP3   OH237960   4.580   6.088   5.086 -0.0181  0.1543  0.4577
 5490TIP3    H137961   4.630   6.026   5.140 -0.2886  0.8626  1.5592
 5490TIP3    H237962   4.642   6.117   5.019 -0.3950 -2.6397 -1.2467
 5491TIP3   OH237963   2.917   5.333   4.444 -0.0489 -0.4831 -0.6232
 5491TIP3    H137964   2.849   5.311   4.508  1.5582 -0.3104  1.2035
 5491TIP3    H237965   2.917   5.429   4.443  0.6484 -0.4699 -0.0547
 5492TIP3   OH237966   4.714   0.639   5.134  0.7958 -0.1136  0.8052
 5492TIP3    H137967   4.783   0.699   5.164  1.6371  0.2497 -1.5946
 5492TIP3    H237968   4.762   0.565   5.097 -0.1431 -0.4941  0.3230
 5493TIP3   OH237969   0.437   1.685   2.655 -0.6133  0.2249  0.0818
 5493TIP3    H137970   0.438   1.765   2.707  0.1898  0.8323 -0.8365
 5493TIP3    H237971   0.475   1.710   2.571  0.2359 -1.2553 -0.0132
 5494TIP3   OH237972   6.227   1.411   1.416 -0.4164  0.3463  0.1164
 5494TIP3    H137973   6.264   1.345   1.475 -1.5760 -0.5342 -0.0892
 5494TIP3    H237974   6.133   1.409   1.436 -0.4794  1.9284  0.0773
 5495TIP3   OH237975   3.362   5.479  14.149  0.2997  0.2124 -0.9363
 5495TIP3    H137976   3.455   5.464  14.164  0.5442  2.3428  0.0649
 5495TIP3    H237977   3.357   5.567  14.112 -1.4081  1.0967  1.1298
 5496TIP3   OH237978   2.646   4.033  14.547 -0.3676  0.0740 -0.8620
 5496TIP3    H137979   2.655   3.960  14.487 -1.7177  0.5084 -1.6232
 5496TIP3    H237980   2.621   3.993  14.631  1.0804 -0.4883 -0.6668
 5497TIP3   OH237981   0.181   2.470   5.515  0.2152  0.0516  0.3190
 5497TIP3    H137982   0.194   2.384   5.474  0.0086 -0.1657  0.7014
 5497TIP3    H237983   0.111   2.456   5.579 -0.5765  0.7563 -0.3655
 5498TIP3   OH237984   2.625   0.748   0.978  0.0023 -0.1919  0.2224
 5498TIP3    H137985   2.590   0.659   0.990 -1.3896  0.5101  1.7617
 5498TIP3    H237986   2.684   0.761   1.052  0.3816  0.0915 -0.1261
 5499TIP3   OH237987   4.637   4.189   0.467 -0.0550 -0.2987 -0.5682
 5499TIP3    H137988   4.719   4.161   0.506 -0.0375  0.3718 -0.1072
 5499TIP3    H237989   4.606   4.112   0.418 -0.1845 -1.2407  0.9304
 5500TIP3   OH237990   6.321   2.511   3.295  0.4403 -0.1512  0.4569
 5500TIP3    H137991   6.225   2.506   3.296  0.1608  2.9793 -0.0000
 5500TIP3    H237992   6.350   2.424   3.270 -2.1608 -2.0167  3.2799
 5501TIP3   OH237993   6.032   0.985  12.266 -0.5970  0.0401 -0.1397
 5501TIP3    H137994   5.974   0.953  12.197 -0.3376 -0.2937 -0.2067
 5501TIP3    H237995   6.083   0.908  12.291  1.3248  0.7783 -1.5653
 5502TIP3   OH237996   0.880   0.898  11.683 -0.5642  0.1415 -0.5746
 5502TIP3    H137997   0.966   0.874  11.648 -1.2514 -0.0582 -2.2130
 5502TIP3    H237998   0.880   0.866  11.773  0.7272 -0.6713 -0.8489
 5503TIP3   OH237999   1.726   4.822  13.625 -0.9171 -0.1389  0.4840
 5503TIP3    H138000   1.791   4.891  13.629 -1.2037  0.1521  0.2259
 5503TIP3    H238001   1.760   4.752  13.680 -1.0654  0.5840  1.5069
 5504TIP3   OH238002   1.390   3.666   1.714 -0.2025 -0.5019  0.8637
 5504TIP3    H138003   1.360   3.721   1.642  2.2215  0.0110  0.1463
 5504TIP3    H238004   1.392   3.724   1.790  2.5329  0.5941  0.0716
 5505TIP3   OH238005   4.263   3.008   4.967 -0.2013  0.2682 -0.0501
 5505TIP3    H138006   4.261   3.070   5.040 -0.6893 -0.3727  0.4977
 5505TIP3    H238007   4.224   3.055   4.893  2.0956  1.6237 -0.4869
 5506TIP3   OH238008   0.091   1.627   0.845  0.5052  0.3513 -0.2023
 5506TIP3    H138009   0.050   1.611   0.760 -1.9420  1.8178  0.6028
 5506TIP3    H238010   0.129   1.715   0.837  0.5468  0.3637  0.1286
 5507TIP3   OH238011   1.136   0.872  11.233  0.0959 -0.3272 -0.0531
 5507TIP3    H138012   1.194   0.832  11.298 -0.8817 -1.3812  0.1977
 5507TIP3    H238013   1.100   0.948  11.278  0.2811 -0.4067  0.2348
 5508TIP3   OH238014   1.589   4.895  11.284  0.3088 -0.4550  0.4746
 5508TIP3    H138015   1.505   4.936  11.308 -0.6993 -2.3286  0.3332
 5508TIP3    H238016   1.628   4.872  11.368 -0.4036 -1.5816  0.5256
 5509TIP3   OH238017   4.523   0.783   0.661 -0.5683 -0.3803  0.2131
 5509TIP3    H138018   4.603   0.823   0.626 -0.4052 -0.8095  0.0923
 5509TIP3    H238019   4.455   0.849   0.645 -0.9506 -1.3614 -2.9065
 5510TIP3   OH238020   5.790   3.186   1.286 -0.5856 -0.1708  0.2140
 5510TIP3    H138021   5.871   3.198   1.236 -1.9676  0.4059 -2.0387
 5510TIP3    H238022   5.765   3.274   1.313 -0.9366 -0.2487  0.1372
 5511TIP3   OH238023   1.651   6.060   1.897 -0.1143  0.2298  0.1452
 5511TIP3    H138024   1.642   6.059   1.992 -1.4386 -0.8352  0.0466
 5511TIP3    H238025   1.604   6.139   1.870 -3.3325 -1.4581  0.1877
 5512TIP3   OH238026   0.133   5.340   2.883 -0.4324 -0.2814  0.4760
 5512TIP3    H138027   0.164   5.427   2.908 -1.0656  0.1912 -0.3252
 5512TIP3    H238028   0.051   5.357   2.835 -0.9536 -1.3682  0.9610
 5513TIP3   OH238029   5.809   2.332   3.829 -0.0499 -0.1321 -0.7570
 5513TIP3    H138030   5.835   2.375   3.911 -1.8783  3.0400 -1.6792
 5513TIP3    H238031   5.882   2.347   3.769  0.7053 -1.2687 -0.1632
 5514TIP3   OH238032   2.755   3.791   1.280  0.2468 -0.2196  0.0168
 5514TIP3    H138033   2.804   3.862   1.321 -0.1032  0.4872 -0.7571
 5514TIP3    H238034   2.664   3.820   1.283  0.1620 -0.3773 -0.8133
 5515TIP3   OH238035   6.335   2.757  13.983  0.2450 -0.3010  0.0872
 5515TIP3    H138036   6.362   2.689  14.044  1.0068 -1.4503 -1.4639
 5515TIP3    H238037   6.241   2.741  13.969  0.2397 -0.5116  0.3547
 5516TIP3   OH238038   5.916   5.682   1.602  0.4295  0.3532 -0.6756
 5516TIP3    H138039   5.865   5.651   1.677  0.1713  0.2697 -0.8840
 5516TIP3    H238040   5.883   5.631   1.528  0.4719  0.6496 -0.8997
 5517TIP3   OH238041   4.823   3.570  14.504 -0.5740 -0.4265 -0.2717
 5517TIP3    H138042   4.837   3.552  14.411  2.5108 -1.4776  0.2646
 5517TIP3    H238043   4.851   3.661  14.515 -0.9896 -0.2858 -0.3901
 5518TIP3   OH238044   4.640   5.028   1.700 -0.1008 -0.3810  0.3067
 5518TIP3    H138045   4.601   5.074   1.627 -0.6877 -1.6574 -0.2158
 5518TIP3    H238046   4.612   5.076   1.778  2.8173  2.7065 -0.3241
 5519TIP3   OH238047   3.337   3.313   1.607 -0.6323 -0.1925  0.0701
 5519TIP3    H138048   3.283   3.244   1.645 -0.1593 -1.4382 -1.4141
 5519TIP3    H238049   3.280   3.356   1.543 -0.5973  0.1053  0.2351
 5520TIP3   OH238050   5.647   2.871  13.875 -0.0757 -0.1524  0.0782
 5520TIP3    H138051   5.570   2.857  13.932  0.9357 -0.6185  1.3868
 5520TIP3    H238052   5.695   2.942  13.917 -0.2549  0.7963 -1.2635
 5521TIP3   OH238053   1.002   2.342   2.912 -0.0482 -0.6313 -0.1153
 5521TIP3    H138054   0.918   2.310   2.877 -0.3023 -0.8804  0.6963
 5521TIP3    H238055   1.057   2.264   2.915  0.4163 -0.3620 -1.1834
 5522TIP3   OH238056   0.545   2.569   3.585  0.8178 -0.1955  0.0396
 5522TIP3    H138057   0.466   2.602   3.627  0.6922 -0.1103 -0.2622
 5522TIP3    H238058   0.531   2.583   3.492  0.9893 -0.6124 -0.0543
 5523TIP3   OH238059   1.486   1.371   3.882  0.1638 -0.5253  0.0472
 5523TIP3    H138060   1.407   1.414   3.915  1.0143  0.0219  1.4766
 5523TIP3    H238061   1.471   1.361   3.788 -2.7620 -2.9553  0.6350
 5524TIP3   OH238062   4.574   2.324  12.230 -0.9078  0.1724 -0.2148
 5524TIP3    H138063   4.633   2.249  12.232 -0.0172  0.8629  0.5723
 5524TIP3    H238064   4.496   2.293  12.183  0.4522 -0.4704 -2.1558
 5525TIP3   OH238065   0.718   2.471   3.850 -0.1885 -0.0666 -0.1678
 5525TIP3    H138066   0.800   2.448   3.891 -0.6661  0.6709  1.2543
 5525TIP3    H238067   0.741   2.487   3.758  1.7724  2.6959  0.6809
 5526TIP3   OH238068   1.070   1.408  16.871 -0.3951  0.2457  0.0651
 5526TIP3    H138069   1.123   1.343  16.824 -0.3472  0.4062 -0.1061
 5526TIP3    H238070   1.099   1.492  16.834 -0.3987  0.3675  0.3423
 5527TIP3   OH238071   5.851   3.499  12.947  0.4241 -0.0432  0.3386
 5527TIP3    H138072   5.894   3.515  12.863 -0.2776 -1.0102 -0.2208
 5527TIP3    H238073   5.870   3.407  12.966 -1.9081 -0.7163 -0.2611
 5528TIP3   OH238074   0.520   4.906   1.265 -0.0935 -0.1564  1.0264
 5528TIP3    H138075   0.524   4.853   1.345  1.7659 -1.2156  0.2850
 5528TIP3    H238076   0.492   4.844   1.198 -1.5712  0.7144  0.8001
 5529TIP3   OH238077   3.965   1.233   4.273 -0.2201 -0.2221 -0.3143
 5529TIP3    H138078   3.967   1.329   4.273  1.8916 -0.2257  0.3507
 5529TIP3    H238079   3.964   1.209   4.366  0.2450 -0.8459 -0.4659
 5530TIP3   OH238080   6.261   0.898   1.742  0.0770  0.1494 -0.2082
 5530TIP3    H138081   6.293   0.825   1.689  1.1994  0.0940  0.4971
 5530TIP3    H238082   6.276   0.976   1.688 -0.8430 -0.0965 -0.8390
 5531TIP3   OH238083   5.069   5.694  15.808  0.4878  0.0461 -0.1387
 5531TIP3    H138084   5.124   5.616  15.808  0.3242 -0.0790 -1.0512
 5531TIP3    H238085   5.100   5.745  15.883  0.7281 -0.7911  0.3513
 5532TIP3   OH238086   0.310   6.472   4.782  0.0059  0.4555  0.1695
 5532TIP3    H138087   0.346   6.467   4.871  0.1585 -0.0464  0.0834
 5532TIP3    H238088   0.331   6.560   4.753  2.4386 -0.2436 -0.3939
 5533TIP3   OH238089   3.814   5.154   0.834  0.1010  1.0530 -0.5414
 5533TIP3    H138090   3.731   5.181   0.874 -0.5876 -0.4333 -0.9079
 5533TIP3    H238091   3.867   5.122   0.907 -0.8011 -0.7744 -0.6201
 5534TIP3   OH238092   0.595   5.660  15.903  0.4184  0.7605  0.3022
 5534TIP3    H138093   0.569   5.626  15.989 -1.3601 -0.3612 -0.6195
 5534TIP3    H238094   0.672   5.609  15.879 -0.6142 -0.7681  0.1308
 5535TIP3   OH238095   2.611   1.646  13.990  0.5582 -0.5405  0.1435
 5535TIP3    H138096   2.522   1.622  14.015 -0.1558  0.9773 -0.7573
 5535TIP3    H238097   2.601   1.729  13.943  2.2472 -1.1770 -1.4970
 5536TIP3   OH238098   6.789   1.844  11.631 -0.1741  0.6811 -0.8224
 5536TIP3    H138099   6.718   1.789  11.598  1.6750 -2.2812 -0.3571
 5536TIP3    H238100   6.849   1.853  11.557  0.1921  0.8985 -0.5039
 5537TIP3   OH238101   2.825   1.754  11.562  0.0849 -0.2530  0.0055
 5537TIP3    H138102   2.842   1.843  11.593 -0.1007 -0.4191  0.6012
 5537TIP3    H238103   2.841   1.699  11.639  0.5908 -0.7702 -0.4696
 5538TIP3   OH238104   4.081   1.819  13.509 -0.4647 -0.0156  0.1023
 5538TIP3    H138105   4.041   1.862  13.585 -0.5776 -0.2802  0.1921
 5538TIP3    H238106   4.075   1.884  13.439 -1.7454 -0.3284 -0.0992
 5539TIP3   OH238107   4.424   3.195   4.258  0.1177  0.4198 -0.1458
 5539TIP3    H138108   4.429   3.287   4.232 -0.7084  0.3538 -0.5743
 5539TIP3    H238109   4.372   3.154   4.189 -1.3840  0.0731  1.1452
 5540TIP3   OH238110   4.163   4.697  11.982 -0.8373  0.6231  0.1618
 5540TIP3    H138111   4.199   4.741  12.058  2.6564 -2.1668  0.4074
 5540TIP3    H238112   4.117   4.621  12.017  0.0529 -0.2126 -0.4255
 5541TIP3   OH238113   5.595   2.544   2.497 -0.0719 -1.1910  0.7915
 5541TIP3    H138114   5.652   2.599   2.443 -0.0039  0.0695  2.0639
 5541TIP3    H238115   5.655   2.488   2.546  0.1118  0.0188  2.0056
 5542TIP3   OH238116   6.647   5.775  11.037 -0.7168  0.2595 -0.0704
 5542TIP3    H138117   6.638   5.756  10.943  0.7050  0.3961 -0.2552
 5542TIP3    H238118   6.740   5.794  11.049 -1.1111  1.6190  1.1256
 5543TIP3   OH238119   2.146   1.899   4.430  0.1444 -0.0249  0.0163
 5543TIP3    H138120   2.144   1.888   4.525 -1.8413  0.3824  0.0576
 5543TIP3    H238121   2.141   1.993   4.416 -3.3275 -0.1211 -0.4230
 5544TIP3   OH238122   2.219   2.955  14.519 -0.0918 -0.0519 -0.2219
 5544TIP3    H138123   2.213   3.006  14.438  2.6125  3.2656  1.3979
 5544TIP3    H238124   2.286   2.889  14.502 -0.2161  0.0059 -0.9587
 5545TIP3   OH238125   3.824   5.328  11.767  0.4057 -0.0205 -0.3095
 5545TIP3    H138126   3.815   5.244  11.723 -0.8159  0.3679 -0.8334
 5545TIP3    H238127   3.764   5.323  11.842 -0.3343  0.6869 -0.8370
 5546TIP3   OH238128   5.850   3.461   2.980 -0.2509  0.2474  0.0463
 5546TIP3    H138129   5.838   3.454   3.075  0.5454  0.7592  0.1939
 5546TIP3    H238130   5.848   3.556   2.963 -1.3575  0.1307 -0.5860
 5547TIP3   OH238131   5.579   6.164  12.789 -0.8304  0.6765 -0.3947
 5547TIP3    H138132   5.486   6.154  12.767 -1.2757  1.1921  1.1066
 5547TIP3    H238133   5.600   6.254  12.764 -0.4461  0.2698 -1.6207
 5548TIP3   OH238134   3.632   5.774   0.416  0.3678  0.2571  0.6101
 5548TIP3    H138135   3.583   5.802   0.494 -0.7226 -0.9073  0.3799
 5548TIP3    H238136   3.638   5.679   0.425  1.2398  0.2272 -0.1683
 5549TIP3   OH238137   5.783   3.156  15.819 -0.0930 -0.2017 -0.4067
 5549TIP3    H138138   5.858   3.210  15.843 -0.7882  0.7127 -0.2531
 5549TIP3    H238139   5.770   3.098  15.894 -0.5871  0.8033  0.3001
 5550TIP3   OH238140   5.160   2.367   5.448  0.4705 -0.3011 -0.0108
 5550TIP3    H138141   5.138   2.461   5.450  0.0543 -0.4044  2.1320
 5550TIP3    H238142   5.078   2.323   5.470  0.0643 -1.3750 -3.1090
 5551TIP3   OH238143   1.755   6.029  16.825 -0.2886 -0.1166  0.0651
 5551TIP3    H138144   1.817   6.102  16.822  0.4587 -0.7620 -0.9575
 5551TIP3    H238145   1.677   6.062  16.780 -0.9623  0.9096  1.8969
 5552TIP3   OH238146   1.509   6.344  13.726 -0.0814  0.1641  0.7178
 5552TIP3    H138147   1.485   6.396  13.802 -0.1711  0.7759  0.2779
 5552TIP3    H238148   1.589   6.385  13.693  0.6682 -0.8681  1.2159
 5553TIP3   OH238149   0.095   4.772  10.539  0.4326  0.4916  0.6800
 5553TIP3    H138150   0.177   4.734  10.506  0.2472 -0.2610  1.0445
 5553TIP3    H238151   0.081   4.729  10.623 -2.0463 -2.0117 -0.8022
 5554TIP3   OH238152   3.000   4.371   5.221 -0.0861  0.1759 -0.1153
 5554TIP3    H138153   2.906   4.375   5.236 -0.0588 -2.0746  1.0499
 5554TIP3    H238154   3.012   4.406   5.133 -2.0717  0.0598 -0.4685
 5555TIP3   OH238155   5.806   4.433   4.880  0.2904  0.3758  0.0626
 5555TIP3    H138156   5.767   4.408   4.965 -0.7591 -0.9299 -0.7532
 5555TIP3    H238157   5.851   4.515   4.898  1.0842 -0.4214  2.1730
 5556TIP3   OH238158   4.597   3.972   3.598 -0.2801  0.2755 -0.0725
 5556TIP3    H138159   4.598   3.943   3.507 -1.8849  0.7206 -0.2791
 5556TIP3    H238160   4.504   3.976   3.620  0.0910 -0.1623  1.7120
 5557TIP3   OH238161   0.056   2.738  14.102  0.6378 -0.2232 -0.0376
 5557TIP3    H138162   0.025   2.785  14.025  2.1239  2.5882  0.9526
 5557TIP3    H238163   0.130   2.686  14.070 -0.4469 -1.2628 -0.9672
 5558TIP3   OH238164   3.014   6.471   1.008 -0.2954  0.3896  0.5083
 5558TIP3    H138165   2.945   6.530   1.040 -0.2269  0.6641  0.1595
 5558TIP3    H238166   3.034   6.415   1.082  0.1101  1.2476  1.0655
 5559TIP3   OH238167   3.979   5.280   6.480 -0.1644  0.5126  0.4459
 5559TIP3    H138168   4.035   5.357   6.487 -0.1677  0.4612  1.0505
 5559TIP3    H238169   4.036   5.211   6.447 -0.4172  1.0480 -1.2278
 5560TIP3   OH238170   4.571   4.020  16.228 -0.2926 -0.5145  0.0757
 5560TIP3    H138171   4.591   3.928  16.213  0.8707 -0.2282 -0.2191
 5560TIP3    H238172   4.634   4.068  16.175 -1.1201  0.4623 -0.0649
 5561TIP3   OH238173   2.021   2.406   2.160  0.6149 -0.1946  0.0012
 5561TIP3    H138174   2.069   2.487   2.174 -1.4326  1.7375 -2.8354
 5561TIP3    H238175   1.966   2.396   2.237  0.4869  1.5009  0.1606
 5562TIP3   OH238176   3.432   0.384  11.138  0.1902 -0.0495 -0.1286
 5562TIP3    H138177   3.488   0.457  11.162  0.5260 -0.5351  0.6209
 5562TIP3    H238178   3.493   0.313  11.117 -0.1321 -0.1613 -0.7027
 5563TIP3   OH238179   1.165   3.218   1.646  0.4644  0.2558 -0.3029
 5563TIP3    H138180   1.213   3.285   1.597  0.4065  0.0182 -0.6866
 5563TIP3    H238181   1.112   3.268   1.708  1.2159  0.5201  0.1437
 5564TIP3   OH238182   1.776   3.598   3.948 -0.3117  0.0688 -0.3565
 5564TIP3    H138183   1.697   3.544   3.949 -0.3519  0.1341  0.6098
 5564TIP3    H238184   1.847   3.535   3.939 -0.3463 -0.1946  0.9206
 5565TIP3   OH238185   4.168   5.219   0.036  0.1763  0.3876 -1.0207
 5565TIP3    H138186   4.172   5.273  -0.042  0.3669  2.5036  0.3613
 5565TIP3    H238187   4.215   5.270   0.103 -0.2071 -1.1964  0.5500
 5566TIP3   OH238188   0.931   2.352  14.548 -1.0646  0.1724 -0.8439
 5566TIP3    H138189   0.916   2.315  14.635 -3.3395  0.5096 -1.0380
 5566TIP3    H238190   1.005   2.302  14.513 -0.1301 -0.0199  1.2241
 5567TIP3   OH238191   1.051   0.939   0.712 -0.1312 -0.0423 -0.1977
 5567TIP3    H138192   1.127   0.901   0.757  0.0050 -0.0398 -0.4204
 5567TIP3    H238193   1.074   1.031   0.699  0.2465 -0.2515 -1.1239
 5568TIP3   OH238194   3.169   5.371   2.979 -0.4908  0.2641  0.9513
 5568TIP3    H138195   3.177   5.284   3.018 -0.2421  0.6128  1.7090
 5568TIP3    H238196   3.074   5.387   2.977 -0.5218  0.1124  1.1249
 5569TIP3   OH238197   5.272   1.862  12.681  0.2169 -0.9773  0.9889
 5569TIP3    H138198   5.258   1.875  12.775 -0.0547  0.9686  0.7198
 5569TIP3    H238199   5.304   1.772  12.674 -0.0756 -1.2752  2.9025
 5570TIP3   OH238200   0.315   2.057   2.528  0.3167  0.0173  0.0439
 5570TIP3    H138201   0.258   2.040   2.453 -1.0022  1.3042  0.6960
 5570TIP3    H238202   0.275   2.132   2.572  3.3800  2.0273 -0.2966
 5571TIP3   OH238203   6.471   4.721   5.655 -0.4606  0.0544 -0.1914
 5571TIP3    H138204   6.428   4.758   5.578  0.5673 -0.2416 -0.9423
 5571TIP3    H238205   6.505   4.796   5.702  1.0480  0.1700 -1.3615
 5572TIP3   OH238206   0.402   2.791   5.262  0.4775  0.2676 -0.3874
 5572TIP3    H138207   0.399   2.886   5.253 -1.2078  0.3282  0.3150
 5572TIP3    H238208   0.437   2.776   5.350 -2.8861  0.4795  1.1896
 5573TIP3   OH238209   1.207   3.069  17.089 -0.0802 -0.7756 -0.2267
 5573TIP3    H138210   1.217   3.078  16.994 -0.6003  0.3046 -0.1900
 5573TIP3    H238211   1.252   2.986  17.110 -0.7369 -1.4849 -1.5180
 5574TIP3   OH238212   5.064   2.801  14.034  0.3485 -0.0772  0.4599
 5574TIP3    H138213   5.022   2.727  13.990 -0.2246  0.5229 -0.0331
 5574TIP3    H238214   5.156   2.776  14.039  1.0044  0.8031 -3.3969
 5575TIP3   OH238215   3.231   0.450  13.630 -0.6043  0.0962  0.1266
 5575TIP3    H138216   3.197   0.398  13.557  0.5877  1.3691 -1.3899
 5575TIP3    H238217   3.223   0.541  13.600  0.0871  0.6368  1.5192
 5576TIP3   OH238218   2.322   5.284  13.502  0.1581  0.5347  0.1158
 5576TIP3    H138219   2.396   5.224  13.490 -0.1015  0.5827 -2.1140
 5576TIP3    H238220   2.251   5.228  13.531  0.2648 -0.0446 -0.7061
 5577TIP3   OH238221   2.074   4.416   3.988  0.7345 -0.0042  0.5945
 5577TIP3    H138222   2.159   4.417   4.032  0.8986 -0.0071  0.2814
 5577TIP3    H238223   2.033   4.499   4.012  0.7971 -0.0299  0.7961
 5578TIP3   OH238224   3.367   0.010  15.764  0.4507 -0.0134  0.4795
 5578TIP3    H138225   3.345   0.103  15.773  1.3285  0.1460  1.0627
 5578TIP3    H238226   3.407  -0.014  15.847  1.4184 -0.5834 -0.1207
 5579TIP3   OH238227   5.343   2.145   4.507 -0.5786  0.5659  0.1256
 5579TIP3    H138228   5.339   2.062   4.554 -2.1194  1.0594  0.9261
 5579TIP3    H238229   5.351   2.212   4.575 -0.2248  1.1381 -0.4620
 5580TIP3   OH238230   1.883   5.241  14.824 -0.8875 -0.6607  0.5340
 5580TIP3    H138231   1.838   5.263  14.742 -1.4922  1.4676  1.3659
 5580TIP3    H238232   1.971   5.277  14.813 -0.4442 -1.7733  0.2529
 5581TIP3   OH238233   1.857   2.839   3.577  0.0337  0.0190  0.2794
 5581TIP3    H138234   1.898   2.820   3.661 -1.9801 -0.1347  1.2650
 5581TIP3    H238235   1.861   2.756   3.529  2.3409  0.4255 -0.3527
 5582TIP3   OH238236   3.191   1.444  10.519 -0.0685 -0.0532 -0.0614
 5582TIP3    H138237   3.216   1.427  10.610 -1.1319  0.3567  0.3294
 5582TIP3    H238238   3.249   1.515  10.491  0.4510 -0.3692  0.2007
 5583TIP3   OH238239   6.796   2.088  16.636  0.0881  0.0142  0.4813
 5583TIP3    H138240   6.798   2.100  16.541  2.4178 -1.4886  0.2619
 5583TIP3    H238241   6.852   2.157  16.670  0.0919 -0.0890  0.6858
 5584TIP3   OH238242   3.854   2.353   4.971  0.3231  0.3297  0.3486
 5584TIP3    H138243   3.772   2.366   5.019  1.3626  0.1101  2.2886
 5584TIP3    H238244   3.877   2.261   4.987  1.9319  0.8962  1.5403
 5585TIP3   OH238245   3.776   5.898   4.317  0.4773  0.2009 -0.0197
 5585TIP3    H138246   3.690   5.881   4.279  0.7053 -1.0498 -0.0154
 5585TIP3    H238247   3.824   5.941   4.246  0.0835  0.2296 -0.2758
 5586TIP3   OH238248   3.345   2.054  16.923 -0.5502  0.2023 -0.7697
 5586TIP3    H138249   3.408   2.005  16.870 -0.5635  1.2655 -1.8146
 5586TIP3    H238250   3.339   2.139  16.880 -0.7438  1.0289  0.8236
 5587TIP3   OH238251   5.034   5.158  13.598 -0.4862 -0.0227  0.3726
 5587TIP3    H138252   5.127   5.176  13.588 -0.4832  0.1563  0.7204
 5587TIP3    H238253   4.998   5.165  13.510 -0.0697 -0.6510  0.1470
 5588TIP3   OH238254   6.383   3.280  11.423  0.0912  0.2740  0.2023
 5588TIP3    H138255   6.329   3.208  11.456  0.0896  0.6826  1.1135
 5588TIP3    H238256   6.328   3.322  11.357  0.6133 -1.3698 -1.3538
 5589TIP3   OH238257   3.646   4.825   3.108 -0.6758  0.2526  0.5835
 5589TIP3    H138258   3.671   4.914   3.082  0.4064 -0.1515  0.1602
 5589TIP3    H238259   3.682   4.815   3.196 -0.7370  0.2167  0.6042
 5590TIP3   OH238260   3.537   0.968  13.145  0.3496 -0.5488 -0.0134
 5590TIP3    H138261   3.565   1.054  13.176  0.2279  0.0590 -1.5193
 5590TIP3    H238262   3.455   0.951  13.191 -0.1987  0.6375 -0.5363
 5591TIP3   OH238263   0.755   1.252  14.324  0.2260 -0.0616  0.3008
 5591TIP3    H138264   0.832   1.309  14.316  0.4195 -0.4847 -1.0557
 5591TIP3    H238265   0.695   1.300  14.382  1.3567  0.4271  1.0896
 5592TIP3   OH238266   4.479   4.070  14.300 -0.0307 -0.4635  0.1894
 5592TIP3    H138267   4.391   4.040  14.275 -0.7203  0.9781  0.7806
 5592TIP3    H238268   4.502   4.133  14.232  0.5317 -0.7872  0.0750
 5593TIP3   OH238269   0.261   5.770  12.108  0.2830  0.3047 -0.0239
 5593TIP3    H138270   0.331   5.786  12.044  0.2344 -0.6708 -0.3332
 5593TIP3    H238271   0.181   5.795  12.063  0.2692 -0.1810 -0.2711
 5594TIP3   OH238272   6.467   1.271  13.552  0.2316  0.0661 -0.0373
 5594TIP3    H138273   6.487   1.188  13.593 -1.2359 -0.0387  0.5195
 5594TIP3    H238274   6.511   1.267  13.467  0.3489 -1.1839  0.0638
 5595TIP3   OH238275   1.591   2.629  12.959 -0.1844  0.2152 -0.7452
 5595TIP3    H138276   1.660   2.674  13.007 -0.2132  1.5116 -1.8521
 5595TIP3    H238277   1.636   2.590  12.883 -0.2489 -1.2334 -0.0808
 5596TIP3   OH238278   1.808   3.704   2.553  0.3511 -0.5172 -0.2921
 5596TIP3    H138279   1.846   3.786   2.586  1.9583 -2.0522  1.9012
 5596TIP3    H238280   1.739   3.733   2.494  0.7400  2.4313  0.5166
 5597TIP3   OH238281   3.166   4.075  13.177 -0.4859  0.4611 -0.2940
 5597TIP3    H138282   3.140   4.056  13.087 -1.8407 -0.8484  0.3306
 5597TIP3    H238283   3.148   4.168  13.187  0.1900  0.7506 -1.5188
 5598TIP3   OH238284   0.519   1.991   0.437 -0.2365 -0.3117  0.4497
 5598TIP3    H138285   0.589   2.000   0.501 -0.2237 -2.5417  0.8483
 5598TIP3    H238286   0.559   1.942   0.364 -1.0589 -0.5820  0.1660
 5599TIP3   OH238287   4.054   0.357   1.997  0.0772 -0.0785  0.3259
 5599TIP3    H138288   3.960   0.375   1.990 -0.3021 -1.9712 -0.1079
 5599TIP3    H238289   4.071   0.357   2.091 -0.8999 -1.9732  0.5559
 5600TIP3   OH238290   4.907   6.557  15.285 -0.1823 -0.0950  0.1640
 5600TIP3    H138291   4.903   6.478  15.339 -0.8517 -0.4809 -0.4237
 5600TIP3    H238292   4.872   6.529  15.200 -0.8529  0.9439  0.0762
 5601TIP3   OH238293   6.092   3.701   1.977  0.0203  0.0580 -0.7024
 5601TIP3    H138294   6.002   3.717   2.006  0.4929 -1.9832  2.2302
 5601TIP3    H238295   6.137   3.784   1.993 -0.6317  0.1362  0.8555
 5602TIP3   OH238296   0.859   1.108  11.912  0.0951 -0.0634 -0.2988
 5602TIP3    H138297   0.951   1.112  11.885  0.2604 -1.0786  0.0570
 5602TIP3    H238298   0.840   1.014  11.917 -0.8904  0.1376 -0.1211
 5603TIP3   OH238299   0.755   2.049  12.015  0.2148 -1.0821 -0.0437
 5603TIP3    H138300   0.825   2.113  12.000  0.2914 -0.4569  2.4911
 5603TIP3    H238301   0.674   2.096  11.993  0.3017 -0.1865  1.4212
 5604TIP3   OH238302   0.299   0.258  12.123  0.4828 -0.0371  0.5608
 5604TIP3    H138303   0.318   0.293  12.210 -0.4367  2.0968 -0.0395
 5604TIP3    H238304   0.234   0.189  12.139  0.5024  0.1638  1.5914
 5605TIP3   OH238305   3.748   2.901   0.127 -0.3822  0.0585 -0.6329
 5605TIP3    H138306   3.733   2.986   0.168  3.5185  0.1878  0.9609
 5605TIP3    H238307   3.722   2.838   0.194  1.3840  0.1821  0.2247
 5606TIP3   OH238308   4.778   5.485   5.707  0.1835 -0.2140 -0.5715
 5606TIP3    H138309   4.831   5.429   5.764 -0.7388 -0.8081 -0.2916
 5606TIP3    H238310   4.797   5.453   5.619 -0.0585 -0.7133 -0.4390
 5607TIP3   OH238311   6.833   6.479  12.633  0.4295  0.4663  0.1560
 5607TIP3    H138312   6.888   6.545  12.591  0.0645  0.2214 -0.7479
 5607TIP3    H238313   6.818   6.512  12.721 -0.6923  2.1831 -0.6295
 5608TIP3   OH238314   6.271   3.044  14.738  0.2642 -0.2172  0.4695
 5608TIP3    H138315   6.226   2.961  14.757 -0.7612  0.2822  0.2810
 5608TIP3    H238316   6.352   3.017  14.695 -0.2174 -1.1190  0.0861
 5609TIP3   OH238317   0.646   2.499  13.002 -0.1582  0.3288  0.1647
 5609TIP3    H138318   0.587   2.480  13.076  0.2965 -0.1594  0.4048
 5609TIP3    H238319   0.734   2.481  13.036  0.0766  0.3593 -0.4174
 5610TIP3   OH238320   6.055   0.459   4.279 -0.3412  0.5384  0.3293
 5610TIP3    H138321   5.989   0.483   4.345  1.1307  1.3290  1.5948
 5610TIP3    H238322   6.104   0.387   4.319 -1.2832 -1.0158 -1.1993
 5611TIP3   OH238323   5.583   1.115  10.820  0.0848  0.0670 -0.8943
 5611TIP3    H138324   5.489   1.118  10.837 -0.0153 -3.3454  0.0015
 5611TIP3    H238325   5.617   1.196  10.857 -2.2595  0.3454  0.8955
 5612TIP3   OH238326   1.935   1.877  10.798  0.3433 -0.1560  0.0243
 5612TIP3    H138327   1.868   1.817  10.830  0.0679  1.3746  2.6399
 5612TIP3    H238328   1.888   1.959  10.780  1.2513  0.4651  0.3742
 5613TIP3   OH238329   2.231   0.270   5.079 -0.5989 -0.2804 -0.1333
 5613TIP3    H138330   2.323   0.285   5.103 -0.5735  0.8741 -0.9106
 5613TIP3    H238331   2.191   0.357   5.080 -1.0666 -0.4257 -2.3183
 5614TIP3   OH238332   0.762   0.053  11.397  0.2662 -0.0772 -0.2893
 5614TIP3    H138333   0.817   0.040  11.474 -0.1230  0.5406  0.1010
 5614TIP3    H238334   0.815   0.104  11.337  1.4612 -2.4862 -1.4491
 5615TIP3   OH238335   6.552   4.174  12.001  0.2524 -0.1638  0.2996
 5615TIP3    H138336   6.583   4.237  12.066 -0.2815 -0.5717  0.9683
 5615TIP3    H238337   6.618   4.176  11.932  0.4743  0.7964  0.5163
 5616TIP3   OH238338   5.629   6.549  15.327  0.0658  0.2766  0.2030
 5616TIP3    H138339   5.536   6.532  15.341 -0.2667  2.9093  1.9356
 5616TIP3    H238340   5.631   6.630  15.276  1.4239 -0.0574 -0.3114
 5617TIP3   OH238341   1.413   2.000   3.742  0.6454  0.3081  0.1708
 5617TIP3    H138342   1.335   1.972   3.694  0.6644  0.2573  0.1698
 5617TIP3    H238343   1.482   1.941   3.713  1.5052  2.3088 -2.2633
 5618TIP3   OH238344   0.810   4.571   5.301  0.4753 -0.2025  0.6470
 5618TIP3    H138345   0.743   4.636   5.279  1.5639  1.6457  2.4122
 5618TIP3    H238346   0.831   4.589   5.393  1.5281 -2.4557  0.9106
 5619TIP3   OH238347   5.752   2.278  12.742 -0.5873 -0.2543 -0.1887
 5619TIP3    H138348   5.720   2.367  12.755  1.7680  0.5312  0.8755
 5619TIP3    H238349   5.692   2.240  12.678 -2.4418  1.6357  0.3035
 5620TIP3   OH238350   3.329   3.769  14.588 -0.0638  0.6855  0.0429
 5620TIP3    H138351   3.285   3.687  14.609 -0.6294  0.9577 -0.0672
 5620TIP3    H238352   3.413   3.742  14.550 -0.1296  0.1648  0.2595
 5621TIP3   OH238353   4.574   2.072  14.881  0.6682 -0.4082  0.4175
 5621TIP3    H138354   4.621   2.021  14.814 -1.0991  0.8566 -1.9030
 5621TIP3    H238355   4.638   2.137  14.911  1.0750 -0.0883 -1.0909
 5622TIP3   OH238356   0.571   5.723   1.698 -0.5146  0.0608  0.0827
 5622TIP3    H138357   0.653   5.709   1.650 -0.8884 -0.8862 -0.2928
 5622TIP3    H238358   0.570   5.817   1.716 -0.9277  0.7206 -2.8100
 5623TIP3   OH238359   2.700   6.788  15.489 -0.1868  0.2021 -0.5519
 5623TIP3    H138360   2.727   6.753  15.404 -1.3404 -2.7562  0.1577
 5623TIP3    H238361   2.774   6.769  15.547 -0.0452  0.7350 -0.5554
 5624TIP3   OH238362   6.633   0.662   0.640  0.1202  0.7018 -0.7992
 5624TIP3    H138363   6.715   0.711   0.632  0.0688  0.9350  0.0543
 5624TIP3    H238364   6.640   0.593   0.574  2.0668 -0.8037  0.8790
 5625TIP3   OH238365   4.014   5.273   3.923 -0.4359  0.0616 -0.2818
 5625TIP3    H138366   3.919   5.260   3.917 -0.7300  1.1947  1.2294
 5625TIP3    H238367   4.024   5.361   3.958  1.1419 -0.4383  0.6464
 5626TIP3   OH238368   6.303   1.510  11.867  0.1588 -0.0960 -0.0887
 5626TIP3    H138369   6.308   1.513  11.772 -0.4539  1.7443 -0.0922
 5626TIP3    H238370   6.211   1.491  11.886  0.2724 -0.4260  0.1381
 5627TIP3   OH238371   5.800   6.102   3.462 -0.6555 -0.4835  0.3012
 5627TIP3    H138372   5.732   6.114   3.395 -0.2291 -0.0065 -0.0529
 5627TIP3    H238373   5.873   6.061   3.416 -0.5964 -0.7393  0.6182
 5628TIP3   OH238374   2.060   2.824  17.065 -0.1759 -0.1806  0.2453
 5628TIP3    H138375   2.108   2.742  17.053 -0.1363 -0.1182 -0.0249
 5628TIP3    H238376   2.075   2.848  17.157 -0.5179 -0.6845  0.4363
 5629TIP3   OH238377   6.559   1.561   0.994 -0.1763 -0.4839  0.0135
 5629TIP3    H138378   6.650   1.541   1.016  0.4027  1.5987 -0.2382
 5629TIP3    H238379   6.510   1.534   1.072  1.0723  1.0902  1.4421
 5630TIP3   OH238380   0.610   5.462  12.720  0.3280  0.3389 -0.0053
 5630TIP3    H138381   0.599   5.478  12.814 -1.2496  0.4723 -0.1846
 5630TIP3    H238382   0.646   5.374  12.714  0.8700  0.4980  0.7246
 5631TIP3   OH238383   3.781   1.608  11.875  0.3075 -0.0587  0.0627
 5631TIP3    H138384   3.700   1.656  11.858  0.9273  0.3988 -1.8396
 5631TIP3    H238385   3.846   1.676  11.893  1.4566  0.0859 -3.7572
 5632TIP3   OH238386   6.064   5.315  14.159  0.2151  0.2003  0.4431
 5632TIP3    H138387   5.983   5.265  14.150 -0.4018  1.2880 -0.2601
 5632TIP3    H238388   6.097   5.290  14.245  0.5481 -2.2578 -0.3073
 5633TIP3   OH238389   1.374   5.304   5.285  0.5024 -0.4053  0.0497
 5633TIP3    H138390   1.438   5.355   5.235  0.1933 -0.6100 -0.5750
 5633TIP3    H238391   1.348   5.234   5.225  0.0618 -0.6103  0.4747
 5634TIP3   OH238392   6.382   0.958   0.555 -0.4208 -0.7873 -0.4324
 5634TIP3    H138393   6.295   0.943   0.591  0.3721 -3.9190  0.4658
 5634TIP3    H238394   6.442   0.934   0.625  1.1836 -0.6049 -1.6694
 5635TIP3   OH238395   4.456   6.581   5.662 -0.8897 -0.0226 -0.0356
 5635TIP3    H138396   4.388   6.567   5.596  0.0011 -1.4436 -0.6900
 5635TIP3    H238397   4.424   6.656   5.713 -3.1174 -0.8407 -0.0976
 5636TIP3   OH238398   5.072   3.861  16.979 -0.6830 -1.1001 -0.1020
 5636TIP3    H138399   5.078   3.882  17.073  1.6942 -0.1630 -0.3819
 5636TIP3    H238400   5.163   3.848  16.952 -1.2182 -0.3386 -2.5139
 5637TIP3   OH238401   2.197   3.979  13.202  0.3121 -0.4758  0.4010
 5637TIP3    H138402   2.134   3.908  13.204 -1.3039  0.8992  1.3350
 5637TIP3    H238403   2.220   3.993  13.294 -0.0182  0.7094  0.3195
 5638TIP3   OH238404   4.952   1.902  13.800 -0.5734  0.3239  0.6424
 5638TIP3    H138405   4.980   1.901  13.891 -0.4977 -0.3960  0.6201
 5638TIP3    H238406   4.856   1.897  13.804 -0.5357 -0.6773  0.6861
 5639TIP3   OH238407   1.339   0.551   3.975 -0.1499 -0.1496  0.0337
 5639TIP3    H138408   1.340   0.505   4.059  1.9721 -0.2055  0.0294
 5639TIP3    H238409   1.264   0.514   3.929 -0.3620 -1.3231  1.2449
 5640TIP3   OH238410   0.493   1.736   3.069 -0.0524 -0.3382 -0.4425
 5640TIP3    H138411   0.415   1.791   3.080 -1.9401 -3.0494  1.1175
 5640TIP3    H238412   0.524   1.721   3.158  0.6872 -1.3522 -0.8542
 5641TIP3   OH238413   1.397   4.914  11.856 -0.1850  0.1199 -0.4191
 5641TIP3    H138414   1.412   4.963  11.775  1.0483 -0.3646 -0.5045
 5641TIP3    H238415   1.325   4.855  11.835 -0.0344  0.1635 -1.0951
 5642TIP3   OH238416   0.107   5.491   2.027 -0.2136  0.1201 -0.8218
 5642TIP3    H138417   0.096   5.565   1.968  0.0878 -0.1728 -1.2485
 5642TIP3    H238418   0.042   5.505   2.096 -0.8173  0.2727 -1.4147
 5643TIP3   OH238419   4.328   2.243   2.860  0.1983 -0.2319  0.2963
 5643TIP3    H138420   4.258   2.177   2.864 -0.5976  0.5354 -0.4837
 5643TIP3    H238421   4.404   2.196   2.825 -0.7399 -0.4575 -1.5436
 5644TIP3   OH238422   5.749   5.094  14.822  0.0047 -0.4692 -0.0579
 5644TIP3    H138423   5.724   5.015  14.773  0.0010 -0.5642  0.0945
 5644TIP3    H238424   5.668   5.123  14.864 -0.1470  0.0343 -0.6979
 5645TIP3   OH238425   0.110   3.494  12.479  0.1768  0.3840  0.1592
 5645TIP3    H138426   0.168   3.569  12.493 -0.4910  0.7815  0.8090
 5645TIP3    H238427   0.035   3.529  12.432  0.5011 -0.1597 -0.7985
 5646TIP3   OH238428   3.882   6.574  15.766  0.0122  0.4215  0.2968
 5646TIP3    H138429   3.960   6.538  15.724 -0.4301  0.4875 -0.5956
 5646TIP3    H238430   3.889   6.544  15.857  0.1424 -1.1474 -0.1851
 5647TIP3   OH238431   4.044   3.901   6.552  0.1050 -0.1587  0.3265
 5647TIP3    H138432   3.959   3.857   6.548  0.7668 -1.4533 -0.0696
 5647TIP3    H238433   4.104   3.834   6.585  1.0650  0.5729  0.1095
 5648TIP3   OH238434   0.005   0.960  12.658 -0.1273  0.0754 -1.0092
 5648TIP3    H138435  -0.061   0.933  12.594 -0.0896 -1.4196 -0.4742
 5648TIP3    H238436   0.081   0.986  12.606 -0.5373  0.1080 -1.5942
 5649TIP3   OH238437   5.870   1.972   0.287  0.1396  0.2175  0.1361
 5649TIP3    H138438   5.821   2.008   0.212 -1.9983 -1.1304  0.7963
 5649TIP3    H238439   5.802   1.939   0.346  1.8511 -0.6316  1.7257
 5650TIP3   OH238440   4.801   0.332   4.849 -0.0738  0.3370  0.0555
 5650TIP3    H138441   4.796   0.325   4.944 -2.3924  2.4952  0.1832
 5650TIP3    H238442   4.895   0.335   4.831  0.4269  0.9246  2.3784
 5651TIP3   OH238443   6.572   5.823  11.328  0.7592 -0.0708  0.0015
 5651TIP3    H138444   6.608   5.775  11.253  1.1195 -3.1512  2.0054
 5651TIP3    H238445   6.479   5.804  11.326  0.7038  0.1883  0.1152
 5652TIP3   OH238446   4.604   3.967   4.374 -0.2983 -0.2414 -0.4626
 5652TIP3    H138447   4.662   3.898   4.344 -0.4369 -0.9315  0.7959
 5652TIP3    H238448   4.597   4.027   4.300  4.1444  1.3497  0.0957
 5653TIP3   OH238449   1.676   0.310  17.150 -0.2929  0.2254 -0.2004
 5653TIP3    H138450   1.604   0.248  17.154 -0.6519  0.6451 -0.0321
 5653TIP3    H238451   1.684   0.331  17.056 -0.6837  0.5143 -0.1701
 5654TIP3   OH238452   2.941   4.710  16.910  0.1047 -0.3484 -0.2847
 5654TIP3    H138453   3.014   4.769  16.928 -0.0310 -0.4936  0.8260
 5654TIP3    H238454   2.869   4.767  16.883 -0.3242  0.1282  1.7030
 5655TIP3   OH238455   3.927   4.108  15.701 -0.3837  0.8311  0.0900
 5655TIP3    H138456   3.946   4.056  15.778 -1.3165  0.1772 -0.1082
 5655TIP3    H238457   4.013   4.131  15.666  0.0403  0.5060  0.8951
 5656TIP3   OH238458   0.804   0.988  15.687 -0.0419  0.5034  0.5069
 5656TIP3    H138459   0.797   0.949  15.774  0.1464  0.4949  0.5204
 5656TIP3    H238460   0.898   0.982  15.666 -0.0413  0.7802  0.4305
 5657TIP3   OH238461   4.944   4.075  13.532 -0.5596 -0.7182 -0.1817
 5657TIP3    H138462   5.035   4.104  13.534 -0.5546 -0.7503  1.5344
 5657TIP3    H238463   4.918   4.083  13.440  0.8520  0.2784 -0.5256
 5658TIP3   OH238464   4.644   3.506  16.149  0.5773  0.6885  0.3329
 5658TIP3    H138465   4.724   3.468  16.112  1.0811 -0.5386  2.4712
 5658TIP3    H238466   4.588   3.431  16.167 -0.6118  1.4442 -0.1124
 5659TIP3   OH238467   1.901   3.580   5.686 -0.2610  0.4128  0.0992
 5659TIP3    H138468   1.879   3.498   5.640 -1.3303 -0.7477  2.5303
 5659TIP3    H238469   1.995   3.573   5.702 -0.4210 -0.6326  0.7272
 5660TIP3   OH238470   1.630   4.205   0.022  0.1296 -0.2024  0.2354
 5660TIP3    H138471   1.589   4.291   0.031 -1.0089 -0.5625 -1.3094
 5660TIP3    H238472   1.643   4.176   0.113 -0.6691  1.0210  0.7723
 5661TIP3   OH238473   4.514   1.515   0.416  0.2290 -0.0816  0.0812
 5661TIP3    H138474   4.453   1.521   0.342  0.4673 -2.3270 -0.3972
 5661TIP3    H238475   4.562   1.597   0.414 -0.8878  0.5991 -1.2540
 5662TIP3   OH238476   0.532   5.686  13.415 -0.0749 -0.2748  0.3549
 5662TIP3    H138477   0.497   5.603  13.447 -0.4509 -1.3243 -2.4523
 5662TIP3    H238478   0.465   5.717  13.354  1.0034  1.0252 -0.2027
 5663TIP3   OH238479   1.040   0.124  13.178 -0.1227  0.3785 -0.1009
 5663TIP3    H138480   1.115   0.100  13.233  0.1298  0.9837 -0.1799
 5663TIP3    H238481   0.965   0.125  13.239  0.1283  0.8836  0.2101
 5664TIP3   OH238482   4.674   5.813  14.685  0.1276  0.3703  0.1792
 5664TIP3    H138483   4.720   5.882  14.733 -1.1859  1.2441  0.2387
 5664TIP3    H238484   4.690   5.832  14.593  1.0586 -0.1774  0.2178
 5665TIP3   OH238485   1.329   3.947  13.093  0.1288  0.2631  0.1499
 5665TIP3    H138486   1.347   3.909  13.179 -0.9764  1.4961  0.9698
 5665TIP3    H238487   1.234   3.951  13.088  0.1957  1.3773 -0.5912
 5666TIP3   OH238488   6.473   4.999   5.703  0.1014  0.4841  0.2315
 5666TIP3    H138489   6.479   5.030   5.613  1.7256  2.5712  0.9783
 5666TIP3    H238490   6.416   5.061   5.747  0.4672  0.3237  0.9586
 5667TIP3   OH238491   4.265   5.290  15.285 -0.5329 -0.0436  0.2036
 5667TIP3    H138492   4.289   5.355  15.219 -0.7150 -0.4307 -0.2464
 5667TIP3    H238493   4.270   5.206  15.239  3.0176 -0.7820  1.5504
 5668TIP3   OH238494   2.617   6.210   2.608  0.0861  0.1724 -0.3510
 5668TIP3    H138495   2.673   6.132   2.616 -2.2270 -1.7048 -1.3704
 5668TIP3    H238496   2.663   6.277   2.658  1.8451 -2.0258  1.1832
 5669TIP3   OH238497   5.767   5.361  17.035 -0.3626  0.3319 -0.6833
 5669TIP3    H138498   5.800   5.304  16.965  2.7241  0.3680  0.5956
 5669TIP3    H238499   5.781   5.450  17.002  0.6197  0.3458 -0.2539
 5670TIP3   OH238500   4.726   6.145   4.101  0.4758  0.4219  0.1396
 5670TIP3    H138501   4.692   6.085   4.034 -1.9728  0.4943  1.2138
 5670TIP3    H238502   4.808   6.178   4.064  0.4317 -1.3686 -1.7399
 5671TIP3   OH238503   5.887   2.828   1.768  0.2396 -0.0274 -0.0261
 5671TIP3    H138504   5.886   2.913   1.812  2.1379 -0.1588  0.3506
 5671TIP3    H238505   5.917   2.767   1.835  3.3393 -0.2201 -1.3979
 5672TIP3   OH238506   0.371   6.204  14.598 -0.7343  0.0641  0.4796
 5672TIP3    H138507   0.449   6.249  14.629 -0.7386  1.8737 -1.8447
 5672TIP3    H238508   0.303   6.225  14.662 -0.0395  1.0082  0.9251
 5673TIP3   OH238509   2.661   0.859   2.783  0.5464 -0.2869  0.0963
 5673TIP3    H138510   2.641   0.833   2.873  0.6611 -1.8412 -0.3075
 5673TIP3    H238511   2.588   0.826   2.731 -1.4558  3.7230 -0.0353
 5674TIP3   OH238512   5.698   0.661   5.966 -0.1558 -0.2033 -0.1387
 5674TIP3    H138513   5.643   0.587   5.941 -0.0772  0.2980 -1.9718
 5674TIP3    H238514   5.771   0.622   6.014 -0.6054 -1.2062 -0.2562
 5675TIP3   OH238515   0.668   6.466  13.635  0.6299 -0.4167 -0.6029
 5675TIP3    H138516   0.734   6.497  13.698  0.1267  1.7182 -1.0599
 5675TIP3    H238517   0.713   6.466  13.551  1.4384 -3.7003 -0.3152
 5676TIP3   OH238518   5.857   0.263  15.434  0.3621 -0.3941 -0.2071
 5676TIP3    H138519   5.950   0.250  15.454  0.1717 -0.8285  0.4082
 5676TIP3    H238520   5.853   0.260  15.338  1.2522  1.5564 -0.3590
 5677TIP3   OH238521   1.904   6.203  16.537  0.1428  0.3240  0.0646
 5677TIP3    H138522   1.822   6.251  16.531  0.7265  1.4308  0.5265
 5677TIP3    H238523   1.952   6.227  16.458 -0.2268 -0.8417 -0.5325
 5678TIP3   OH238524   5.908   1.889  16.977  0.3339  0.0706 -0.1838
 5678TIP3    H138525   5.921   1.794  16.982  0.4854  0.1521  1.4969
 5678TIP3    H238526   5.948   1.923  17.057 -1.7446  1.3170  0.4067
 5679TIP3   OH238527   4.607   2.598  12.217 -0.3401 -0.0576  0.2751
 5679TIP3    H138528   4.604   2.503  12.208 -0.4725  0.0605 -1.1807
 5679TIP3    H238529   4.515   2.624  12.225 -0.4010  0.0402 -0.6378
 5680TIP3   OH238530   6.536   6.224  16.634 -0.2537  0.5935  0.0884
 5680TIP3    H138531   6.507   6.315  16.625 -1.2313  0.0948 -4.2813
 5680TIP3    H238532   6.627   6.224  16.606 -0.8418  0.0808 -2.0440
 5681TIP3   OH238533   5.638   4.713   0.364 -0.4715  0.6614 -0.1770
 5681TIP3    H138534   5.615   4.758   0.446 -1.6724 -0.8998  0.4038
 5681TIP3    H238535   5.629   4.780   0.297 -1.9640  1.3882  0.6827
 5682TIP3   OH238536   3.923   2.198  15.014  0.1139 -0.1418  0.2377
 5682TIP3    H138537   3.993   2.197  15.080  1.1667  0.1708 -0.8407
 5682TIP3    H238538   3.951   2.263  14.950 -0.9102 -0.4036 -0.5024
 5683TIP3   OH238539   3.774   0.560  15.748 -0.2054  0.2393  0.3369
 5683TIP3    H138540   3.744   0.602  15.828  0.7593  1.1889  0.2285
 5683TIP3    H238541   3.694   0.543  15.698 -0.6327  3.5063 -0.3461
 5684TIP3   OH238542   5.188   5.998   1.516 -0.8587 -0.2932  0.3690
 5684TIP3    H138543   5.281   6.007   1.537 -0.7900  0.5969 -0.2335
 5684TIP3    H238544   5.162   5.915   1.555  0.7891 -1.8264 -1.5536
 5685TIP3   OH238545   0.983   3.078  13.183 -0.4081 -0.0927 -0.0239
 5685TIP3    H138546   1.038   3.025  13.125 -0.0073 -0.0836  0.3460
 5685TIP3    H238547   0.968   3.022  13.259 -0.8108 -0.0476 -0.0714
 5686TIP3   OH238548   6.423   3.053  12.076  0.2258 -0.1823 -0.0792
 5686TIP3    H138549   6.331   3.073  12.060  0.5540  0.1375 -1.6593
 5686TIP3    H238550   6.447   2.989  12.009  1.0606 -0.5703  0.5562
 5687TIP3   OH238551   5.732   3.720   4.304  0.1701  0.6252 -0.2844
 5687TIP3    H138552   5.656   3.709   4.360  1.2832  0.5521  1.2924
 5687TIP3    H238553   5.806   3.727   4.365  2.0195 -3.2363 -1.7282
 5688TIP3   OH238554   1.301   0.207  10.831  0.3541 -0.0456  0.0804
 5688TIP3    H138555   1.280   0.294  10.864 -1.6806 -0.1265 -0.8180
 5688TIP3    H238556   1.259   0.147  10.893 -0.3796 -0.2936 -0.6381
 5689TIP3   OH238557   2.287   2.476  11.941  0.0476  0.4064  0.0857
 5689TIP3    H138558   2.314   2.553  11.990  1.1886 -0.0242  0.1706
 5689TIP3    H238559   2.349   2.407  11.967 -1.6488 -0.8798  0.9014
 5690TIP3   OH238560   2.150   1.084  13.982 -0.1036  0.1866 -0.3126
 5690TIP3    H138561   2.171   1.136  14.059 -1.3450 -0.9108  0.8101
 5690TIP3    H238562   2.060   1.107  13.961 -0.2302 -0.5374 -0.5925
 5691TIP3   OH238563   1.961   2.207  14.740 -0.2978 -0.9906  0.0240
 5691TIP3    H138564   1.885   2.201  14.682 -0.5053 -1.3089  0.3214
 5691TIP3    H238565   1.928   2.252  14.818 -0.4088 -1.8731  0.5037
 5692TIP3   OH238566   0.994   6.171  11.558 -0.1729 -0.0096  0.0933
 5692TIP3    H138567   1.043   6.158  11.477 -1.1606  1.3317 -0.7542
 5692TIP3    H238568   1.048   6.129  11.625  1.8826  0.9458 -0.8596
 5693TIP3   OH238569   4.573   2.441   0.216  0.0232 -0.1996  0.2943
 5693TIP3    H138570   4.552   2.377   0.285 -0.5802  0.8106  1.0761
 5693TIP3    H238571   4.519   2.414   0.142 -1.3205  0.1908  1.0846
 5694TIP3   OH238572   6.256   3.805  15.566 -0.1188  0.2149  0.0115
 5694TIP3    H138573   6.211   3.886  15.540 -0.7394 -0.2166 -0.3000
 5694TIP3    H238574   6.337   3.805  15.516  0.4382  1.2144  0.8944
 5695TIP3   OH238575   5.666   1.365   1.539 -0.2101 -0.5402 -0.3792
 5695TIP3    H138576   5.671   1.370   1.443 -0.3543  0.1229 -0.3528
 5695TIP3    H238577   5.756   1.382   1.568 -0.5672  1.4049 -0.3176
 5696TIP3   OH238578   3.733   5.126  14.360  0.3609  0.1031  0.8117
 5696TIP3    H138579   3.764   5.201  14.310  1.6080 -0.6137  0.4572
 5696TIP3    H238580   3.810   5.071  14.371 -0.0069 -0.0737  2.9960
 5697TIP3   OH238581   6.427   6.766  15.409  0.2406  0.0940 -0.1134
 5697TIP3    H138582   6.371   6.780  15.485  0.8819  1.4029  0.1585
 5697TIP3    H238583   6.448   6.855  15.378 -0.0854 -0.3974 -1.8864
 5698TIP3   OH238584   5.901   4.357  12.824 -0.5035 -0.1735 -0.3481
 5698TIP3    H138585   5.883   4.445  12.857  1.4429  1.2188 -2.6369
 5698TIP3    H238586   5.823   4.333  12.775  0.1438  1.8213 -2.5284
 5699TIP3   OH238587   5.084   1.281   1.427  0.1572 -0.3433 -0.1157
 5699TIP3    H138588   5.087   1.276   1.523  0.3128  0.2648 -0.0815
 5699TIP3    H238589   5.124   1.200   1.397  3.3104  0.8810  0.3449
 5700TIP3   OH238590   3.778   4.932   1.228  0.6579 -0.1704 -0.4327
 5700TIP3    H138591   3.732   5.016   1.239  0.1957 -0.0619 -2.6755
 5700TIP3    H238592   3.789   4.899   1.317 -1.1148  1.2325  0.3812
 5701TIP3   OH238593   2.771   3.281  12.211  0.6489 -0.9068  0.4853
 5701TIP3    H138594   2.863   3.270  12.189  0.5029  1.5117 -1.9541
 5701TIP3    H238595   2.723   3.234  12.143  0.1378  0.2654 -0.0067
 5702TIP3   OH238596   4.517   2.689  13.194 -0.0678  0.0669 -0.4655
 5702TIP3    H138597   4.467   2.769  13.180  1.1088  0.9249  0.0364
 5702TIP3    H238598   4.500   2.665  13.285  1.2924  1.0418  0.0955
 5703TIP3   OH238599   4.465   1.768   5.203 -0.2987 -0.4616  0.1776
 5703TIP3    H138600   4.457   1.789   5.110  1.9872 -0.5466 -0.1082
 5703TIP3    H238601   4.375   1.764   5.235 -1.0989  1.7369 -1.5271
 5704TIP3   OH238602   4.630   5.478  11.491 -0.5267  0.0322  0.3321
 5704TIP3    H138603   4.656   5.565  11.520 -0.1548  0.3538 -0.9102
 5704TIP3    H238604   4.678   5.418  11.548 -0.6891  0.6195  1.1153
 5705TIP3   OH238605   3.691   3.772  13.229 -0.2051 -0.0536 -0.3130
 5705TIP3    H138606   3.688   3.842  13.165  0.4916 -0.0085 -0.2985
 5705TIP3    H238607   3.602   3.735  13.228 -0.4033  0.4228 -0.7582
 5706TIP3   OH238608   2.012   3.617   6.115  0.1369  0.0797  0.4141
 5706TIP3    H138609   2.100   3.591   6.140  0.1939 -0.6207 -0.4663
 5706TIP3    H238610   2.025   3.693   6.058  0.1033  0.5873  1.0671
 5707TIP3   OH238611   3.181   6.789  17.050  0.4551  0.1652 -0.2483
 5707TIP3    H138612   3.219   6.716  17.000  1.2929  0.9710 -0.8250
 5707TIP3    H238613   3.154   6.750  17.132 -2.1066 -1.4932 -1.7430
 5708TIP3   OH238614   5.956   5.557  14.416  0.2827 -0.2569 -0.0398
 5708TIP3    H138615   5.976   5.641  14.376 -0.5507 -0.0893 -0.1217
 5708TIP3    H238616   5.910   5.508  14.347 -1.3751  0.1153  0.7478
 5709TIP3   OH238617   5.708   2.574   1.790 -0.1829  0.5605 -0.5453
 5709TIP3    H138618   5.754   2.624   1.722  1.3855  1.5564  1.1557
 5709TIP3    H238619   5.770   2.508   1.818  0.7111  2.4012  2.3351
 5710TIP3   OH238620   4.904   5.546   4.741 -1.0351 -0.0873 -0.1902
 5710TIP3    H138621   4.830   5.500   4.779  0.0899 -0.7570  1.3028
 5710TIP3    H238622   4.947   5.481   4.686 -0.2269 -0.4508  0.8366
 5711TIP3   OH238623   4.070   6.595  16.590 -0.2859  0.0020  0.6212
 5711TIP3    H138624   4.090   6.559  16.676  0.6247 -1.1980 -0.0574
 5711TIP3    H238625   4.147   6.573  16.536 -0.3023  1.7673 -0.2016
 5712TIP3   OH238626   5.440   0.346   3.042 -0.4093 -0.2387 -0.0007
 5712TIP3    H138627   5.444   0.357   2.947 -1.6338 -0.4631 -0.0926
 5712TIP3    H238628   5.367   0.286   3.057  1.1667 -2.0352  0.9678
 5713TIP3   OH238629   0.901   4.563   2.199 -0.4539  0.0872 -0.1204
 5713TIP3    H138630   0.830   4.501   2.214 -0.0088  0.0090  1.9569
 5713TIP3    H238631   0.979   4.509   2.189 -0.3280  0.2571 -0.0710
 5714TIP3   OH238632   4.782   3.320   6.395  0.0256  0.0366  0.1703
 5714TIP3    H138633   4.783   3.378   6.471 -0.6283  0.2257  0.0389
 5714TIP3    H238634   4.859   3.345   6.344  1.2941 -1.0492  1.4804
 5715TIP3   OH238635   5.937   4.378   5.260  0.2647  0.4307  0.0443
 5715TIP3    H138636   5.871   4.353   5.194 -1.3363  0.7176  1.4707
 5715TIP3    H238637   5.936   4.473   5.260  3.9825  0.6914 -3.0356
 5716TIP3   OH238638   2.717   3.371   3.646 -0.0891  0.7180  0.1323
 5716TIP3    H138639   2.807   3.390   3.621  0.3354 -0.4400  0.7328
 5716TIP3    H238640   2.692   3.444   3.702  0.2933  1.2966 -0.4388
 5717TIP3   OH238641   6.621   1.399   0.246 -0.5376  0.5889 -0.4402
 5717TIP3    H138642   6.528   1.415   0.232 -1.4380 -1.5125  2.2333
 5717TIP3    H238643   6.634   1.411   0.340  0.9583 -2.7118 -0.0622
 5718TIP3   OH238644   5.624   4.255   1.014  0.1163  0.5862 -0.2814
 5718TIP3    H138645   5.531   4.246   0.991 -0.5248  0.2341  2.1016
 5718TIP3    H238646   5.669   4.192   0.958 -1.4421 -1.0660  0.1962
 5719TIP3   OH238647   1.829   0.188  15.675 -0.2225  0.0130  0.6666
 5719TIP3    H138648   1.739   0.219  15.665 -1.3212 -2.4367  2.1854
 5719TIP3    H238649   1.882   0.266  15.662 -2.4628  1.3564 -1.3539
 5720TIP3   OH238650   1.705   2.344  11.524  0.1020  0.4803  0.6315
 5720TIP3    H138651   1.668   2.341  11.612  4.2315 -0.9925  2.5625
 5720TIP3    H238652   1.757   2.424  11.522 -0.0398  0.5711 -0.5720
 5721TIP3   OH238653   3.942   1.966   4.405 -0.1103  0.4814  0.4394
 5721TIP3    H138654   3.972   1.912   4.332 -0.2938 -0.0658  0.7546
 5721TIP3    H238655   3.852   1.989   4.382 -0.4065 -0.2657  0.7921
 5722TIP3   OH238656   0.921   4.933   2.593 -0.4830 -0.0725 -0.1007
 5722TIP3    H138657   0.840   4.934   2.643  0.1016 -0.8409  0.9199
 5722TIP3    H238658   0.901   4.882   2.514 -0.7237 -1.1894  0.6592
 5723TIP3   OH238659   2.503   3.461   3.474  0.1658 -0.0019  0.1093
 5723TIP3    H138660   2.576   3.441   3.532 -0.1129 -0.2384  0.3852
 5723TIP3    H238661   2.426   3.429   3.521  0.1781 -2.9638 -1.6731
 5724TIP3   OH238662   5.575   3.466  14.342  0.3002  0.5587 -0.4810
 5724TIP3    H138663   5.544   3.488  14.254 -0.5229 -0.2751 -0.4159
 5724TIP3    H238664   5.669   3.482  14.339  0.3843 -0.0645 -1.7013
 5725TIP3   OH238665   5.368   1.079  14.094 -0.1119 -0.3397 -0.1591
 5725TIP3    H138666   5.342   1.146  14.157 -1.3176 -2.0609  1.3111
 5725TIP3    H238667   5.461   1.095  14.078 -0.5543  2.2319 -0.6607
 5726TIP3   OH238668   1.222   5.700  11.589 -0.0552 -0.3035  0.2565
 5726TIP3    H138669   1.129   5.680  11.579  0.0389 -0.6550  0.0877
 5726TIP3    H238670   1.233   5.784  11.544  0.0403 -1.0717 -1.2008
 5727TIP3   OH238671   3.225   4.032  10.889 -0.4580 -0.6142 -0.1989
 5727TIP3    H138672   3.152   3.981  10.854 -0.1854 -1.1214 -0.0401
 5727TIP3    H238673   3.279   4.052  10.813  0.7874 -2.7609  0.0224
 5728TIP3   OH238674   0.362   2.237   2.194  0.3493 -0.8576 -0.0917
 5728TIP3    H138675   0.289   2.267   2.248 -0.0733  0.4986 -1.3731
 5728TIP3    H238676   0.440   2.258   2.245 -0.0068  1.1292 -0.2827
 5729TIP3   OH238677   5.981   3.331   0.509 -0.0167 -0.1342 -0.0756
 5729TIP3    H138678   5.993   3.247   0.554 -1.3819  0.3407  1.2783
 5729TIP3    H238679   5.893   3.327   0.473  0.1642  0.4577 -0.6027
 5730TIP3   OH238680   3.379   2.184  12.558  0.0018 -0.4374 -0.0459
 5730TIP3    H138681   3.459   2.237  12.560 -1.3322  1.6441  1.1414
 5730TIP3    H238682   3.407   2.098  12.590  1.4504  0.7893  2.2643
 5731TIP3   OH238683   5.937   2.799  10.574 -0.0928  0.5536 -0.3005
 5731TIP3    H138684   6.016   2.748  10.591 -0.0454  0.8718  0.4726
 5731TIP3    H238685   5.946   2.828  10.484  0.1047 -0.4087 -0.6018
 5732TIP3   OH238686   6.581   1.701  10.855 -0.2287 -0.5441 -0.0550
 5732TIP3    H138687   6.604   1.766  10.921  3.6270  0.2139 -1.9272
 5732TIP3    H238688   6.630   1.623  10.880 -2.8701 -2.0613  0.7670
 5733TIP3   OH238689   0.694   5.474   3.225 -0.8545 -0.3734  0.6660
 5733TIP3    H138690   0.724   5.384   3.241 -0.2325  0.0948  2.2775
 5733TIP3    H238691   0.693   5.515   3.311 -2.6891  0.7176  0.1800
 5734TIP3   OH238692   0.003   3.804  15.769  0.4994 -0.0674  0.2859
 5734TIP3    H138693   0.023   3.710  15.768  1.7333  0.1784  0.5975
 5734TIP3    H238694  -0.089   3.808  15.793  0.5960 -1.1846  0.9135
 5735TIP3   OH238695   3.002   2.040  13.445 -0.0915  0.1817 -0.3636
 5735TIP3    H138696   3.089   2.036  13.405  0.6887 -1.4888  1.3249
 5735TIP3    H238697   2.954   1.968  13.404  0.5808 -1.2764  1.2932
 5736TIP3   OH238698   5.314   0.889  17.046 -0.2256  0.2299 -0.1447
 5736TIP3    H138699   5.248   0.838  17.094 -0.4797  0.5622 -0.1386
 5736TIP3    H238700   5.389   0.893  17.106 -0.2280 -0.0797 -0.1199
 5737TIP3   OH238701   5.772   5.001  13.168 -0.1451 -0.0350 -0.3792
 5737TIP3    H138702   5.864   5.020  13.183 -0.3768 -0.0447  1.2831
 5737TIP3    H238703   5.741   4.966  13.251 -1.0040 -2.7494 -1.7412
 5738TIP3   OH238704   0.954   5.681  11.555  0.0624  0.5147  0.2087
 5738TIP3    H138705   0.932   5.696  11.463 -3.1649 -1.8885  0.4230
 5738TIP3    H238706   0.929   5.763  11.599 -1.3247  0.5832 -0.6660
 5739TIP3   OH238707   5.166   2.710   2.405  0.5008 -0.2954 -0.4465
 5739TIP3    H138708   5.133   2.782   2.350  2.0418  1.0667  0.3211
 5739TIP3    H238709   5.211   2.754   2.477  1.3794 -2.0567  0.1260
 5740TIP3   OH238710   3.179   4.414  16.177 -0.3269  0.5494  0.6862
 5740TIP3    H138711   3.119   4.400  16.104 -1.5677 -0.2765  1.8287
 5740TIP3    H238712   3.162   4.503  16.206 -0.2086  0.6910  0.3380
 5741TIP3   OH238713   6.244   2.694   2.994 -0.4517 -0.1997 -0.0130
 5741TIP3    H138714   6.225   2.770   3.048 -0.1779 -1.3036  1.7191
 5741TIP3    H238715   6.192   2.623   3.033  0.0617 -1.1200 -0.9587
 5742TIP3   OH238716   3.027   0.144   2.374  0.1658  0.5874 -0.6469
 5742TIP3    H138717   2.932   0.148   2.363  0.0878  1.8170  0.2587
 5742TIP3    H238718   3.047   0.050   2.373 -1.2844  0.2139  0.8920
 5743TIP3   OH238719   1.825   3.407  12.292  0.2526 -0.0971  0.5730
 5743TIP3    H138720   1.771   3.431  12.217  1.2890  1.1112  0.1978
 5743TIP3    H238721   1.801   3.470  12.360 -0.9125 -1.3743  1.4221
 5744TIP3   OH238722   2.943   5.490  10.561  0.0342  0.3731  0.0312
 5744TIP3    H138723   2.990   5.471  10.642  1.9474  0.8767 -0.9025
 5744TIP3    H238724   2.979   5.575  10.532 -0.1150 -0.1046 -1.6713
 5745TIP3   OH238725   3.415   0.300  14.974 -0.5837 -0.5635 -0.6321
 5745TIP3    H138726   3.475   0.374  14.983 -0.0984 -1.0795  0.6475
 5745TIP3    H238727   3.389   0.279  15.064 -2.1338 -0.7999 -1.1120
 5746TIP3   OH238728   5.460   0.278   1.921  0.5316  0.3640 -0.3754
 5746TIP3    H138729   5.437   0.185   1.919 -0.0210  0.5115 -1.5810
 5746TIP3    H238730   5.391   0.319   1.974  1.6622 -0.1087  1.5687
 5747TIP3   OH238731   0.111   1.008   5.870  0.0802 -0.6150  0.4309
 5747TIP3    H138732   0.161   0.957   5.934 -1.0128  1.3410  3.0495
 5747TIP3    H238733   0.149   1.095   5.873 -2.0317  0.3552  0.8777
 5748TIP3   OH238734   1.888   4.590   4.185  0.6000  0.6062 -0.0542
 5748TIP3    H138735   1.799   4.561   4.164  0.4422  0.7584  0.3970
 5748TIP3    H238736   1.908   4.657   4.120  1.5111 -1.4444 -2.0516
 5749TIP3   OH238737   6.571   3.795   0.579 -0.3018 -0.1457 -0.4229
 5749TIP3    H138738   6.544   3.705   0.560 -2.8643  0.5961 -0.6960
 5749TIP3    H238739   6.525   3.818   0.660  2.0580  0.2632  0.8875
 5750TIP3   OH238740   3.863   0.940  12.671 -0.5427  0.0801  0.6613
 5750TIP3    H138741   3.912   1.019  12.647  0.6781 -1.0136 -0.6770
 5750TIP3    H238742   3.920   0.895  12.734 -0.3483 -0.6132  0.0088
 5751TIP3   OH238743   3.142   2.712   4.618 -0.0947 -0.2413  0.5975
 5751TIP3    H138744   3.232   2.727   4.648  0.4820 -1.2773 -0.5212
 5751TIP3    H238745   3.102   2.659   4.688  0.0203  0.5500  1.2811
 5752TIP3   OH238746   0.997   1.944   4.063  0.5140 -0.1168  0.1142
 5752TIP3    H138747   1.086   1.948   4.027  0.6169  2.5479  0.4494
 5752TIP3    H238748   1.000   1.871   4.125  2.5413  0.0173  0.2464
 5753TIP3   OH238749   0.186   5.870   0.503  0.0126  0.0884 -0.4023
 5753TIP3    H138750   0.188   5.939   0.569 -0.0083 -0.9020  0.6599
 5753TIP3    H238751   0.095   5.841   0.502  0.6199 -2.2937  1.7526
 5754TIP3   OH238752   3.810   5.390   2.283 -0.3239  0.4130 -0.2419
 5754TIP3    H138753   3.774   5.463   2.334 -0.6596  0.1198 -0.0549
 5754TIP3    H238754   3.760   5.313   2.313  0.7679 -0.0870  0.3667
 5755TIP3   OH238755   6.496   4.815   2.244 -0.6216  0.3884  0.2783
 5755TIP3    H138756   6.460   4.836   2.330 -0.1920 -0.1927  0.6084
 5755TIP3    H238757   6.579   4.771   2.263 -0.2071  0.8460 -0.4482
 5756TIP3   OH238758   4.337   2.222   4.163  0.2774  0.6691 -0.1414
 5756TIP3    H138759   4.384   2.199   4.244 -0.2485  1.4245  0.3916
 5756TIP3    H238760   4.346   2.317   4.156  1.1289  0.5018 -1.4983
 5757TIP3   OH238761   6.618   6.506   5.571  0.2252  0.0776  0.2116
 5757TIP3    H138762   6.685   6.437   5.572 -0.0098 -0.1563  0.9111
 5757TIP3    H238763   6.556   6.479   5.639 -1.2828 -0.3904 -1.3019
 5758TIP3   OH238764   3.104   3.630  10.353 -0.1011  0.3044  0.2126
 5758TIP3    H138765   3.026   3.583  10.383 -0.0928 -0.1402 -0.4327
 5758TIP3    H238766   3.072   3.689  10.284  0.2748 -0.6579 -0.8196
 5759TIP3   OH238767   0.895   2.832  16.961 -0.2695 -0.9731  0.3151
 5759TIP3    H138768   0.921   2.924  16.964  0.3132 -1.0732 -1.1297
 5759TIP3    H238769   0.970   2.787  16.923 -1.4965 -1.6731 -1.3602
 5760TIP3   OH238770   4.553   5.285   4.517  0.4490 -0.0009 -0.1297
 5760TIP3    H138771   4.604   5.290   4.598 -0.7317 -2.6005  0.9308
 5760TIP3    H238772   4.470   5.245   4.545 -1.4966  2.3977 -2.0669
 5761TIP3   OH238773   2.953   5.169   5.068  0.5461 -0.4626  0.0456
 5761TIP3    H138774   2.948   5.166   4.973  0.6514  0.8200 -0.0193
 5761TIP3    H238775   2.884   5.231   5.093  0.9610 -0.2723  0.7462
 5762TIP3   OH238776   1.745   2.405   2.735  0.2338  0.6550  0.4093
 5762TIP3    H138777   1.834   2.434   2.715 -0.1145  1.3783 -0.0941
 5762TIP3    H238778   1.748   2.310   2.724  0.6419  0.7999 -0.8031
 5763TIP3   OH238779   1.218   2.832   0.275 -0.5761 -0.4773  0.0211
 5763TIP3    H138780   1.223   2.818   0.180  0.3366 -1.4946  0.1992
 5763TIP3    H238781   1.199   2.746   0.311 -1.3370 -0.0180  0.7495
 5764TIP3   OH238782   6.224   5.319  14.998  0.5761  0.7347 -0.1431
 5764TIP3    H138783   6.128   5.319  14.992  0.6123 -0.7908 -1.1243
 5764TIP3    H238784   6.248   5.411  14.988 -0.7634  1.0927 -0.2978
 5765TIP3   OH238785   5.403   2.352   2.644 -0.0684 -0.2363  0.0915
 5765TIP3    H138786   5.498   2.366   2.642  0.1231 -1.5242 -1.1772
 5765TIP3    H238787   5.367   2.430   2.601  0.3208  0.6583  1.3100
 5766TIP3   OH238788   6.098   5.047   3.293 -0.3715  0.0239 -0.0122
 5766TIP3    H138789   6.158   4.975   3.273  0.4452  0.7618 -0.2387
 5766TIP3    H238790   6.153   5.114   3.333 -1.3148  0.0982  1.2400
 5767TIP3   OH238791   0.792   6.048  16.618  0.5278  0.1412  0.2228
 5767TIP3    H138792   0.841   6.064  16.698  1.5246 -0.5220 -0.2288
 5767TIP3    H238793   0.775   6.135  16.582  2.6634  0.3791 -0.3371
 5768TIP3   OH238794   5.845   6.274  14.765  0.4707  0.2328 -0.5327
 5768TIP3    H138795   5.893   6.205  14.811 -0.9787  1.0271  2.4102
 5768TIP3    H238796   5.753   6.249  14.775  0.0087  1.7328 -0.8601
 5769TIP3   OH238797   6.740   0.526  16.346  0.0150  0.5092 -0.1465
 5769TIP3    H138798   6.672   0.540  16.281 -0.1037  0.0176 -0.1366
 5769TIP3    H238799   6.739   0.604  16.401  0.7557  1.3690 -1.2979
 5770TIP3   OH238800   3.261   1.258  13.699 -0.0267 -0.1577  0.1052
 5770TIP3    H138801   3.274   1.341  13.744  1.1017 -0.2665  0.0212
 5770TIP3    H238802   3.192   1.213  13.748  0.1644  0.3388  0.8317
 5771TIP3   OH238803   5.305   5.949   6.299 -0.4664  0.5243  0.4608
 5771TIP3    H138804   5.215   5.920   6.314 -1.2724  1.2034 -2.4722
 5771TIP3    H238805   5.310   6.035   6.341 -2.4410  2.1484 -2.3378
 5772TIP3   OH238806   2.150   3.567  16.846  0.0900  0.0996  0.0098
 5772TIP3    H138807   2.177   3.633  16.910  1.3711  0.2872 -0.6997
 5772TIP3    H238808   2.057   3.586  16.831 -0.0976  0.3931  1.3830
 5773TIP3   OH238809   2.032   2.072  16.261  0.2608  0.0476  0.0878
 5773TIP3    H138810   2.102   2.006  16.259 -0.5582 -0.9419  1.6051
 5773TIP3    H238811   1.951   2.021  16.264 -0.4887  1.1624 -0.5194
 5774TIP3   OH238812   0.744   3.222  14.695  1.1287 -0.2259 -0.6422
 5774TIP3    H138813   0.745   3.317  14.682  1.9410  0.0033  0.8313
 5774TIP3    H238814   0.751   3.211  14.789  0.0006 -1.7592 -0.7102
 5775TIP3   OH238815   1.142   2.076   0.986  0.4614 -0.4574  0.3559
 5775TIP3    H138816   1.064   2.021   0.995 -1.1549  0.8687 -3.6023
 5775TIP3    H238817   1.119   2.158   1.030 -0.0520 -0.4001 -0.0036
 5776TIP3   OH238818   5.373   2.664   2.617  0.2291  0.4437  0.4738
 5776TIP3    H138819   5.396   2.746   2.660  1.5124  0.7165 -0.6362
 5776TIP3    H238820   5.456   2.634   2.579 -0.4562 -0.7865 -0.0968
 5777TIP3   OH238821   1.010   5.524   3.459 -0.0850  0.8832  0.1757
 5777TIP3    H138822   0.972   5.505   3.544 -0.8230  0.9554 -0.1355
 5777TIP3    H238823   1.081   5.586   3.478 -0.6843  1.4332  0.6570
 5778TIP3   OH238824   1.003   5.456  13.199  0.6894 -0.1495 -0.2200
 5778TIP3    H138825   0.925   5.402  13.210  1.0883 -1.0980 -1.8059
 5778TIP3    H238826   1.013   5.500  13.284 -1.0507 -0.6569  0.3034
 5779TIP3   OH238827   1.529   1.103  14.878  0.1232  0.5034  0.3228
 5779TIP3    H138828   1.464   1.129  14.944  1.2126  2.0861  0.8067
 5779TIP3    H238829   1.532   1.176  14.817  0.1834 -0.3370 -0.7171
 5780TIP3   OH238830   6.191   0.556  14.467  0.4428  0.9393  0.5178
 5780TIP3    H138831   6.179   0.500  14.391 -1.4774  2.4006 -0.3329
 5780TIP3    H238832   6.263   0.615  14.443  1.1664  0.1255  0.6508
 5781TIP3   OH238833   2.596   6.470   2.437  0.0354  0.1979  0.9875
 5781TIP3    H138834   2.547   6.459   2.355 -0.1197 -0.8025  1.2021
 5781TIP3    H238835   2.582   6.388   2.484  0.0174  0.8153  2.0818
 5782TIP3   OH238836   1.727   0.544   2.961  0.2038 -0.1851  0.4780
 5782TIP3    H138837   1.791   0.606   2.925 -1.1227  0.6569 -0.5036
 5782TIP3    H238838   1.711   0.575   3.050 -1.6228  1.9253 -0.4927
 5783TIP3   OH238839   2.931   1.819  11.895 -0.4391 -0.2074  0.5989
 5783TIP3    H138840   2.933   1.868  11.812  1.4666 -1.0176  0.1233
 5783TIP3    H238841   3.023   1.805  11.917 -0.9230 -2.0995  1.6162
 5784TIP3   OH238842   4.490   0.502   1.041 -0.6192  0.1042  0.3090
 5784TIP3    H138843   4.493   0.597   1.038  0.1170  0.1691  1.9434
 5784TIP3    H238844   4.443   0.483   1.123  2.4491 -0.8661  2.0063
 5785TIP3   OH238845   3.230   2.065   5.227  0.1841  0.0722 -0.3220
 5785TIP3    H138846   3.269   2.042   5.311  2.5924  1.1887 -1.0553
 5785TIP3    H238847   3.144   2.100   5.250  0.9224  0.7127  1.7336
 5786TIP3   OH238848   3.631   1.679   3.655  0.3486  0.2274  0.3010
 5786TIP3    H138849   3.620   1.591   3.619  1.0318 -0.3124  1.3802
 5786TIP3    H238850   3.664   1.731   3.581  0.6285 -0.5858 -0.1572
 5787TIP3   OH238851   4.175   6.606   5.024 -0.5159  0.3253 -0.5202
 5787TIP3    H138852   4.210   6.690   4.993  0.7951 -0.1941 -0.4703
 5787TIP3    H238853   4.142   6.564   4.945 -1.2598  0.9106 -0.5356
 5788TIP3   OH238854   5.279   4.827   3.780  0.3040  0.5239 -0.3390
 5788TIP3    H138855   5.264   4.882   3.857 -1.1425  0.3685 -0.4800
 5788TIP3    H238856   5.339   4.877   3.726 -0.2690  1.5621 -0.0443
 5789TIP3   OH238857   2.315   5.525  14.725 -0.4030  0.1324 -0.0960
 5789TIP3    H138858   2.313   5.610  14.769 -2.3004  0.7119 -1.1587
 5789TIP3    H238859   2.286   5.544  14.636  0.6331 -1.4248 -0.8039
 5790TIP3   OH238860   5.453   6.517  12.114 -1.0363 -0.5755 -0.1860
 5790TIP3    H138861   5.474   6.497  12.205 -1.9501 -0.4532  0.0665
 5790TIP3    H238862   5.430   6.432  12.075 -0.0386 -0.7224 -0.4849
 5791TIP3   OH238863   3.774   1.210   4.042  0.1115  0.2988 -0.2764
 5791TIP3    H138864   3.733   1.149   4.102 -0.6697 -0.7373 -1.7998
 5791TIP3    H238865   3.867   1.208   4.065  0.0305 -1.1032  0.0088
 5792TIP3   OH238866   1.827   0.894  12.936  0.2479 -0.5067 -0.1637
 5792TIP3    H138867   1.907   0.865  12.979  1.3119 -3.7111 -3.7475
 5792TIP3    H238868   1.757   0.845  12.979  0.4798  0.3298  1.2432
 5793TIP3   OH238869   5.674   1.955  12.284  0.3382  0.3561  0.0364
 5793TIP3    H138870   5.729   2.032  12.296  0.9148  0.2619 -1.6817
 5793TIP3    H238871   5.734   1.886  12.256 -0.4615 -0.1047 -0.6080
 5794TIP3   OH238872   4.473   0.875  14.254 -0.2080 -0.4171 -0.1641
 5794TIP3    H138873   4.560   0.835  14.245  0.4663  0.8813  0.3895
 5794TIP3    H238874   4.488   0.969  14.246 -1.8437 -0.2458 -2.0250
 5795TIP3   OH238875   5.084   2.632   5.499  0.1778 -0.0856 -0.6776
 5795TIP3    H138876   5.094   2.669   5.587  0.4260  0.2145 -0.8289
 5795TIP3    H238877   5.010   2.680   5.461 -0.3641 -0.6860 -0.3930
 5796TIP3   OH238878   4.956   2.916  16.811 -0.0566  0.3974 -0.3094
 5796TIP3    H138879   4.867   2.921  16.774  0.0899 -1.2394 -0.9866
 5796TIP3    H238880   4.949   2.850  16.880  0.8248 -0.5543 -1.0821
 5797TIP3   OH238881   0.574   1.713  14.594  0.5079 -0.1996 -0.0538
 5797TIP3    H138882   0.591   1.805  14.577 -1.1314 -0.0643 -1.1163
 5797TIP3    H238883   0.659   1.670  14.581  0.5539  0.6445 -3.4472
 5798TIP3   OH238884   1.769   4.991  14.874  0.0512 -0.4709 -0.3171
 5798TIP3    H138885   1.808   5.079  14.874  1.0701 -0.9095 -0.4350
 5798TIP3    H238886   1.680   5.004  14.907  0.1443  0.6264 -0.4633
 5799TIP3   OH238887   5.257   3.014  11.899 -0.0496  0.3854  0.4021
 5799TIP3    H138888   5.178   2.961  11.887  0.3309 -0.2826  0.7876
 5799TIP3    H238889   5.227   3.092  11.946 -0.4403  0.0061  0.7874
 5800TIP3   OH238890   6.080   1.879   5.320 -0.0361 -0.1283  0.1938
 5800TIP3    H138891   6.095   1.830   5.401  1.2232 -0.7856 -0.4135
 5800TIP3    H238892   6.132   1.959   5.331  0.5723 -0.4650 -0.1698
 5801TIP3   OH238893   0.402   0.081  11.193  0.2571  0.3979 -0.1089
 5801TIP3    H138894   0.460   0.155  11.210  0.7647 -0.1255  0.4762
 5801TIP3    H238895   0.349   0.109  11.118  2.4037  0.2597 -1.7628
 5802TIP3   OH238896   4.581   2.416   5.297 -0.1899 -0.2602 -0.6833
 5802TIP3    H138897   4.599   2.398   5.205 -1.8284 -1.0873 -0.8830
 5802TIP3    H238898   4.619   2.502   5.312 -1.2960  0.6393 -2.6021
 5803TIP3   OH238899   6.555   1.539  17.027  0.7759 -0.2006 -0.1484
 5803TIP3    H138900   6.468   1.577  17.038  1.8425  2.0901  0.9881
 5803TIP3    H238901   6.573   1.548  16.934  0.4715  0.9253 -0.1121
 5804TIP3   OH238902   6.179   5.057  14.028 -0.1190 -0.3339 -0.8122
 5804TIP3    H138903   6.096   5.038  14.073  0.8237 -0.1028  1.1419
 5804TIP3    H238904   6.203   4.974  13.987  0.1912 -1.3397  1.2605
 5805TIP3   OH238905   2.177   1.023  10.901 -0.1040 -0.3869 -0.0716
 5805TIP3    H138906   2.211   0.934  10.909 -2.3950 -1.1620  2.8190
 5805TIP3    H238907   2.252   1.079  10.922  0.9672 -1.6678 -0.3104
 5806TIP3   OH238908   3.223   4.400  15.638 -0.4331 -0.3378  0.1741
 5806TIP3    H138909   3.203   4.482  15.593 -0.4268 -0.4599 -0.0552
 5806TIP3    H238910   3.293   4.422  15.699 -0.9255 -0.0177  0.6281
 5807TIP3   OH238911   3.763   5.411  16.733  0.4555  0.1999  0.1690
 5807TIP3    H138912   3.677   5.454  16.735  0.4663  0.1975  1.2663
 5807TIP3    H238913   3.769   5.367  16.817  0.9869 -0.9105 -0.4329
 5808TIP3   OH238914   0.618   2.971  10.311  0.0028 -0.5925  0.0141
 5808TIP3    H138915   0.563   3.013  10.377  0.2688 -0.4114  0.1235
 5808TIP3    H238916   0.561   2.909  10.267 -0.4225 -0.0506 -0.2101
 5809TIP3   OH238917   3.432   5.592  12.319  0.3967  0.2708  0.0637
 5809TIP3    H138918   3.468   5.573  12.233 -0.8852 -0.2623 -0.3723
 5809TIP3    H238919   3.508   5.586  12.378  1.3397  0.9087 -1.0360
 5810TIP3   OH238920   3.844   4.960  13.959 -0.3783  0.6225 -0.4998
 5810TIP3    H138921   3.821   5.017  13.885 -0.4099  0.5736 -0.5287
 5810TIP3    H238922   3.936   4.940  13.946 -0.7334 -0.5745 -1.3419
 5811TIP3   OH238923   5.791   1.981   4.462  0.5439  0.0506  0.0795
 5811TIP3    H138924   5.803   1.924   4.386  0.6130 -0.6035  0.5727
 5811TIP3    H238925   5.706   2.023   4.448  0.3274 -0.4525 -0.1080
 5812TIP3   OH238926   4.870   3.488  14.997 -0.3418  0.7695  0.2251
 5812TIP3    H138927   4.895   3.507  14.907 -1.3463  0.5673 -0.0991
 5812TIP3    H238928   4.953   3.466  15.040  0.0289 -0.2006 -0.9143
 5813TIP3   OH238929   4.608   1.618   0.781 -0.1048 -0.2432 -0.7973
 5813TIP3    H138930   4.532   1.641   0.726 -1.9451 -1.2655  1.1649
 5813TIP3    H238931   4.581   1.641   0.870  1.9618 -0.5306 -0.0569
 5814TIP3   OH238932   4.646   3.442   4.214  0.2805  0.2643  0.4770
 5814TIP3    H138933   4.696   3.403   4.143  1.0548  0.6963  0.7620
 5814TIP3    H238934   4.555   3.423   4.194  0.3953  1.2478 -1.1718
 5815TIP3   OH238935   2.481   3.374  11.799  0.1496 -0.0756 -0.0949
 5815TIP3    H138936   2.449   3.405  11.884  2.2551 -0.3874  0.8713
 5815TIP3    H238937   2.432   3.293  11.783 -1.4656  0.8443 -0.0220
 5816TIP3   OH238938   5.670   6.049   6.665 -0.0811  0.6457  0.1208
 5816TIP3    H138939   5.716   6.050   6.581  1.0026  3.1947  0.6385
 5816TIP3    H238940   5.594   5.992   6.650  2.1632 -2.2134 -1.3268
 5817TIP3   OH238941   2.467   5.134  14.252 -0.2544 -0.0407  0.3047
 5817TIP3    H138942   2.443   5.227  14.258 -1.5322 -0.0420 -3.0654
 5817TIP3    H238943   2.401   5.089  14.304  0.5313  0.8831  2.1989
 5818TIP3   OH238944   2.097   5.521   3.679  0.5117  0.8676 -0.3602
 5818TIP3    H138945   2.064   5.445   3.728  1.9221  0.6617  0.3217
 5818TIP3    H238946   2.167   5.485   3.625  0.5851  1.5370 -0.7174
 5819TIP3   OH238947   4.378   3.499  13.711  0.0369 -0.1901  0.8726
 5819TIP3    H138948   4.376   3.573  13.651 -1.0669  1.2984  2.6685
 5819TIP3    H238949   4.360   3.423  13.655  2.7795  0.5820 -1.3103
 5820TIP3   OH238950   6.327   5.748  15.506 -0.2990  0.1523 -0.4607
 5820TIP3    H138951   6.270   5.697  15.448 -2.1470  1.7576 -0.1352
 5820TIP3    H238952   6.334   5.834  15.464  0.4914  0.5230  0.3835
 5821TIP3   OH238953   6.523   0.004   6.640  0.1521 -0.2488  0.2845
 5821TIP3    H138954   6.464  -0.044   6.582  0.2589  0.4380 -0.4067
 5821TIP3    H238955   6.606  -0.043   6.633  1.1946  1.7422 -2.8663
 5822TIP3   OH238956   2.739   3.608   3.790  0.5282  0.3290 -0.0769
 5822TIP3    H138957   2.682   3.673   3.830  0.7538  0.7532 -0.4362
 5822TIP3    H238958   2.826   3.646   3.795  0.7864 -0.3075  0.4502
 5823TIP3   OH238959   0.541   3.629   5.446 -0.1309 -0.0852 -0.7262
 5823TIP3    H138960   0.585   3.625   5.531  0.1638  0.2208 -0.8649
 5823TIP3    H238961   0.448   3.632   5.468 -0.1141 -1.0983 -0.4372
 5824TIP3   OH238962   3.862   5.371  11.438 -0.2791 -0.6615  0.2398
 5824TIP3    H138963   3.797   5.404  11.377  1.9528  0.2746 -1.7713
 5824TIP3    H238964   3.871   5.278  11.416  0.4455 -0.3492 -0.8438
 5825TIP3   OH238965   5.097   0.833  11.692 -0.0312 -0.1430 -0.1309
 5825TIP3    H138966   5.149   0.822  11.612  0.0692  0.0945 -0.1006
 5825TIP3    H238967   5.052   0.917  11.681 -0.8162 -0.5889 -0.3791
 5826TIP3   OH238968   5.913   5.973   2.607  0.6278  0.1008 -0.2860
 5826TIP3    H138969   5.863   6.039   2.655 -0.0610  0.4971 -1.5045
 5826TIP3    H238970   5.948   5.915   2.675  0.0975  0.9171  0.7110
 5827TIP3   OH238971   0.690   1.254  13.065  0.0097 -0.4623 -0.0592
 5827TIP3    H138972   0.783   1.236  13.053  0.4602  2.0728 -0.8896
 5827TIP3    H238973   0.683   1.286  13.155 -0.1825 -1.1909  0.1941
 5828TIP3   OH238974   4.995   1.254  15.504 -0.2932  0.0455 -0.4351
 5828TIP3    H138975   5.034   1.169  15.484 -0.4722 -0.4594  1.1709
 5828TIP3    H238976   5.069   1.306  15.537 -0.1634  0.5624 -1.5164
 5829TIP3   OH238977   2.264   2.281  15.301 -1.0525 -0.1748  0.2574
 5829TIP3    H138978   2.282   2.329  15.381 -2.6521 -1.5851  1.5421
 5829TIP3    H238979   2.169   2.268  15.301 -1.0363 -0.7055 -1.5938
 5830TIP3   OH238980   0.208   2.745  14.601  0.0758  0.0761 -0.2040
 5830TIP3    H138981   0.169   2.831  14.616 -1.2938 -0.6921  0.9334
 5830TIP3    H238982   0.301   2.762  14.589 -0.2739  1.7742 -0.7429
 5831TIP3   OH238983   6.049   3.437   3.625  0.0311 -0.0089 -0.1280
 5831TIP3    H138984   6.011   3.517   3.663 -0.2709 -0.3432  0.2903
 5831TIP3    H238985   5.972   3.385   3.599  0.1889 -0.6902  0.7150
 5832TIP3   OH238986   4.277   2.982  13.134  0.6064  0.2055  0.1989
 5832TIP3    H138987   4.294   2.980  13.228  1.4997  0.3067  0.0459
 5832TIP3    H238988   4.184   3.004  13.127  0.2579 -0.8876  1.0756
 5833TIP3   OH238989   2.803   5.384   5.219 -0.3228 -0.1351  0.0277
 5833TIP3    H138990   2.831   5.330   5.294 -2.5819 -0.7792  0.4759
 5833TIP3    H238991   2.808   5.474   5.251 -0.4689 -0.3548  0.6959
 5834TIP3   OH238992   0.328   1.526  15.090  0.6277 -0.1501 -0.4327
 5834TIP3    H138993   0.329   1.501  15.182  1.9032 -1.1634 -0.6793
 5834TIP3    H238994   0.375   1.455  15.046  0.9132  0.8057 -1.7355
 5835TIP3   OH238995   1.061   6.054   0.217 -0.2373  0.1360 -0.2464
 5835TIP3    H138996   1.056   5.986   0.285 -0.3593  0.6428  0.2621
 5835TIP3    H238997   1.154   6.058   0.195 -0.3439 -0.7809 -0.8907
 5836TIP3   OH238998   4.402   0.552   4.944 -0.4741  0.3102  0.4009
 5836TIP3    H138999   4.339   0.603   4.891 -0.4854  1.0025  1.0636
 5836TIP3    H239000   4.361   0.546   5.030  0.0624  0.1868  0.6514
 5837TIP3   OH239001   0.695   5.601   0.718 -0.2357 -0.4041 -0.4609
 5837TIP3    H139002   0.620   5.542   0.727 -0.2824 -0.2522  0.1695
 5837TIP3    H239003   0.755   5.553   0.660 -0.6626 -0.6744 -0.6929
 5838TIP3   OH239004   2.783   6.020  13.796  0.8339 -0.2573 -0.1653
 5838TIP3    H139005   2.712   6.052  13.741  0.3853 -1.0644 -0.0712
 5838TIP3    H239006   2.770   5.925  13.800  0.9737 -0.2438  1.1556
 5839TIP3   OH239007   5.648   2.427  12.499 -0.0819 -0.3530  0.0385
 5839TIP3    H139008   5.602   2.498  12.455  0.5275  0.3443  0.4943
 5839TIP3    H239009   5.594   2.407  12.575 -0.3864 -0.5537 -0.2299
 5840TIP3   OH239010   6.119   5.524  16.140  0.2338  0.3566 -0.0249
 5840TIP3    H139011   6.030   5.549  16.164  0.2502  1.0892 -0.7086
 5840TIP3    H239012   6.175   5.580  16.193  0.2731  1.0697 -0.8014
 5841TIP3   OH239013   4.111   3.855   1.561  0.3058 -0.5181  0.0027
 5841TIP3    H139014   4.189   3.810   1.594  1.2853  1.7528  0.9588
 5841TIP3    H239015   4.052   3.784   1.536  2.8129 -2.3276 -1.1930
 5842TIP3   OH239016   2.464   6.641   5.879 -0.1615  0.0319  0.5009
 5842TIP3    H139017   2.417   6.615   5.958 -1.5423 -0.7533 -0.5273
 5842TIP3    H239018   2.556   6.623   5.898 -0.6326 -1.6861  1.3580
 5843TIP3   OH239019   5.595   3.173   4.311 -0.0019  0.3593  0.6903
 5843TIP3    H139020   5.605   3.222   4.229 -1.9407  0.1552  0.2870
 5843TIP3    H239021   5.629   3.233   4.378  1.0737  0.7552 -0.1692
 5844TIP3   OH239022   6.717   6.550   3.041  0.1113  0.2857 -0.1749
 5844TIP3    H139023   6.717   6.455   3.045 -4.4339  0.0304 -1.1292
 5844TIP3    H239024   6.714   6.578   3.132 -2.2079 -0.7497  0.1296
 5845TIP3   OH239025   4.398   0.580   4.355 -0.0311 -0.0929 -0.7010
 5845TIP3    H139026   4.453   0.649   4.318 -0.5452 -0.2175 -1.7138
 5845TIP3    H239027   4.328   0.628   4.400  0.1929  0.0529 -0.5042
 5846TIP3   OH239028   5.741   4.595  15.789  0.8081  0.2405 -0.0068
 5846TIP3    H139029   5.811   4.559  15.843  0.1561 -0.4036  0.4223
 5846TIP3    H239030   5.696   4.519  15.752  0.3072  0.6415 -0.2464
 5847TIP3   OH239031   1.932   3.854  14.168 -0.3980 -0.5591 -0.6541
 5847TIP3    H139032   1.855   3.885  14.215  1.6842 -0.9866  3.5001
 5847TIP3    H239033   1.988   3.932  14.159  0.5320 -1.0661  0.4958
 5848TIP3   OH239034   5.720   2.496  10.292 -0.2153 -0.3057 -0.3205
 5848TIP3    H139035   5.813   2.480  10.274  0.1562 -1.8475  2.3910
 5848TIP3    H239036   5.720   2.558  10.365 -1.2234 -1.4342  0.6832
 5849TIP3   OH239037   2.091   3.989   3.679 -0.2438 -0.5064  0.3117
 5849TIP3    H139038   2.031   3.956   3.747  2.2847 -0.9299  2.5239
 5849TIP3    H239039   2.084   4.084   3.686 -0.9974 -0.5521  0.2246
 5850TIP3   OH239040   0.696   0.676  12.116  0.6842  0.3980  0.2794
 5850TIP3    H139041   0.653   0.757  12.144 -1.9949 -0.9654  0.3930
 5850TIP3    H239042   0.657   0.608  12.171  1.4038 -1.2418 -1.1459
 5851TIP3   OH239043   1.315   3.892   4.762  0.1031 -0.5362 -0.7168
 5851TIP3    H139044   1.330   3.848   4.678 -1.2632  0.4206 -1.5010
 5851TIP3    H239045   1.232   3.938   4.751  0.0627 -0.0918  1.0528
 5852TIP3   OH239046   0.832   3.715  11.445 -0.0719 -0.3699 -0.0523
 5852TIP3    H139047   0.901   3.722  11.380 -1.1158  2.5747 -1.0178
 5852TIP3    H239048   0.763   3.664  11.403 -0.6390  1.3064 -1.2364
 5853TIP3   OH239049   0.413   4.856  15.083  0.0422 -1.0279  0.2676
 5853TIP3    H139050   0.356   4.854  15.160 -3.6567  1.4328 -2.0993
 5853TIP3    H239051   0.445   4.946  15.079 -0.5111 -0.8709 -1.4485
 5854TIP3   OH239052   6.835   5.947  11.388  0.2574  0.4127  0.4486
 5854TIP3    H139053   6.850   5.923  11.297  2.1147  0.6442  0.6483
 5854TIP3    H239054   6.744   5.976  11.391  0.3910  1.1666 -1.5028
 5855TIP3   OH239055   4.210   0.739   4.850 -0.0627  0.2833  0.0147
 5855TIP3    H139056   4.182   0.771   4.764 -0.1935 -1.2246 -0.5294
 5855TIP3    H239057   4.137   0.684   4.879  0.5921 -0.3740  0.4301
 5856TIP3   OH239058   1.584   3.632   4.800  0.3825 -0.3772  0.1302
 5856TIP3    H139059   1.540   3.714   4.817  1.3421  0.1602  0.1092
 5856TIP3    H239060   1.572   3.580   4.879  0.0547 -0.0879  0.2689
 5857TIP3   OH239061   3.093   2.047  15.717  0.5271  0.9795 -0.4117
 5857TIP3    H139062   3.055   1.979  15.660  1.2688 -0.7010  1.0229
 5857TIP3    H239063   3.065   2.023  15.805  1.7129  1.9235  0.2516
 5858TIP3   OH239064   6.587   1.143  14.227  0.4012  0.0330 -0.5118
 5858TIP3    H139065   6.525   1.196  14.176  0.1171 -2.0053 -2.4326
 5858TIP3    H239066   6.672   1.182  14.209  0.0384  0.8652 -0.4894
 5859TIP3   OH239067   4.435   4.546   4.572  0.2173 -0.4681  0.5020
 5859TIP3    H139068   4.417   4.635   4.541 -0.8095 -0.7854  0.1651
 5859TIP3    H239069   4.470   4.558   4.661  0.9810  0.3142  0.1041
 5860TIP3   OH239070   1.262   2.138   0.136  0.2000 -1.2212  0.4107
 5860TIP3    H139071   1.335   2.174   0.087 -0.3761 -1.2100 -0.4645
 5860TIP3    H239072   1.300   2.110   0.219  1.1792 -1.1645 -0.0049
 5861TIP3   OH239073   0.235   1.185  13.393  0.0797 -0.4593 -0.5112
 5861TIP3    H139074   0.228   1.256  13.329  0.4240 -0.6417 -0.7543
 5861TIP3    H239075   0.321   1.146  13.376  0.8192  0.3892  0.9836
 5862TIP3   OH239076   4.236   6.458   4.211  0.2198 -0.2314 -0.1603
 5862TIP3    H139077   4.280   6.399   4.273 -1.8534 -2.0699 -0.2938
 5862TIP3    H239078   4.146   6.426   4.208 -0.2928  1.1970 -2.4783
 5863TIP3   OH239079   4.805   0.261   5.560  0.1668 -0.5114  0.4122
 5863TIP3    H139080   4.743   0.304   5.501  0.5725  0.9000  0.9521
 5863TIP3    H239081   4.883   0.245   5.506 -0.1046 -0.8454  0.1221
 5864TIP3   OH239082   3.557   1.449  12.950 -0.2166  0.2643  0.0190
 5864TIP3    H139083   3.604   1.366  12.956  0.1709  0.5346  0.9242
 5864TIP3    H239084   3.471   1.426  12.916  0.1703 -0.3917 -0.5403
 5865TIP3   OH239085   4.927   4.832   6.520 -0.1581  0.2090 -0.0384
 5865TIP3    H139086   4.969   4.918   6.515  0.0120  0.1194 -0.1655
 5865TIP3    H239087   4.998   4.770   6.504 -0.2258  0.0324  0.3552
 5866TIP3   OH239088   4.659   4.358   1.635 -0.0123  0.7575 -0.6416
 5866TIP3    H139089   4.734   4.298   1.633  0.1805  0.9639  0.1057
 5866TIP3    H239090   4.586   4.305   1.601  0.2075  0.1714 -0.2293
 5867TIP3   OH239091   0.694   2.305  14.117 -0.3369 -0.1125  0.0758
 5867TIP3    H139092   0.721   2.225  14.071 -1.7217 -0.8218  0.4494
 5867TIP3    H239093   0.720   2.291  14.208  0.1150  0.2144  0.0052
 5868TIP3   OH239094   4.863   5.203  14.422 -0.0853 -0.1345 -0.7677
 5868TIP3    H139095   4.900   5.268  14.364 -1.3555  0.0101 -1.4499
 5868TIP3    H239096   4.846   5.127  14.366  0.4457 -0.7017 -0.1849
 5869TIP3   OH239097   4.161   1.210  11.195  0.0569 -0.1298 -0.2587
 5869TIP3    H139098   4.190   1.273  11.261  0.1461  0.5402 -0.9226
 5869TIP3    H239099   4.215   1.229  11.118  0.1674 -1.1008 -0.4409
 5870TIP3   OH239100   4.344   6.721  14.569 -0.0429  0.4466 -0.9565
 5870TIP3    H139101   4.417   6.661  14.558 -0.0502  0.2956 -0.2031
 5870TIP3    H239102   4.380   6.806  14.543  0.4802  0.4180 -0.3558
 5871TIP3   OH239103   5.398   3.794   2.876  0.1118 -0.6096  0.0240
 5871TIP3    H139104   5.469   3.732   2.892  1.0803  0.7482  1.2056
 5871TIP3    H239105   5.394   3.848   2.955 -0.0345  1.4548 -1.3071
 5872TIP3   OH239106   2.237   1.928   3.043 -0.1018 -0.0479  0.1177
 5872TIP3    H139107   2.175   1.967   3.105 -1.3258 -1.2698 -0.3137
 5872TIP3    H239108   2.323   1.954   3.077 -0.7415 -0.3949  2.1391
 5873TIP3   OH239109   2.838   6.060   2.546 -0.2337  0.7107 -0.4457
 5873TIP3    H139110   2.885   6.066   2.463  0.6800 -0.5336 -0.0502
 5873TIP3    H239111   2.906   6.063   2.613 -0.9404  1.4692  0.2664
 5874TIP3   OH239112   4.213   4.865   2.787  0.2154 -0.6696  0.0033
 5874TIP3    H139113   4.295   4.846   2.834  0.2220  2.4288  1.5043
 5874TIP3    H239114   4.145   4.860   2.854 -0.5683 -1.3253 -0.8222
 5875TIP3   OH239115   2.088   6.062   0.691  0.0965 -0.1451 -0.2335
 5875TIP3    H139116   2.009   6.034   0.737  1.1671 -1.4808  0.8878
 5875TIP3    H239117   2.088   6.011   0.609  0.5951 -1.4044  0.5179
 5876TIP3   OH239118   2.465   5.611   0.344 -0.1296 -0.5153 -0.0144
 5876TIP3    H139119   2.428   5.663   0.415 -0.5920  0.0229 -0.6322
 5876TIP3    H239120   2.502   5.675   0.283  0.2581 -0.9626 -0.2598
 5877TIP3   OH239121   0.407   6.151   5.838  0.0569 -0.3230 -0.4693
 5877TIP3    H139122   0.375   6.061   5.841  2.0765 -1.1046 -0.7195
 5877TIP3    H239123   0.420   6.169   5.745 -0.7235  0.3998 -0.4525
 5878TIP3   OH239124   2.798   0.186   6.363  0.0736  0.0593 -0.1221
 5878TIP3    H139125   2.857   0.249   6.321 -1.5449  0.7660 -1.4738
 5878TIP3    H239126   2.853   0.138   6.424  1.9269  1.0147 -0.9641
 5879TIP3   OH239127   1.980   0.038  14.936  0.3374 -0.5575 -0.1983
 5879TIP3    H139128   1.929  -0.033  14.974 -0.3626 -1.0523 -1.9651
 5879TIP3    H239129   2.012   0.003  14.853  1.4295  0.6244 -0.3138
 5880TIP3   OH239130   0.426   2.453  11.021 -0.0669  0.2474  0.0640
 5880TIP3    H139131   0.378   2.395  10.962  0.1764  0.1211 -0.0123
 5880TIP3    H239132   0.492   2.397  11.061  0.2275  0.4937 -0.0773
 5881TIP3   OH239133   4.328   4.059  16.434  0.3609 -0.7511  0.2509
 5881TIP3    H139134   4.376   4.137  16.463  1.3666 -1.1164 -0.3631
 5881TIP3    H239135   4.391   4.011  16.381 -0.8902 -0.9436 -1.1300
 5882TIP3   OH239136   6.255   1.463  15.951  0.1105 -0.2607 -0.2316
 5882TIP3    H139137   6.168   1.423  15.956 -1.7341  3.1574 -1.5412
 5882TIP3    H239138   6.272   1.470  15.857 -0.0241  2.5078 -0.1039
 5883TIP3   OH239139   3.412   5.847  15.548 -0.4380  0.0029 -0.0792
 5883TIP3    H139140   3.344   5.913  15.533 -1.1694 -0.2530  1.8321
 5883TIP3    H239141   3.381   5.798  15.624  0.8734 -1.5171 -0.4781
 5884TIP3   OH239142   3.332   2.985   1.260  0.5878 -0.2248 -0.2956
 5884TIP3    H139143   3.387   3.014   1.333 -0.1649 -1.2168  0.6906
 5884TIP3    H239144   3.247   2.968   1.299 -0.4610  1.2758 -1.8056
 5885TIP3   OH239145   1.206   1.423  16.130 -0.2774 -0.0460 -0.3810
 5885TIP3    H139146   1.289   1.468  16.143 -1.5334  1.9455  1.4184
 5885TIP3    H239147   1.214   1.382  16.044  2.1826  0.8973 -0.6671
 5886TIP3   OH239148   4.212   5.684  16.314 -0.2738  0.3623  0.1368
 5886TIP3    H139149   4.269   5.755  16.282  0.2059  0.5702  1.4094
 5886TIP3    H239150   4.260   5.646  16.387 -1.2077 -0.3150  0.4133
 5887TIP3   OH239151   3.803   1.011  16.201  0.8410  0.0705 -0.4639
 5887TIP3    H139152   3.772   1.100  16.222 -0.1790  0.3874 -3.0038
 5887TIP3    H239153   3.883   1.002  16.252 -0.7076  1.1536  2.4543
 5888TIP3   OH239154   1.785   4.706  10.633  0.3680 -0.6942  0.0943
 5888TIP3    H139155   1.712   4.650  10.659 -0.2831 -0.2621 -0.7344
 5888TIP3    H239156   1.780   4.709  10.537  1.6003 -0.8178  0.0088
 5889TIP3   OH239157   0.547   3.139   2.971  0.3817 -0.8518 -0.0364
 5889TIP3    H139158   0.572   3.185   2.891  1.3748 -2.4954 -0.7213
 5889TIP3    H239159   0.473   3.084   2.944 -1.2565  0.7615  0.9402
 5890TIP3   OH239160   3.019   1.652  14.445  0.2394 -0.2279  0.3229
 5890TIP3    H139161   3.057   1.687  14.525 -0.6392  1.0236  0.2234
 5890TIP3    H239162   3.082   1.674  14.377  0.3233 -0.0245  0.4652
 5891TIP3   OH239163   6.142   0.310  15.812 -0.2822  0.3841  0.1406
 5891TIP3    H139164   6.062   0.318  15.863 -1.4483 -1.5494 -1.2384
 5891TIP3    H239165   6.123   0.240  15.749  2.9513 -1.1205  0.6446
 5892TIP3   OH239166   2.152   2.164   4.343  0.3705 -0.6857 -0.3294
 5892TIP3    H139167   2.247   2.162   4.359  0.3268  0.0585  0.0765
 5892TIP3    H239168   2.143   2.142   4.251  1.1651  2.1723 -1.1927
 5893TIP3   OH239169   5.863   4.241  14.104 -0.3448  0.2079  0.7118
 5893TIP3    H139170   5.773   4.212  14.118 -0.7970  0.8096 -0.7501
 5893TIP3    H239171   5.909   4.164  14.071 -1.0259  0.5349 -1.1316
 5894TIP3   OH239172   2.483   0.848  11.325  0.6273 -0.4406 -0.3721
 5894TIP3    H139173   2.568   0.890  11.328  0.8195 -0.8517  0.3211
 5894TIP3    H239174   2.457   0.850  11.233 -0.1741  2.7627 -0.1867
 5895TIP3   OH239175   1.473   1.176   4.141 -0.2906 -0.2834 -0.3549
 5895TIP3    H139176   1.468   1.168   4.236 -0.6919 -0.9450 -0.4239
 5895TIP3    H239177   1.397   1.229   4.117  0.9624  1.7256 -0.1333
 5896TIP3   OH239178   3.014   4.785   1.118 -0.1307 -0.0156  0.5140
 5896TIP3    H139179   3.046   4.764   1.030 -1.1213 -1.1831  0.4104
 5896TIP3    H239180   3.047   4.714   1.173  1.6567  1.4154  1.4014
 5897TIP3   OH239181   1.291   5.994  16.738  0.2939  0.1152  0.0874
 5897TIP3    H139182   1.294   5.903  16.766 -0.9535  0.5740  1.9386
 5897TIP3    H239183   1.214   5.999  16.681  0.1752  0.0633  0.2410
 5898TIP3   OH239184   0.409   4.158  14.189 -0.0707  0.3768  0.4960
 5898TIP3    H139185   0.495   4.199  14.192 -0.2172  0.8251 -0.6517
 5898TIP3    H239186   0.401   4.112  14.272  0.7487  1.3873  1.1685
 5899TIP3   OH239187   3.695   6.725   6.565  0.7597  0.3855 -0.3662
 5899TIP3    H139188   3.652   6.639   6.570  1.6482 -0.1358 -1.2663
 5899TIP3    H239189   3.626   6.788   6.587  0.1449 -0.5596  0.5535
 5900TIP3   OH239190   1.735   3.045   2.331 -0.2198  0.6093 -0.2838
 5900TIP3    H139191   1.788   3.031   2.409  1.2868  1.3631 -1.1358
 5900TIP3    H239192   1.655   2.994   2.346  0.2463  0.3729  1.5253
 5901TIP3   OH239193   6.063   6.188   0.680 -0.3816  0.4504 -0.0512
 5901TIP3    H139194   6.116   6.129   0.734 -1.9895 -0.7121  0.3337
 5901TIP3    H239195   6.033   6.255   0.741  1.4612  1.7547 -0.4924
 5902TIP3   OH239196   1.794   5.213   3.217 -0.2877  0.3384 -0.4502
 5902TIP3    H139197   1.704   5.214   3.250 -0.5976 -0.4489 -1.2306
 5902TIP3    H239198   1.786   5.183   3.127  0.5042  2.6790 -1.3819
 5903TIP3   OH239199   6.470   1.905   4.050  0.3167  0.2733  0.3146
 5903TIP3    H139200   6.490   1.996   4.026 -0.2445 -0.3812 -3.0903
 5903TIP3    H239201   6.392   1.911   4.104  0.5561  1.8214  0.5357
 5904TIP3   OH239202   5.933   0.274   3.282 -0.1783  0.0166 -0.5658
 5904TIP3    H139203   6.010   0.308   3.327 -0.6062  0.8546 -0.4641
 5904TIP3    H239204   5.963   0.193   3.241  0.9800  0.7578 -1.2241
 5905TIP3   OH239205   2.490   4.725   6.293  0.3879 -0.3270  0.7259
 5905TIP3    H139206   2.528   4.813   6.299 -0.1857  0.1289 -1.3970
 5905TIP3    H239207   2.398   4.740   6.273  0.0982 -1.4302  1.1471
 5906TIP3   OH239208   0.295   3.376   2.662 -0.0491 -0.3392 -0.7595
 5906TIP3    H139209   0.276   3.304   2.722  0.8865 -0.5195 -0.6682
 5906TIP3    H239210   0.317   3.334   2.579 -1.3541 -0.0902 -1.2519
 5907TIP3   OH239211   6.214   1.071  15.979  0.2961 -0.6735 -0.6432
 5907TIP3    H139212   6.133   1.043  15.937 -0.8154 -0.5722  1.3083
 5907TIP3    H239213   6.186   1.110  16.062  2.3448 -0.6412  0.1025
 5908TIP3   OH239214   0.539   3.652   3.200  0.0517 -0.0572 -0.0479
 5908TIP3    H139215   0.508   3.613   3.281  2.3384 -1.5288  0.2299
 5908TIP3    H239216   0.555   3.578   3.142  1.9819  0.6055 -0.4721
 5909TIP3   OH239217   5.435   1.514  13.440 -0.3450  0.6557 -0.6190
 5909TIP3    H139218   5.503   1.509  13.507 -1.6187 -0.6390  0.6468
 5909TIP3    H239219   5.356   1.479  13.483 -1.6671  1.5387 -2.2147
 5910TIP3   OH239220   0.290   4.144   5.938 -0.2999 -0.1669  0.2212
 5910TIP3    H139221   0.315   4.106   5.853 -1.7876 -0.3191 -0.1783
 5910TIP3    H239222   0.338   4.091   6.002  0.3849 -0.4364 -0.4849
 5911TIP3   OH239223   3.845   2.952   3.334  0.2659 -0.4566  0.0600
 5911TIP3    H139224   3.754   2.926   3.348  0.1724 -0.0548  0.2046
 5911TIP3    H239225   3.890   2.928   3.415  0.1695 -0.1322  0.2123
 5912TIP3   OH239226   6.324   5.744   6.430  0.0675 -0.0465  0.1956
 5912TIP3    H139227   6.419   5.753   6.443  0.3462 -0.5482 -1.2882
 5912TIP3    H239228   6.305   5.654   6.456 -0.0004  0.0213  0.3888
 5913TIP3   OH239229   1.293   0.313   2.382  0.2303 -0.2332 -0.2345
 5913TIP3    H139230   1.366   0.266   2.421 -0.8870  0.6965  3.4186
 5913TIP3    H239231   1.225   0.246   2.370 -0.1507 -0.2568  1.6602
 5914TIP3   OH239232   0.283   2.824   4.653 -0.5012  0.2894  0.5113
 5914TIP3    H139233   0.375   2.850   4.660 -0.8281  1.4803  0.5914
 5914TIP3    H239234   0.276   2.783   4.567 -0.3617  2.2523 -0.4822
 5915TIP3   OH239235   6.056   5.871  12.698 -0.5827 -0.1585  0.2113
 5915TIP3    H139236   6.074   5.883  12.791 -0.5125  0.8387  0.0763
 5915TIP3    H239237   5.990   5.802  12.695  1.8469 -2.7171  0.8148
 5916TIP3   OH239238   5.458   0.340  10.958 -0.4007 -0.4372  0.2794
 5916TIP3    H139239   5.478   0.252  10.926  0.5733 -1.0957  2.4732
 5916TIP3    H239240   5.511   0.398  10.904 -1.2155 -1.1602 -1.3387
 5917TIP3   OH239241   4.266   2.364  16.842  0.3768  0.2008  0.4614
 5917TIP3    H139242   4.264   2.354  16.938 -0.1850  0.0638  0.4373
 5917TIP3    H239243   4.278   2.275  16.809  3.4650  0.5092  0.4585
 5918TIP3   OH239244   0.297   2.621  16.160  0.2340  0.2434  0.0720
 5918TIP3    H139245   0.321   2.661  16.244  0.4141  1.3717 -0.4923
 5918TIP3    H239246   0.347   2.671  16.095  0.5907 -1.0412 -0.6604
 5919TIP3   OH239247   6.124   1.828   0.764 -0.5083  0.3005  0.2962
 5919TIP3    H139248   6.165   1.801   0.846  0.0103 -0.3617 -0.1652
 5919TIP3    H239249   6.155   1.917   0.749  0.0904  0.1143  0.3925
 5920TIP3   OH239250   3.665   5.619  11.366  0.6160  0.0034  0.3579
 5920TIP3    H139251   3.666   5.545  11.306  0.7643  0.4160 -0.1550
 5920TIP3    H239252   3.640   5.581  11.450 -2.0133 -0.2165 -0.4314
 5921TIP3   OH239253   1.402   2.284   0.351  0.2513 -0.0909 -0.2518
 5921TIP3    H139254   1.399   2.368   0.396  0.3435  0.6148 -1.5296
 5921TIP3    H239255   1.406   2.219   0.422 -1.3594  0.8824  0.7976
 5922TIP3   OH239256   6.699   4.904  15.084  0.3332 -0.4807  0.1796
 5922TIP3    H139257   6.714   4.878  14.993  0.5196  0.2087  0.0094
 5922TIP3    H239258   6.637   4.976  15.078 -1.4161 -1.8655  0.7469
 5923TIP3   OH239259   4.104   6.476  11.498  0.1296  0.0326  0.2476
 5923TIP3    H139260   4.070   6.490  11.409  1.1387 -0.7583 -0.2729
 5923TIP3    H239261   4.064   6.394  11.526  1.1182 -0.5846 -0.1309
 5924TIP3   OH239262   6.400   4.372  15.338  0.0864 -0.2744 -0.1456
 5924TIP3    H139263   6.315   4.375  15.293 -0.4620  0.6257  0.8898
 5924TIP3    H239264   6.459   4.421  15.282  0.4601 -2.5077 -1.8481
 5925TIP3   OH239265   4.057   1.625  12.380 -0.4145  0.0078 -0.2554
 5925TIP3    H139266   4.111   1.642  12.457 -2.4166  0.0285  1.2251
 5925TIP3    H239267   4.040   1.531  12.383  0.6708 -0.2490 -1.5204
 5926TIP3   OH239268   5.534   0.594   1.411  0.1677  0.2880 -0.3504
 5926TIP3    H139269   5.500   0.626   1.495  0.9720  1.0599 -0.3071
 5926TIP3    H239270   5.629   0.592   1.423  0.3381  1.0518 -1.4584
 5927TIP3   OH239271   0.783   3.932  16.742 -0.6981 -0.6373  0.2423
 5927TIP3    H139272   0.877   3.944  16.729 -0.8425 -1.5738 -2.0435
 5927TIP3    H239273   0.757   3.867  16.677 -2.8765 -0.6917  1.0716
 5928TIP3   OH239274   4.663   6.729  13.896  0.6604 -0.2162 -0.1311
 5928TIP3    H139275   4.639   6.757  13.984  0.8746 -0.4965  0.0180
 5928TIP3    H239276   4.622   6.794  13.838 -0.2446 -0.5365  0.1232
 5929TIP3   OH239277   1.164   2.339   2.560 -0.1164 -0.0401 -0.7349
 5929TIP3    H139278   1.229   2.343   2.630 -0.0793 -3.3835 -0.4179
 5929TIP3    H239279   1.115   2.421   2.568  1.7668  0.9928  1.2620
 5930TIP3   OH239280   1.675   5.879   0.586 -0.2379  0.6182 -0.2689
 5930TIP3    H139281   1.621   5.838   0.653 -0.4356  1.4530  0.0970
 5930TIP3    H239282   1.695   5.809   0.524 -0.3478 -0.0821  0.4749
 5931TIP3   OH239283   5.401   0.690   5.704  0.6570 -0.1185  0.0033
 5931TIP3    H139284   5.444   0.731   5.779  1.1491  0.0543 -0.3712
 5931TIP3    H239285   5.312   0.726   5.705  0.5861 -0.2933  0.6354
 5932TIP3   OH239286   0.501   5.592  16.915  0.2681 -0.2132 -0.6085
 5932TIP3    H139287   0.569   5.648  16.952  0.7319 -0.0691 -1.6566
 5932TIP3    H239288   0.437   5.652  16.878 -0.3455 -0.3519  0.2080
 5933TIP3   OH239289   0.875   1.297  12.126 -0.0027  0.2089  0.0211
 5933TIP3    H139290   0.881   1.380  12.078 -2.9426  1.7844  2.0436
 5933TIP3    H239291   0.862   1.231  12.058  0.6400  1.6470 -1.5783
 5934TIP3   OH239292   3.678   5.448   4.469  0.0442 -0.3855 -0.0621
 5934TIP3    H139293   3.646   5.516   4.528  1.3606 -1.4811  2.0320
 5934TIP3    H239294   3.606   5.386   4.462 -0.8064  0.6890 -1.2011
 5935TIP3   OH239295   4.066   0.939  16.301 -0.7029 -0.3031 -0.4273
 5935TIP3    H139296   4.161   0.942  16.296 -0.7044 -0.9478 -0.9130
 5935TIP3    H239297   4.048   0.893  16.384 -0.6497  3.4168  1.8997
 5936TIP3   OH239298   4.751   2.321   6.031  0.3966 -0.0748 -0.1121
 5936TIP3    H139299   4.729   2.354   6.118 -0.1063  1.1043 -0.6641
 5936TIP3    H239300   4.782   2.231   6.046  0.7963  0.2791  1.3282
 5937TIP3   OH239301   3.539   0.233   6.280  0.3591  0.7190 -0.2597
 5937TIP3    H139302   3.608   0.191   6.332 -0.4497 -0.1568  0.1381
 5937TIP3    H239303   3.562   0.326   6.280  1.7412  0.4046 -0.4473
 5938TIP3   OH239304   5.876   6.608  14.070  0.2149 -0.1752  0.5545
 5938TIP3    H139305   5.945   6.660  14.028  1.2089  0.5064  2.9030
 5938TIP3    H239306   5.795   6.642  14.033  1.0155  0.4578 -0.7012
 5939TIP3   OH239307   4.512   5.506  13.840  0.0118 -1.1674 -0.0775
 5939TIP3    H139308   4.584   5.454  13.804  0.0839 -0.0474 -1.5946
 5939TIP3    H239309   4.480   5.559  13.767 -2.3534 -1.5904  0.5498
 5940TIP3   OH239310   2.660   3.683   0.431 -0.5154  0.6465  0.3334
 5940TIP3    H139311   2.693   3.631   0.504 -1.7710  1.9048  1.8599
 5940TIP3    H239312   2.589   3.630   0.393  0.5281 -0.2731 -0.4149
 5941TIP3   OH239313   3.986   5.815  12.096  0.8437 -0.6648 -0.0546
 5941TIP3    H139314   4.071   5.820  12.140 -1.0308  0.9331  3.8534
 5941TIP3    H239315   3.973   5.903  12.060 -0.3706  0.1853  2.2352
 5942TIP3   OH239316   3.183   2.324   2.185 -0.0213  0.1699  0.2288
 5942TIP3    H139317   3.176   2.333   2.280  1.0226  0.2760  0.3036
 5942TIP3    H239318   3.198   2.413   2.154 -2.9943  0.5818 -0.3262
 5943TIP3   OH239319   2.785   2.418  13.646 -0.0396 -0.3205 -0.2319
 5943TIP3    H139320   2.781   2.408  13.550 -1.2867  5.2285 -1.0658
 5943TIP3    H239321   2.714   2.478  13.667  2.9206  2.3318  3.5037
 5944TIP3   OH239322   0.426   4.034   0.964  0.0700  0.5804 -0.6913
 5944TIP3    H139323   0.439   4.117   1.011  0.6089  1.3895 -2.2186
 5944TIP3    H239324   0.472   3.969   1.017  1.3345  1.5990 -0.4919
 5945TIP3   OH239325   4.043   1.445   2.697 -0.0349  0.3296  0.2756
 5945TIP3    H139326   4.129   1.485   2.693 -0.2869  0.7925 -2.7919
 5945TIP3    H239327   4.060   1.351   2.697  0.4696  0.4157  0.9871
 5946TIP3   OH239328   0.623   4.190  12.020  0.0497  0.0515 -0.2062
 5946TIP3    H139329   0.585   4.107  12.048  1.5787 -0.8117 -0.5952
 5946TIP3    H239330   0.717   4.174  12.017  0.2958  1.4868 -1.3147
 5947TIP3   OH239331   1.422   3.023   0.358  0.4618  0.0513 -0.1468
 5947TIP3    H139332   1.339   2.983   0.333  0.9455 -0.5906 -0.7715
 5947TIP3    H239333   1.398   3.094   0.418 -0.4768 -0.6167  0.2878
 5948TIP3   OH239334   3.862   3.774  12.607 -0.1630  0.2942  0.4805
 5948TIP3    H139335   3.781   3.825  12.604 -0.7100 -0.6045 -0.7704
 5948TIP3    H239336   3.859   3.718  12.530  0.1560 -2.0447  2.0394
 5949TIP3   OH239337   2.839   5.905  10.659  0.5581  0.4249  0.3573
 5949TIP3    H139338   2.774   5.974  10.641  0.5023  0.1162 -0.7341
 5949TIP3    H239339   2.847   5.903  10.754 -0.0122  1.4154  0.4407
 5950TIP3   OH239340   2.726   4.190   5.468 -0.4376  0.4234  0.5518
 5950TIP3    H139341   2.674   4.270   5.475 -0.1949  0.7002 -0.6801
 5950TIP3    H239342   2.764   4.178   5.555 -0.6499  1.5270  0.8018
 5951TIP3   OH239343   2.974   1.418  14.290  0.0699  0.2301  0.5018
 5951TIP3    H139344   3.048   1.404  14.231 -0.4693 -1.3039  0.1635
 5951TIP3    H239345   3.001   1.492  14.344  0.2799  2.2793 -2.1669
 5952TIP3   OH239346   0.245   5.519  14.321 -0.0408  0.1243  0.4259
 5952TIP3    H139347   0.268   5.544  14.231 -0.5878  0.7762  0.4642
 5952TIP3    H239348   0.150   5.511  14.320  0.0619 -1.3222  0.5887
 5953TIP3   OH239349   0.251   0.729   5.704 -0.0011 -0.0608 -0.3623
 5953TIP3    H139350   0.198   0.713   5.782 -2.0045  1.3839 -1.3390
 5953TIP3    H239351   0.340   0.735   5.736 -0.7350  0.1930  1.7694
 5954TIP3   OH239352   3.324   1.539   5.126 -0.5352  0.6293  0.1810
 5954TIP3    H139353   3.312   1.467   5.063  0.9810  1.5165 -1.2101
 5954TIP3    H239354   3.375   1.500   5.197 -1.6731 -0.2195  0.5559
 5955TIP3   OH239355   2.415   6.778  16.302  0.1874  0.0368  0.3636
 5955TIP3    H139356   2.363   6.761  16.223  3.3716  0.4267 -2.0107
 5955TIP3    H239357   2.379   6.718  16.367 -1.2932 -1.8172 -1.9779
 5956TIP3   OH239358   1.980   0.831   4.336  0.1505 -0.3922  0.2075
 5956TIP3    H139359   2.024   0.747   4.351 -0.9779 -1.2420 -1.0883
 5956TIP3    H239360   1.961   0.832   4.243  0.0638  1.2897  0.2122
 5957TIP3   OH239361   3.880   1.978   1.183 -0.8603  0.3402  0.1451
 5957TIP3    H139362   3.922   1.904   1.227 -1.9585  0.7830  2.0473
 5957TIP3    H239363   3.891   2.051   1.244 -1.5805  1.2382 -0.7680
 5958TIP3   OH239364   3.684   4.833   0.455 -0.0032 -0.8901  0.1557
 5958TIP3    H139365   3.701   4.886   0.534 -0.5835 -0.5043  0.0294
 5958TIP3    H239366   3.728   4.750   0.472  3.0476  0.4210 -0.6421
 5959TIP3   OH239367   2.851   3.334   1.944  0.0435 -0.1692  0.1003
 5959TIP3    H139368   2.946   3.328   1.957  0.8427  2.0448 -3.3532
 5959TIP3    H239369   2.824   3.244   1.924  1.2093 -0.9474  1.7415
 5960TIP3   OH239370   1.398   2.607  16.634 -0.4016 -0.6890  0.3843
 5960TIP3    H139371   1.480   2.572  16.668  1.9833  2.4076 -1.6413
 5960TIP3    H239372   1.400   2.587  16.540 -1.7294 -0.1036  0.2051
 5961TIP3   OH239373   0.071   6.329   2.848 -0.3932  0.0740  0.3678
 5961TIP3    H139374   0.032   6.300   2.931 -1.1580  0.8117  0.2865
 5961TIP3    H239375   0.051   6.259   2.786 -2.4694  0.8276  0.0999
 5962TIP3   OH239376   0.440   5.582   1.081  0.3662 -0.1444 -0.0757
 5962TIP3    H139377   0.463   5.653   1.020  1.6027 -0.1779  0.3123
 5962TIP3    H239378   0.387   5.625   1.148 -3.3178 -0.6014 -2.4639
 5963TIP3   OH239379   5.903   6.234  12.486 -0.2901 -0.4116  0.1015
 5963TIP3    H139380   5.842   6.209  12.417  0.6049 -0.9155 -0.5317
 5963TIP3    H239381   5.923   6.326  12.469 -0.0104 -0.5572 -0.3743
 5964TIP3   OH239382   3.075   0.486   5.491 -0.4573 -0.1707 -0.1563
 5964TIP3    H139383   3.158   0.521   5.524 -0.9550 -2.0511  3.5734
 5964TIP3    H239384   3.102   0.418   5.429  0.7630 -0.0752  0.2360
 5965TIP3   OH239385   1.901   0.452  15.853  0.0498  0.2360  0.9039
 5965TIP3    H139386   1.863   0.508  15.785  1.0967  0.9533  0.8768
 5965TIP3    H239387   1.836   0.452  15.923 -1.1996 -0.8037 -0.2165
 5966TIP3   OH239388   5.782   0.448  11.156 -0.4035  0.8358  0.1871
 5966TIP3    H139389   5.693   0.417  11.136  0.3436 -0.2847 -1.6021
 5966TIP3    H239390   5.786   0.445  11.252 -2.0210  0.1216  0.2794
 5967TIP3   OH239391   3.011   0.986   5.771  0.9963 -0.2621 -0.1577
 5967TIP3    H139392   2.965   0.955   5.693  0.4463  0.2019 -0.0246
 5967TIP3    H239393   2.941   1.007   5.833  1.3282  1.6671 -0.3979
 5968TIP3   OH239394   5.703   3.419   3.951 -0.0915 -0.3309  0.9752
 5968TIP3    H139395   5.755   3.469   4.015  2.2776  0.9533 -1.7063
 5968TIP3    H239396   5.769   3.375   3.896 -1.9967 -1.5916 -0.4071
 5969TIP3   OH239397   6.308   6.418  11.051  0.6044 -0.2996  0.3247
 5969TIP3    H139398   6.259   6.478  10.995 -0.6346 -0.0001  1.6621
 5969TIP3    H239399   6.377   6.384  10.995 -0.1295  0.5436 -1.1605
 5970TIP3   OH239400   5.128   3.026  13.049 -0.0658 -0.5543  0.1058
 5970TIP3    H139401   5.146   2.981  12.966 -0.3441 -1.1736  0.3757
 5970TIP3    H239402   5.212   3.027  13.095  0.0632 -0.3111 -0.1297
 5971TIP3   OH239403   5.624   5.886   3.613 -0.4553 -0.7805  0.1042
 5971TIP3    H139404   5.630   5.791   3.604  1.7304 -0.6484 -0.3638
 5971TIP3    H239405   5.642   5.919   3.525 -1.3751  0.0742  0.2269
 5972TIP3   OH239406   5.852   4.048  11.967  0.1779  0.2699 -0.3149
 5972TIP3    H139407   5.879   4.066  12.057 -2.0126  2.7349 -0.0409
 5972TIP3    H239408   5.798   3.969  11.973  2.2334 -1.1979  0.0166
 5973TIP3   OH239409   4.824   5.155  12.956 -0.5707  0.5225  0.3490
 5973TIP3    H139410   4.823   5.099  13.033 -0.7003 -0.0558 -0.0676
 5973TIP3    H239411   4.911   5.142  12.918 -1.6783 -1.9822 -1.5901
 5974TIP3   OH239412   1.061   5.172   0.826  0.5048 -0.0060  0.5989
 5974TIP3    H139413   1.018   5.206   0.747  0.1076 -0.4974  0.5951
 5974TIP3    H239414   1.115   5.244   0.857  1.9058 -0.2993 -0.9997
 5975TIP3   OH239415   0.358   6.333  15.206 -0.2062  0.2532  0.0333
 5975TIP3    H139416   0.388   6.290  15.126  0.1994 -0.9607  0.8144
 5975TIP3    H239417   0.364   6.265  15.273 -1.2186  1.0480  0.9529
 5976TIP3   OH239418   5.129   2.215  15.406  0.1199 -0.0455 -0.5911
 5976TIP3    H139419   5.054   2.157  15.417  0.0144  0.3004  0.5941
 5976TIP3    H239420   5.205   2.157  15.415  0.0177 -0.3640 -1.6147
 5977TIP3   OH239421   6.669   2.115   1.410  0.1780  0.7978  0.1245
 5977TIP3    H139422   6.703   2.030   1.436 -1.8880  0.1116  0.7647
 5977TIP3    H239423   6.574   2.107   1.419 -0.0952  3.0733 -0.0782
 5978TIP3   OH239424   5.660   3.959  15.785  0.1862  0.4023 -0.0691
 5978TIP3    H139425   5.611   3.942  15.866  0.7822  0.8974  0.4044
 5978TIP3    H239426   5.658   3.876  15.738  0.6272 -0.1577  0.8863
 5979TIP3   OH239427   1.638   1.563   0.867 -0.2010 -0.2786 -0.8700
 5979TIP3    H139428   1.659   1.623   0.938 -2.9988  0.3736 -0.4799
 5979TIP3    H239429   1.723   1.533   0.834  1.1847  0.3377  1.9075
 5980TIP3   OH239430   3.969   6.549  10.859  0.0215 -0.3275 -0.1386
 5980TIP3    H139431   3.978   6.457  10.885  0.4629 -0.5201 -0.9389
 5980TIP3    H239432   4.051   6.569  10.814  0.7732  1.0250  1.6781
 5981TIP3   OH239433   2.191   1.968   3.714  0.0202 -0.1135  0.6560
 5981TIP3    H139434   2.128   2.037   3.731  0.0555 -0.1768  1.0468
 5981TIP3    H239435   2.262   1.983   3.777 -0.5957 -1.2895  1.6737
 5982TIP3   OH239436   4.402   5.483   1.409 -0.3617  0.2604  0.9004
 5982TIP3    H139437   4.319   5.478   1.361 -0.7043  0.3896  1.4619
 5982TIP3    H239438   4.401   5.571   1.449 -0.1962  0.0728  1.3290
 5983TIP3   OH239439   0.749   0.582   4.299 -0.4691 -0.4087  0.6151
 5983TIP3    H139440   0.819   0.636   4.263 -1.1515 -0.6981 -1.2297
 5983TIP3    H239441   0.712   0.634   4.370  0.1198  0.7193  0.1118
 5984TIP3   OH239442   3.300   5.962   4.012  0.0211 -0.5332  0.0693
 5984TIP3    H139443   3.320   5.881   3.965 -0.2967 -0.9261  0.5911
 5984TIP3    H239444   3.247   6.013   3.951  0.5993 -0.5208 -0.4285
 5985TIP3   OH239445   5.970   4.440   3.497  0.1425  0.2561 -0.5061
 5985TIP3    H139446   5.961   4.444   3.402 -0.4676 -1.3032 -0.5298
 5985TIP3    H239447   5.891   4.395   3.527  0.0175  1.2941  0.8134
 5986TIP3   OH239448   6.737   4.624   5.701 -0.1146  0.1800  0.1815
 5986TIP3    H139449   6.666   4.574   5.660  0.1109 -0.3582  0.4496
 5986TIP3    H239450   6.752   4.581   5.785  2.0155 -1.0562 -0.7733
 5987TIP3   OH239451   1.045   5.413  15.465  0.1174 -0.0028 -0.1771
 5987TIP3    H139452   1.089   5.365  15.394 -1.2856 -3.8583  1.3012
 5987TIP3    H239453   0.952   5.393  15.453 -0.6052  2.4435  0.6549
 5988TIP3   OH239454   6.411   4.038  13.115 -0.1603 -0.1809  0.0480
 5988TIP3    H139455   6.476   3.968  13.121  1.0138  0.8865  0.2461
 5988TIP3    H239456   6.401   4.069  13.205  1.0097  1.3461 -0.3093
 5989TIP3   OH239457   0.179   1.194   3.291  0.0695 -0.3000  0.7924
 5989TIP3    H139458   0.249   1.137   3.323  1.5365  1.2250  0.4600
 5989TIP3    H239459   0.204   1.281   3.322 -1.7146  0.2920  0.6569
 5990TIP3   OH239460   6.082   0.242   0.728 -0.3524 -0.2459 -0.3207
 5990TIP3    H139461   6.167   0.282   0.749  0.0681 -1.8240  1.2310
 5990TIP3    H239462   6.094   0.149   0.747 -2.0972 -0.6866 -1.1990
 5991TIP3   OH239463   3.867   0.988   2.637 -0.3494  0.2709  0.1433
 5991TIP3    H139464   3.808   1.060   2.614  0.4117  0.3461 -1.7445
 5991TIP3    H239465   3.953   1.029   2.643 -0.1631 -0.2003  0.8852
 5992TIP3   OH239466   0.889   0.418   4.875 -0.1380 -0.5875  0.1955
 5992TIP3    H139467   0.950   0.452   4.810 -0.3511 -1.6096 -0.5648
 5992TIP3    H239468   0.848   0.496   4.912  0.8172  0.0593 -0.0759
 5993TIP3   OH239469   1.193   5.185  16.778 -0.0147 -0.5890  0.1925
 5993TIP3    H139470   1.130   5.234  16.725  0.9614 -0.4601 -0.8823
 5993TIP3    H239471   1.166   5.200  16.869 -0.3229  1.1176 -0.1615
 5994TIP3   OH239472   4.823   3.769   2.397 -0.4573  0.1843  0.6911
 5994TIP3    H139473   4.735   3.739   2.374  0.5809 -2.5016 -0.2342
 5994TIP3    H239474   4.876   3.747   2.320  0.7373  3.6981  0.3068
 5995TIP3   OH239475   1.983   3.011   4.433 -0.8195 -0.1267 -0.1050
 5995TIP3    H139476   2.052   3.032   4.496  0.7641  2.0503 -2.3651
 5995TIP3    H239477   1.902   3.016   4.483  0.5216 -2.5152  2.5957
 5996TIP3   OH239478   0.044   1.303   0.415 -0.1232  0.2454 -0.0361
 5996TIP3    H139479  -0.039   1.319   0.460 -0.5512  0.2776 -0.8251
 5996TIP3    H239480   0.088   1.388   0.416 -0.8134  0.6306 -1.0333
 5997TIP3   OH239481   5.535   5.648  15.811 -0.1573  0.0532 -0.0096
 5997TIP3    H139482   5.619   5.675  15.774 -0.5871 -0.9600 -1.8188
 5997TIP3    H239483   5.510   5.721  15.868  1.1272  1.1254 -0.7526
 5998TIP3   OH239484   2.412   2.977   5.891 -0.3580  0.7010  0.1628
 5998TIP3    H139485   2.481   2.991   5.956  0.4021 -2.1953  0.1043
 5998TIP3    H239486   2.332   2.966   5.944 -0.4934  2.2025  0.3254
 5999TIP3   OH239487   5.829   6.123  11.759 -0.3982 -0.4971  0.3030
 5999TIP3    H139488   5.788   6.038  11.773 -0.1103 -0.6143  0.4532
 5999TIP3    H239489   5.904   6.124  11.819  0.0378 -0.4355 -0.2312
 6000TIP3   OH239490   1.737   4.948  13.222 -0.6387 -0.3553  0.3589
 6000TIP3    H139491   1.795   4.967  13.148 -1.7677  3.7314  0.2789
 6000TIP3    H239492   1.756   5.017  13.285 -2.2007 -1.6695  2.3897
 6001TIP3   OH239493   3.960   0.739   0.738 -0.3368 -0.2235  0.2838
 6001TIP3    H139494   3.875   0.705   0.710  0.1141 -1.7204  0.6323
 6001TIP3    H239495   3.939   0.814   0.792 -1.4628 -0.7281  0.5821
 6002TIP3   OH239496   2.845   1.910   2.272  0.2842  0.5880 -0.0911
 6002TIP3    H139497   2.813   1.830   2.231  1.5871  0.6538 -1.3275
 6002TIP3    H239498   2.940   1.900   2.274  0.3077  0.5872  3.0452
 6003TIP3   OH239499   5.310   0.993  13.026 -0.0221  0.6150  0.2270
 6003TIP3    H139500   5.395   0.949  13.021 -0.5459 -0.3053 -1.4093
 6003TIP3    H239501   5.332   1.086  13.034  1.1055  0.2405  2.5474
 6004TIP3   OH239502   5.443   2.846   3.852  0.5214  0.1090 -0.0957
 6004TIP3    H139503   5.415   2.824   3.763  0.2548 -0.0958  0.0386
 6004TIP3    H239504   5.428   2.940   3.859 -0.4746 -0.0565  0.0951
 6005TIP3   OH239505   2.370   5.720  16.723  0.3008 -0.0341 -0.1616
 6005TIP3    H139506   2.369   5.627  16.698 -0.8457 -0.5081  1.4767
 6005TIP3    H239507   2.436   5.726  16.792  1.5192  0.7163 -1.3540
 6006TIP3   OH239508   2.870   1.288  15.261  0.1511  0.0280  0.5326
 6006TIP3    H139509   2.812   1.259  15.331  1.0580 -4.1544 -0.2016
 6006TIP3    H239510   2.957   1.255  15.286  0.8968  0.2457 -1.5437
 6007TIP3   OH239511   3.909   3.793  14.253 -0.0722  0.7250  0.5853
 6007TIP3    H139512   3.933   3.754  14.337 -1.4632  0.9360  1.1039
 6007TIP3    H239513   3.973   3.757  14.191 -0.7690 -1.7307  1.1752
 6008TIP3   OH239514   1.414   0.536   2.438 -0.0789 -1.0061 -0.1496
 6008TIP3    H139515   1.419   0.597   2.364  1.0724 -1.1891 -0.2319
 6008TIP3    H239516   1.345   0.475   2.414 -1.5801  0.4925  0.1188
 6009TIP3   OH239517   3.099   0.558  11.389 -0.5281 -0.4524 -0.5983
 6009TIP3    H139518   3.169   0.495  11.369  0.7644  0.5977  0.4499
 6009TIP3    H239519   3.136   0.643  11.365 -0.9277  0.2582  1.1400
 6010TIP3   OH239520   1.418   4.732  14.095 -0.5622 -0.1704  0.2127
 6010TIP3    H139521   1.435   4.786  14.018  3.2541  0.3502  1.1957
 6010TIP3    H239522   1.345   4.774  14.139  0.0923  2.2004 -0.8416
 6011TIP3   OH239523   6.113   5.063   2.576  0.0036 -0.2421 -0.3358
 6011TIP3    H139524   6.082   5.143   2.534 -1.0849 -0.0169  0.8062
 6011TIP3    H239525   6.158   5.015   2.507  0.7703  1.3913 -1.0224
 6012TIP3   OH239526   4.129   0.144  13.739 -0.1077 -0.1605 -0.2217
 6012TIP3    H139527   4.068   0.080  13.777 -0.3173 -0.4124 -0.9768
 6012TIP3    H239528   4.110   0.143  13.645 -0.1096  1.0115 -0.2491
 6013TIP3   OH239529   4.959   4.440  14.244  0.1878 -0.0891  0.3703
 6013TIP3    H139530   4.943   4.484  14.328  0.2846  0.0506  0.3170
 6013TIP3    H239531   4.878   4.392  14.226  0.1669 -0.1204  0.5436
 6014TIP3   OH239532   4.714   5.416  15.173 -0.3121 -0.9107  0.2067
 6014TIP3    H139533   4.689   5.343  15.116 -0.0433 -0.3179 -0.6978
 6014TIP3    H239534   4.810   5.415  15.173 -0.3025 -0.4216 -0.0001
 6015TIP3   OH239535   6.775   5.554   4.482 -0.4435  0.5526 -0.0493
 6015TIP3    H139536   6.710   5.601   4.534 -0.9345  0.0921 -0.2324
 6015TIP3    H239537   6.723   5.509   4.415  0.0628  0.1671 -0.1859
 6016TIP3   OH239538   4.457   3.917  15.356 -0.7638  0.1064 -0.1942
 6016TIP3    H139539   4.385   3.948  15.411 -0.4675 -0.1651  0.3508
 6016TIP3    H239540   4.493   3.842  15.404 -0.5550 -0.1864 -0.7972
 6017TIP3   OH239541   5.782   0.355  14.717  0.0372 -0.2327 -0.2540
 6017TIP3    H139542   5.822   0.364  14.630 -0.8284  0.8080 -0.5738
 6017TIP3    H239543   5.819   0.427  14.768 -2.0085  1.2908 -0.8152
 6018TIP3   OH239544   2.979   6.271  15.964 -0.0946 -0.9221  0.7487
 6018TIP3    H139545   2.965   6.340  15.898 -0.1371  0.4759  2.1728
 6018TIP3    H239546   3.074   6.272  15.978 -0.2329 -0.2389  1.7034
 6019TIP3   OH239547   6.728   6.251  12.115 -0.2510  0.2320  0.0990
 6019TIP3    H139548   6.677   6.216  12.042 -1.4918  1.1798  0.4816
 6019TIP3    H239549   6.733   6.179  12.178  0.0611 -0.2982 -0.5109
 6020TIP3   OH239550   0.541   3.263   2.057 -0.2244  0.2958  0.0030
 6020TIP3    H139551   0.604   3.280   1.988  0.0746 -1.3541 -0.1745
 6020TIP3    H239552   0.586   3.287   2.138 -0.0573  0.8839 -0.2651
 6021TIP3   OH239553   4.626   1.780   3.677 -0.6922  0.2726  0.1077
 6021TIP3    H139554   4.592   1.856   3.724 -0.4061 -0.2095  1.1183
 6021TIP3    H239555   4.570   1.773   3.600 -1.2075  1.0562  0.3959
 6022TIP3   OH239556   5.659   1.186  16.425 -0.5171 -0.4816  0.0664
 6022TIP3    H139557   5.602   1.159  16.496 -0.7881 -0.1012 -0.0007
 6022TIP3    H239558   5.601   1.193  16.349 -1.2159  3.4307  0.7298
 6023TIP3   OH239559   3.576   5.907  15.865  0.1465  0.0158 -0.0251
 6023TIP3    H139560   3.528   5.880  15.787 -0.4112  0.4701  0.1496
 6023TIP3    H239561   3.563   6.002  15.869  1.6750  0.2526 -0.3716
 6024TIP3   OH239562   6.232   1.314  11.117 -0.0387  0.3043 -0.1999
 6024TIP3    H139563   6.266   1.225  11.130 -3.5272 -1.1957 -0.4439
 6024TIP3    H239564   6.272   1.342  11.034  3.3108  0.2091  1.2278
 6025TIP3   OH239565   3.140   2.373   1.139 -0.1723 -0.4423  0.6211
 6025TIP3    H139566   3.167   2.289   1.176  0.3508 -0.0222  1.2244
 6025TIP3    H239567   3.150   2.435   1.212  0.4285  0.3232 -0.1014
 6026TIP3   OH239568   6.431   1.422   1.800  0.0944 -0.9281  0.2187
 6026TIP3    H139569   6.423   1.360   1.729  1.9132 -0.9144 -0.0469
 6026TIP3    H239570   6.363   1.488   1.783 -0.7500 -1.9330 -0.3989
 6027TIP3   OH239571   0.860   6.107   6.101 -0.2210 -0.1550 -0.1890
 6027TIP3    H139572   0.800   6.150   6.161  0.2320  0.8175 -0.4247
 6027TIP3    H239573   0.947   6.134   6.131 -0.0019  0.8663 -1.6513
 6028TIP3   OH239574   6.538   0.689   2.943  0.2139  0.5044  0.1466
 6028TIP3    H139575   6.485   0.665   2.866 -1.0891  1.6626  0.6346
 6028TIP3    H239576   6.540   0.785   2.941  1.1338  0.5117  0.9323
 6029TIP3   OH239577   3.315   1.632   1.152  0.1864  0.7149 -0.4376
 6029TIP3    H139578   3.349   1.602   1.067  1.0267  0.7678 -0.1351
 6029TIP3    H239579   3.226   1.661   1.133  0.3102  0.5855 -1.2755
 6030TIP3   OH239580   4.733   6.407   1.442 -0.2407 -0.0647 -0.3965
 6030TIP3    H139581   4.710   6.377   1.354  0.1471  0.2903 -0.6184
 6030TIP3    H239582   4.668   6.365   1.499 -1.3463  0.7833 -0.9881
 6031TIP3   OH239583   1.651   6.029  14.986 -0.9408 -0.3660  0.1928
 6031TIP3    H139584   1.632   6.067  15.071  0.6515  1.6822 -0.2609
 6031TIP3    H239585   1.740   6.060  14.965 -1.0394 -1.2913 -1.9420
 6032TIP3   OH239586   3.895   0.772   5.186  0.0581 -0.3097  0.5152
 6032TIP3    H139587   3.853   0.721   5.256  0.5595  0.0007  1.0520
 6032TIP3    H239588   3.971   0.812   5.228 -0.1104  0.5761  0.0009
 6033TIP3   OH239589   3.820   5.485   4.226  0.3969  0.5467  0.7780
 6033TIP3    H139590   3.817   5.504   4.320  0.5820  2.8392  0.3778
 6033TIP3    H239591   3.855   5.565   4.186  1.0595 -0.6496 -1.1870
 6034TIP3   OH239592   6.225   3.624  11.036  0.1713 -0.2251  0.2322
 6034TIP3    H139593   6.294   3.624  10.970  2.7017 -0.8908  2.6795
 6034TIP3    H239594   6.157   3.681  11.000  2.2942  1.0514 -2.0341
 6035TIP3   OH239595   6.046   2.152   6.078 -0.0777  0.5475  0.0508
 6035TIP3    H139596   5.964   2.202   6.073 -0.3112  0.2144  0.4816
 6035TIP3    H239597   6.102   2.204   6.135 -0.2930  0.3616  0.4362
 6036TIP3   OH239598   2.641   2.608  15.319  0.1246 -0.1511  0.5257
 6036TIP3    H139599   2.709   2.573  15.261  1.0420  0.6604  1.0862
 6036TIP3    H239600   2.689   2.658  15.385 -1.0129  0.2839  1.0465
 6037TIP3   OH239601   1.088   1.473   1.682  0.0440 -0.1171 -0.6431
 6037TIP3    H139602   1.130   1.411   1.742 -0.4064 -0.8972 -1.1173
 6037TIP3    H239603   1.139   1.467   1.601 -0.0245  0.0999 -0.7036
 6038TIP3   OH239604   5.526   6.246  15.107  0.3673 -0.0570 -0.5749
 6038TIP3    H139605   5.474   6.192  15.166  0.8474 -0.5470 -0.5868
 6038TIP3    H239606   5.465   6.271  15.038 -0.0515  0.0414 -0.1726
 6039TIP3   OH239607   1.263   0.878   5.598  0.3568  0.4279  0.5737
 6039TIP3    H139608   1.251   0.787   5.569  1.1054  0.0687  1.3382
 6039TIP3    H239609   1.344   0.906   5.554  0.3598  0.5793  0.6740
 6040TIP3   OH239610   3.011   2.585   0.018 -0.5511  0.5554  0.1174
 6040TIP3    H139611   3.016   2.680   0.030 -2.0239  0.4401  2.1122
 6040TIP3    H239612   3.025   2.572  -0.076  2.9738  2.4313  0.2076
 6041TIP3   OH239613   1.993   2.956  12.209  0.6224 -0.5810  0.1257
 6041TIP3    H139614   1.986   2.931  12.301  0.1254 -0.1703  0.2060
 6041TIP3    H239615   2.024   3.047  12.211  0.1017 -0.3925 -0.0938
 6042TIP3   OH239616   6.296   6.299   5.503 -0.4430 -0.8170  0.2651
 6042TIP3    H139617   6.217   6.267   5.546 -0.9746 -1.0243 -0.8081
 6042TIP3    H239618   6.345   6.343   5.572 -1.1889 -1.2411  1.0939
 6043TIP3   OH239619   3.140   1.524   2.465  0.1446  0.1152 -0.0846
 6043TIP3    H139620   3.053   1.547   2.432 -0.5278 -2.3920 -0.2341
 6043TIP3    H239621   3.143   1.429   2.461  2.1218  0.0101  1.9211
 6044TIP3   OH239622   6.492   6.342   3.252 -0.3358  0.1915 -0.4571
 6044TIP3    H139623   6.507   6.341   3.347 -0.6742 -0.6758 -0.4076
 6044TIP3    H239624   6.410   6.294   3.240 -0.7810  1.1004 -1.1114
 6045TIP3   OH239625   3.502   5.370  13.693  0.3409 -0.3912  0.3911
 6045TIP3    H139626   3.504   5.346  13.786  0.8851  0.7639  0.7037
 6045TIP3    H239627   3.430   5.433  13.686  1.2566  0.6997  0.3696
 6046TIP3   OH239628   1.686   2.092  11.351  0.4897 -0.0449 -0.2656
 6046TIP3    H139629   1.741   2.170  11.360  0.3738 -0.0893  1.1466
 6046TIP3    H239630   1.743   2.019  11.375  0.6391 -0.4311 -1.7314
 6047TIP3   OH239631   2.561   2.145  15.646  0.2824 -0.1401 -0.6444
 6047TIP3    H139632   2.611   2.182  15.573  0.0669  0.2468 -0.5998
 6047TIP3    H239633   2.626   2.129  15.714  0.2594  0.9075 -0.3709
 6048TIP3   OH239634   1.052   2.586   2.511  0.1400 -0.2828 -0.0627
 6048TIP3    H139635   1.094   2.644   2.448  0.0571  0.3208  0.4334
 6048TIP3    H239636   1.063   2.630   2.595  1.1444 -1.5446  0.5034
 6049TIP3   OH239637   3.507   1.723  12.801 -0.1930 -0.0797  0.0659
 6049TIP3    H139638   3.550   1.643  12.832  0.3911  0.4591  0.6707
 6049TIP3    H239639   3.444   1.692  12.736 -3.1640 -1.5962  3.2983
 6050TIP3   OH239640   5.534   4.417   3.143  0.5560  0.3008  0.1860
 6050TIP3    H139641   5.591   4.457   3.077 -1.8413  0.8945 -1.6729
 6050TIP3    H239642   5.537   4.478   3.217  1.5753  0.7894 -0.2339
 6051TIP3   OH239643   3.596   4.232   6.341  0.4882  0.4875 -0.1136
 6051TIP3    H139644   3.637   4.267   6.419  0.5319  3.1654 -1.2469
 6051TIP3    H239645   3.666   4.186   6.295  0.5876 -0.6217  1.1010
 6052TIP3   OH239646   1.734   1.036  15.031 -0.0212 -0.7767 -0.1633
 6052TIP3    H139647   1.738   0.941  15.031  1.0186 -0.7513 -1.2388
 6052TIP3    H239648   1.666   1.058  14.967  0.1728 -0.7813 -0.3694
 6053TIP3   OH239649   6.307   0.147  11.882  0.2255  0.1362 -0.1472
 6053TIP3    H139650   6.369   0.192  11.939  2.1046 -1.1968 -1.0581
 6053TIP3    H239651   6.341   0.058  11.875 -0.6783 -0.0910 -2.3146
 6054TIP3   OH239652   1.991   6.426  11.248  0.3510  0.5945 -0.2903
 6054TIP3    H139653   2.046   6.363  11.201  1.3526  0.9519  0.3555
 6054TIP3    H239654   2.040   6.444  11.328 -1.2051  0.1790  0.7861
 6055TIP3   OH239655   1.278   2.700   3.247  0.3257 -0.4629 -0.6811
 6055TIP3    H139656   1.364   2.660   3.262 -0.1557 -1.7247 -1.1520
 6055TIP3    H239657   1.218   2.649   3.302 -0.3115 -0.3911 -1.2923
 6056TIP3   OH239658   1.591   4.817   4.585 -0.8324 -0.1272  0.1248
 6056TIP3    H139659   1.540   4.874   4.527 -1.1163 -1.6776 -1.2304
 6056TIP3    H239660   1.582   4.856   4.672 -1.4442  1.5633 -0.6594
 6057TIP3   OH239661   4.801   4.437   6.384  0.7893  0.0707  0.4622
 6057TIP3    H139662   4.887   4.464   6.417  0.6788  2.1745 -0.7737
 6057TIP3    H239663   4.815   4.349   6.350  2.8566  0.8947 -0.9964
 6058TIP3   OH239664   4.114   4.919   0.049  0.5706  0.2219 -0.0047
 6058TIP3    H139665   4.163   4.920  -0.033  0.2392  0.3358 -0.2032
 6058TIP3    H239666   4.102   5.012   0.071  0.0158  0.2104 -0.2221
 6059TIP3   OH239667   1.142   6.733   4.659  0.0353  0.2459 -0.4142
 6059TIP3    H139668   1.147   6.648   4.615 -3.6542 -1.0987  1.3679
 6059TIP3    H239669   1.092   6.788   4.598  1.4896  0.9015 -1.0825
 6060TIP3   OH239670   0.903   5.336   5.260  0.1025 -0.5129 -0.4424
 6060TIP3    H139671   0.821   5.363   5.303  0.3686 -0.2709 -0.0788
 6060TIP3    H239672   0.900   5.378   5.174  0.8503  1.3362  0.3725
 6061TIP3   OH239673   0.072   1.055  11.347  0.4330 -0.1746  0.2514
 6061TIP3    H139674   0.164   1.080  11.352 -0.1624  2.7692 -1.3956
 6061TIP3    H239675   0.065   1.007  11.264  0.2766  0.6765 -0.2310
 6062TIP3   OH239676   0.407   3.994  14.412 -0.1708 -0.0080  0.1700
 6062TIP3    H139677   0.486   3.941  14.420  0.5374  1.0610  0.5986
 6062TIP3    H239678   0.355   3.973  14.489 -0.3576 -0.7834 -0.1603
 6063TIP3   OH239679   2.783   6.684   1.083 -0.8035  0.2973  0.2115
 6063TIP3    H139680   2.836   6.733   1.020 -0.1038 -1.0246 -0.2650
 6063TIP3    H239681   2.839   6.674   1.159 -0.7795 -0.1227  0.1405
 6064TIP3   OH239682   3.496   4.659   5.046 -0.6806 -0.0401 -0.4624
 6064TIP3    H139683   3.511   4.753   5.058  1.0193 -0.0364 -2.1900
 6064TIP3    H239684   3.554   4.617   5.108 -0.6810  0.0356 -0.4108
 6065TIP3   OH239685   2.746   4.151  12.299 -0.3332 -0.2873 -0.5420
 6065TIP3    H139686   2.678   4.177  12.361 -0.6962 -0.4262 -0.8795
 6065TIP3    H239687   2.817   4.118  12.355 -0.3127  0.3834 -0.1643
 6066TIP3   OH239688   4.148   0.017  12.123 -0.3208  0.2343  0.1883
 6066TIP3    H139689   4.221   0.059  12.167  0.1303 -0.1904 -0.1493
 6066TIP3    H239690   4.145  -0.071  12.160  1.3089 -0.8292 -1.9610
 6067TIP3   OH239691   6.357   5.986  15.390 -0.4479 -0.5548  0.3166
 6067TIP3    H139692   6.316   6.073  15.394 -2.1707 -1.3739  2.0075
 6067TIP3    H239693   6.447   6.004  15.362 -1.1817  1.6018 -0.9788
 6068TIP3   OH239694   5.950   4.355   0.529 -0.4708 -0.0753 -0.3242
 6068TIP3    H139695   5.968   4.262   0.543 -0.0597 -0.0212 -0.4641
 6068TIP3    H239696   5.893   4.379   0.601  0.5262 -0.1201  0.5024
 6069TIP3   OH239697   6.578   5.951  16.717 -0.4194  0.4670  0.6404
 6069TIP3    H139698   6.548   5.923  16.804  1.1345 -1.7446  0.5616
 6069TIP3    H239699   6.581   6.046  16.722 -0.9706  0.4223  2.8145
 6070TIP3   OH239700   0.697   4.211  10.888  0.0407 -0.4535 -0.0240
 6070TIP3    H139701   0.755   4.196  10.813 -0.1385 -1.0126 -0.0614
 6070TIP3    H239702   0.660   4.124  10.906 -2.4637  0.2139 -1.3997
 6071TIP3   OH239703   2.392   5.942  11.169 -0.2941  0.5273  0.4724
 6071TIP3    H139704   2.453   5.935  11.242 -0.1217 -0.5496  0.2431
 6071TIP3    H239705   2.433   6.006  11.110  1.0317 -0.6940 -0.0250
 6072TIP3   OH239706   1.911   6.358  14.392  0.2310  0.1723  0.5921
 6072TIP3    H139707   1.947   6.332  14.307 -0.1622  1.8462 -0.1400
 6072TIP3    H239708   1.954   6.301  14.455 -0.9513 -2.5298 -0.8679
 6073TIP3   OH239709   4.105   1.693  13.081 -0.1492  0.6656 -0.4948
 6073TIP3    H139710   4.128   1.638  13.006 -1.0324 -0.0469 -0.2598
 6073TIP3    H239711   4.064   1.770  13.042  0.4063  0.8144 -0.7937
 6074TIP3   OH239712   4.315   6.473   5.259 -0.6838  0.4201  0.3782
 6074TIP3    H139713   4.340   6.402   5.201  0.6742  1.0982  0.0920
 6074TIP3    H239714   4.280   6.541   5.200  3.1956  2.2409 -0.1426
 6075TIP3   OH239715   5.079   1.434  12.976 -0.3027  0.4781 -0.7644
 6075TIP3    H139716   5.092   1.417  13.070  1.0109 -0.7902 -1.1391
 6075TIP3    H239717   5.026   1.361  12.945 -0.0691  0.4741 -1.1616
 6076TIP3   OH239718   0.587   2.150   0.971 -0.5558 -0.2832 -0.0023
 6076TIP3    H139719   0.603   2.136   1.064 -1.3907 -1.0570  0.0507
 6076TIP3    H239720   0.659   2.205   0.941  0.3606 -0.9761  0.8552
 6077TIP3   OH239721   0.719   5.953   3.072 -0.3488  0.4853  0.3956
 6077TIP3    H139722   0.739   5.862   3.050 -1.1178  0.4625 -0.2109
 6077TIP3    H239723   0.787   6.004   3.027 -0.7322  0.3037 -0.3848
 6078TIP3   OH239724   5.152   6.221  16.665  0.4267  0.0945  0.4459
 6078TIP3    H139725   5.099   6.276  16.723 -1.4655  0.0207 -1.0799
 6078TIP3    H239726   5.219   6.183  16.722  0.1667  1.8992  2.0597
 6079TIP3   OH239727   4.966   1.037  12.771 -0.4202 -0.2214  0.3816
 6079TIP3    H139728   4.879   0.998  12.776 -0.9876  0.8093 -0.8845
 6079TIP3    H239729   5.015   0.980  12.712 -1.4958  1.2893 -2.1325
 6080TIP3   OH239730   3.306   4.612   1.654 -0.0514 -0.1050  0.0678
 6080TIP3    H139731   3.281   4.676   1.587 -0.6788 -0.0381  0.3555
 6080TIP3    H239732   3.232   4.551   1.657 -0.0893 -0.0322  0.7936
 6081TIP3   OH239733   4.791   5.298   2.401 -0.1869 -1.1665  0.2530
 6081TIP3    H139734   4.754   5.354   2.468  0.0847  0.5012 -0.9362
 6081TIP3    H239735   4.871   5.263   2.441  0.1396  0.0454  0.7080
 6082TIP3   OH239736   2.391   6.090   3.023 -0.1486 -0.1061  0.0027
 6082TIP3    H139737   2.319   6.129   2.974  0.8318  1.6999 -0.1157
 6082TIP3    H239738   2.466   6.096   2.964  0.3126 -1.0521  0.4769
 6083TIP3   OH239739   3.695   5.825  10.562  0.0142 -0.2252  0.2262
 6083TIP3    H139740   3.701   5.744  10.512  0.5096 -0.4938  0.7147
 6083TIP3    H239741   3.744   5.889  10.510  2.4167 -1.0234  1.3833
 6084TIP3   OH239742   0.480   5.231  10.750 -0.7964  0.0708  0.3165
 6084TIP3    H139743   0.425   5.157  10.723 -0.2097  0.0979 -1.0099
 6084TIP3    H239744   0.449   5.252  10.839 -2.5060 -0.3069 -0.1487
 6085TIP3   OH239745   2.910   3.675  11.675  0.5584 -0.3073  0.5964
 6085TIP3    H139746   2.886   3.675  11.582 -0.8666  1.2070  0.9148
 6085TIP3    H239747   3.005   3.683  11.675  0.5321  0.2617 -0.7392
 6086TIP3   OH239748   3.424   6.533  15.844  0.1565 -0.1194 -0.0584
 6086TIP3    H139749   3.434   6.610  15.900  1.4432 -0.0061 -0.4119
 6086TIP3    H239750   3.426   6.567  15.755  1.0615 -0.5753 -0.2278
 6087TIP3   OH239751   2.359   3.104   1.534  0.0960  0.1767  0.3264
 6087TIP3    H139752   2.359   3.013   1.564 -2.4540  0.1755  0.5955
 6087TIP3    H239753   2.442   3.140   1.564  0.9874 -1.9370  0.5725
 6088TIP3   OH239754   4.294   4.234  11.290  0.9690  0.5088 -0.2427
 6088TIP3    H139755   4.257   4.170  11.351  0.5053  1.2136  0.2291
 6088TIP3    H239756   4.376   4.194  11.260  1.2522  0.1905  0.9199
 6089TIP3   OH239757   2.118   1.415  12.906  0.0274  0.0049 -0.0591
 6089TIP3    H139758   2.134   1.509  12.917 -1.0222  0.0782  1.0180
 6089TIP3    H239759   2.023   1.407  12.909  0.1544 -1.3060  1.8531
 6090TIP3   OH239760   2.843   5.780  16.657  0.1203 -0.1064  0.0472
 6090TIP3    H139761   2.898   5.711  16.695 -0.0442 -0.4288 -0.2975
 6090TIP3    H239762   2.879   5.795  16.570 -0.2193 -0.1814 -0.1081
 6091TIP3   OH239763   3.183   4.579   2.319 -0.1520  0.5689  0.0553
 6091TIP3    H139764   3.173   4.484   2.320 -3.5054  0.7521 -1.6992
 6091TIP3    H239765   3.228   4.600   2.401  0.5690 -2.4618  0.5448
 6092TIP3   OH239766   5.449   2.610  13.576 -0.0525 -0.1587  0.3338
 6092TIP3    H139767   5.354   2.614  13.586 -0.2661  0.4817 -1.5416
 6092TIP3    H239768   5.480   2.697  13.601  0.0658 -0.3885  1.0124
 6093TIP3   OH239769   2.671   0.365  15.865 -0.3641 -0.6210 -0.4421
 6093TIP3    H139770   2.654   0.284  15.817 -1.6778 -0.8678  0.3827
 6093TIP3    H239771   2.733   0.339  15.934  1.1588 -0.3630 -1.6578
 6094TIP3   OH239772   1.685   3.199  16.342 -0.0717 -0.6855  0.1008
 6094TIP3    H139773   1.661   3.119  16.389  1.9964 -0.9907  0.7244
 6094TIP3    H239774   1.680   3.269  16.407 -3.3311  0.0610 -0.7765
 6095TIP3   OH239775   5.546   3.330  10.740 -0.5536 -0.4795 -0.6182
 6095TIP3    H139776   5.573   3.285  10.659  1.5921  0.3468 -0.4009
 6095TIP3    H239777   5.562   3.422  10.723  0.5476 -0.3469  0.9719
 6096TIP3   OH239778   3.666   0.242   6.656  0.6014  0.4665 -0.2521
 6096TIP3    H139779   3.697   0.192   6.731  2.2764  1.4883 -0.2251
 6096TIP3    H239780   3.591   0.192   6.623 -1.5810  0.9999  3.3023
 6097TIP3   OH239781   1.173   1.992   4.322 -0.1687  0.2964  0.0513
 6097TIP3    H139782   1.222   1.968   4.243 -1.2178  0.2109 -0.5785
 6097TIP3    H239783   1.179   1.915   4.378 -0.9630 -0.3273 -0.7084
 6098TIP3   OH239784   1.337   0.287  14.299  0.3647 -0.2790 -0.5601
 6098TIP3    H139785   1.306   0.368  14.257  1.0356  0.7474  0.8252
 6098TIP3    H239786   1.427   0.307  14.325  0.3787 -1.3006  0.2561
 6099TIP3   OH239787   1.719   1.352  11.384  0.7656 -0.3830 -0.4619
 6099TIP3    H139788   1.646   1.375  11.327  1.4665  0.0143 -1.2358
 6099TIP3    H239789   1.688   1.278  11.435 -0.2875 -0.0040 -0.5319
 6100TIP3   OH239790   0.993   6.413  15.937 -0.2520  0.9854  0.9572
 6100TIP3    H139791   0.987   6.318  15.925 -1.8335  1.0998  0.6099
 6100TIP3    H239792   1.086   6.432  15.933  0.0201 -0.4143 -0.1369
 6101TIP3   OH239793   6.540   5.132   4.142  0.0009  0.2697 -0.1716
 6101TIP3    H139794   6.503   5.045   4.153  0.5159  0.0497 -0.1667
 6101TIP3    H239795   6.535   5.171   4.230  3.3642 -1.1977  0.8165
 6102TIP3   OH239796   0.287   2.052   1.018  0.6444  0.3194 -0.0440
 6102TIP3    H139797   0.211   2.061   1.075  0.2109  0.1795 -0.5924
 6102TIP3    H239798   0.362   2.052   1.078  0.0899 -2.7036  0.8123
 6103TIP3   OH239799   4.473   0.694  15.764 -0.2229  0.2110 -0.5272
 6103TIP3    H139800   4.494   0.713  15.673  1.8420 -1.1622 -0.4102
 6103TIP3    H239801   4.510   0.607  15.779 -2.1650 -0.4041  1.1167
 6104TIP3   OH239802   0.513   5.765   2.697  0.1942 -0.1118  0.5032
 6104TIP3    H139803   0.605   5.758   2.724  0.6613  2.7780 -0.0007
 6104TIP3    H239804   0.511   5.839   2.636 -2.2620 -0.9920 -0.6166
 6105TIP3   OH239805   0.399   4.732   2.969 -0.2069  0.3396  0.1582
 6105TIP3    H139806   0.428   4.679   3.044 -1.0711 -0.4365 -0.0482
 6105TIP3    H239807   0.341   4.797   3.008 -0.5723  0.0022  0.1856
 6106TIP3   OH239808   2.973   6.465   5.474  0.4583  0.0287 -0.2929
 6106TIP3    H139809   3.002   6.413   5.549 -0.7671 -0.2589  0.0094
 6106TIP3    H239810   2.877   6.462   5.479  0.3660  1.4079 -0.9005
 6107TIP3   OH239811   0.252   4.076   6.497 -0.0225  0.5438  0.6876
 6107TIP3    H139812   0.184   4.142   6.487 -0.8468 -0.4304 -0.4255
 6107TIP3    H239813   0.332   4.120   6.469 -0.8339  0.6232 -1.7341
 6108TIP3   OH239814   5.987   0.681   0.848 -0.1341 -0.0260 -0.0049
 6108TIP3    H139815   5.996   0.760   0.901  0.9768  0.9395 -1.5509
 6108TIP3    H239816   5.894   0.661   0.851 -0.3281  0.9220  0.9783
 6109TIP3   OH239817   2.469   4.991   3.334  0.2480 -0.4662 -0.3067
 6109TIP3    H139818   2.547   4.935   3.331  1.2203  0.8392 -0.2805
 6109TIP3    H239819   2.410   4.954   3.269  0.6689 -1.7918  0.0432
 6110TIP3   OH239820   3.012   1.933   4.069  0.0601 -0.3370  0.2053
 6110TIP3    H139821   2.940   1.900   4.122  0.0443  0.1598  0.4978
 6110TIP3    H239822   3.005   1.886   3.986 -0.7075 -0.1570  0.1639
 6111TIP3   OH239823   6.814   4.324  16.903 -0.8024  0.4653 -0.0666
 6111TIP3    H139824   6.768   4.287  16.978 -0.1390  0.2891  0.2664
 6111TIP3    H239825   6.828   4.416  16.927 -1.9431  0.8148 -0.6455
 6112TIP3   OH239826   4.118   2.003  12.502 -0.0329 -0.6182 -0.0856
 6112TIP3    H139827   4.154   1.963  12.422  0.1539  1.8277 -1.3312
 6112TIP3    H239828   4.062   2.073  12.470 -0.8969 -0.3099  1.9578
 6113TIP3   OH239829   2.775   2.462   0.034 -0.0837 -0.2794 -0.1613
 6113TIP3    H139830   2.738   2.549   0.046  0.2186 -0.4206  2.4895
 6113TIP3    H239831   2.869   2.477   0.027  0.1398 -0.4220  1.9190
 6114TIP3   OH239832   5.208   5.088   3.072  1.0050 -0.3152 -0.6211
 6114TIP3    H139833   5.293   5.105   3.030  1.2675 -1.4944 -0.6043
 6114TIP3    H239834   5.212   5.139   3.154  1.8706 -0.6697 -0.4223
 6115TIP3   OH239835   5.975   0.621  17.022  0.3022 -0.2782  0.0809
 6115TIP3    H139836   6.057   0.583  17.056 -0.2090 -0.9737  0.5704
 6115TIP3    H239837   5.949   0.684  17.088  1.5704  1.5762 -1.1090
 6116TIP3   OH239838   5.256   2.323  16.027 -0.3729  0.0294 -0.0085
 6116TIP3    H139839   5.341   2.352  16.059 -1.1079  0.4187  1.7326
 6116TIP3    H239840   5.271   2.235  15.993  0.9729  0.6180 -1.0306
 6117TIP3   OH239841   1.647   6.736  13.033  0.0883 -0.3733  0.2470
 6117TIP3    H139842   1.618   6.823  13.059 -1.3823 -0.5743 -0.6011
 6117TIP3    H239843   1.581   6.677  13.070  0.1625 -0.9804 -0.5612
 6118TIP3   OH239844   3.840   3.673  12.138 -0.1235 -0.2310 -0.0260
 6118TIP3    H139845   3.747   3.675  12.114  0.2024 -0.7691 -1.3892
 6118TIP3    H239846   3.839   3.666  12.234 -1.4954 -0.9553 -0.0660
 6119TIP3   OH239847   5.744   0.991   2.651 -0.2657  0.1365  0.0963
 6119TIP3    H139848   5.816   1.047   2.622  0.4360 -1.0011 -0.4447
 6119TIP3    H239849   5.690   0.979   2.573 -1.8442  2.0914  0.8227
 6120TIP3   OH239850   5.870   2.925   1.293  0.4206 -0.7434  0.5601
 6120TIP3    H139851   5.900   2.946   1.382  1.7636 -0.6605  0.1157
 6120TIP3    H239852   5.864   3.010   1.249 -0.5965 -0.7533  0.6658
 6121TIP3   OH239853   2.684   5.410   3.625  0.2744 -0.0793  0.0636
 6121TIP3    H139854   2.598   5.427   3.663 -0.2549 -1.4123 -0.4948
 6121TIP3    H239855   2.666   5.377   3.537  1.4161  1.0968 -0.6531
 6122TIP3   OH239856   6.381   6.766  11.426 -0.2932 -0.1963 -0.1333
 6122TIP3    H139857   6.448   6.783  11.492 -1.4809  0.1206  1.0249
 6122TIP3    H239858   6.408   6.683  11.386  1.8304  0.8689 -1.0772
 6123TIP3   OH239859   2.558   6.829   5.079  0.4744  0.6431 -0.2978
 6123TIP3    H139860   2.469   6.848   5.110  1.1344  2.6109  0.5219
 6123TIP3    H239861   2.552   6.841   4.984 -0.5184 -0.9893 -0.4742
 6124TIP3   OH239862   1.843   2.979   1.442  0.2487 -0.4600 -0.1094
 6124TIP3    H139863   1.761   2.930   1.439  1.1243 -1.9501 -0.5351
 6124TIP3    H239864   1.870   2.988   1.351 -0.0390  1.1085 -0.0670
 6125TIP3   OH239865   3.199   0.781   4.238  0.6213 -0.2062  0.1897
 6125TIP3    H139866   3.216   0.803   4.330 -0.8325  2.0724  0.0045
 6125TIP3    H239867   3.286   0.771   4.200  1.3491  1.2929  1.3166
 6126TIP3   OH239868   3.131   5.419  15.705  0.4630  0.0099 -0.0300
 6126TIP3    H139869   3.133   5.466  15.622 -0.7423  0.8465  0.3936
 6126TIP3    H239870   3.048   5.371  15.704 -0.7450  1.9108  1.6508
 6127TIP3   OH239871   5.298   1.792  11.715 -0.2107  0.0933 -0.0665
 6127TIP3    H139872   5.349   1.864  11.677  1.8059 -1.3335 -0.2324
 6127TIP3    H239873   5.315   1.797  11.809  0.4319 -0.5030 -0.1439
 6128TIP3   OH239874   3.304   3.865  11.104  0.0268  0.0159  0.0780
 6128TIP3    H139875   3.280   3.927  11.035 -1.6478 -0.0996  0.5073
 6128TIP3    H239876   3.398   3.851  11.093 -0.3057 -0.6295 -2.7226
 6129TIP3   OH239877   1.099   5.989  12.465  0.0667  0.0460  0.0850
 6129TIP3    H139878   1.058   5.984  12.378  0.5501 -0.1480 -0.1404
 6129TIP3    H239879   1.108   5.898  12.492 -0.0021  0.1033  0.3018
 6130TIP3   OH239880   4.776   0.745   3.085  0.3189  0.1144  0.2492
 6130TIP3    H139881   4.783   0.823   3.030 -3.0228 -0.7608 -1.7311
 6130TIP3    H239882   4.831   0.680   3.042  1.1837  0.6505  0.5144
 6131TIP3   OH239883   3.514   4.000   3.990  0.1878  0.2247  0.0206
 6131TIP3    H139884   3.539   3.983   4.081  0.4171 -2.2619 -0.4357
 6131TIP3    H239885   3.530   3.917   3.945  0.0445  1.3770 -2.3025
 6132TIP3   OH239886   0.342   1.152  16.621  0.1768 -0.2856  0.1653
 6132TIP3    H139887   0.340   1.082  16.686  1.0504  1.0469  1.6968
 6132TIP3    H239888   0.359   1.232  16.672 -0.7623  1.0553 -1.5089
 6133TIP3   OH239889   4.242   5.727   5.640 -0.0312 -0.3889  0.1530
 6133TIP3    H139890   4.330   5.762   5.656 -0.4468  0.5472  0.4378
 6133TIP3    H239891   4.258   5.636   5.612  1.0739  0.0363 -0.7078
 6134TIP3   OH239892   1.090   4.058  13.731  0.2450 -0.2103  0.1954
 6134TIP3    H139893   1.121   4.041  13.820 -1.0200 -0.4853  0.6145
 6134TIP3    H239894   1.088   4.154  13.724  0.5451 -0.1888  0.3883
 6135TIP3   OH239895   4.390   6.794   0.292 -0.2307 -0.5025  0.3944
 6135TIP3    H139896   4.429   6.740   0.360 -0.6155 -3.5974 -1.6103
 6135TIP3    H239897   4.303   6.816   0.324 -0.2376 -1.5129  1.0849
 6136TIP3   OH239898   1.452   2.034   6.029  0.1231  0.1660 -0.0910
 6136TIP3    H139899   1.486   1.997   6.111  0.2193 -0.1023 -0.2499
 6136TIP3    H239900   1.393   2.105   6.057 -0.1429 -0.1722  0.2249
 6137TIP3   OH239901   5.866   6.048  16.237  0.4244 -0.2106 -0.0570
 6137TIP3    H139902   5.837   6.105  16.165 -0.7002  1.9650  1.9671
 6137TIP3    H239903   5.942   6.092  16.274  1.2804 -1.5481 -0.1675
 6138TIP3   OH239904   1.155   5.495  11.804  0.0623  0.5043 -0.2403
 6138TIP3    H139905   1.141   5.533  11.717 -0.6416  0.6835 -0.0629
 6138TIP3    H239906   1.219   5.553  11.846 -2.8790  3.2251  0.9932
 6139TIP3   OH239907   1.583   6.583   4.946  0.2039 -0.2602  0.1108
 6139TIP3    H139908   1.598   6.557   5.037  0.5633  0.1868  0.1861
 6139TIP3    H239909   1.492   6.614   4.945 -0.8353 -3.0525 -0.3663
 6140TIP3   OH239910   4.127   6.744   3.586  0.5859  0.6905  0.1484
 6140TIP3    H139911   4.209   6.697   3.597  0.8571  1.3349  1.0144
 6140TIP3    H239912   4.059   6.677   3.597  0.9818  0.2963  0.2208
 6141TIP3   OH239913   3.294   3.103  14.550  0.5862  0.5486  0.5253
 6141TIP3    H139914   3.240   3.172  14.512  0.2008  0.0451  0.1356
 6141TIP3    H239915   3.312   3.132  14.640 -1.2340  0.2439  1.0246
 6142TIP3   OH239916   4.132   6.004  13.245 -0.0089  0.3816 -0.7346
 6142TIP3    H139917   4.201   5.995  13.180 -1.0923  0.3552 -1.9310
 6142TIP3    H239918   4.140   6.095  13.276  1.3999 -0.0187  0.1736
 6143TIP3   OH239919   4.539   4.197  15.292 -0.1374  0.0444 -0.1858
 6143TIP3    H139920   4.469   4.215  15.229 -0.3147  2.1265  0.5156
 6143TIP3    H239921   4.522   4.108  15.323 -1.0331 -0.3859 -1.7888
 6144TIP3   OH239922   3.941   2.174  13.148  0.4630  0.0814 -0.0370
 6144TIP3    H139923   3.926   2.239  13.079  1.0916  0.3373  0.0580
 6144TIP3    H239924   4.025   2.200  13.187  0.3966 -0.4030  0.4381
 6145TIP3   OH239925   0.257   1.037   2.787  0.0575 -0.6657  0.0210
 6145TIP3    H139926   0.261   1.041   2.883  3.3449 -3.2839  0.1929
 6145TIP3    H239927   0.305   1.115   2.759 -0.2172 -0.3112  0.5085
 6146TIP3   OH239928   4.317   3.184   5.427  0.1263 -0.3924 -0.3935
 6146TIP3    H139929   4.393   3.240   5.412 -0.7479  0.4491 -2.0097
 6146TIP3    H239930   4.293   3.200   5.519  1.7065 -0.4756  0.0558
 6147TIP3   OH239931   1.285   1.746  11.217 -0.0798 -0.0429 -0.0267
 6147TIP3    H139932   1.215   1.812  11.216 -0.4255 -0.3080  2.0649
 6147TIP3    H239933   1.327   1.758  11.302  0.1420 -2.2112  0.2095
 6148TIP3   OH239934   0.720   1.754   1.018 -0.2354 -0.2555  0.2814
 6148TIP3    H139935   0.652   1.808   0.979  1.1693  0.5121 -1.2650
 6148TIP3    H239936   0.691   1.664   1.003 -1.7112  0.0308  1.2218
 6149TIP3   OH239937   4.558   3.137   4.786 -0.0007  0.1511 -0.6089
 6149TIP3    H139938   4.537   3.141   4.692 -0.7506 -1.2220 -0.5187
 6149TIP3    H239939   4.475   3.112   4.827  0.9561 -2.0300  0.1279
 6150TIP3   OH239940   4.091   3.042   1.402  0.2643 -0.4885  0.4449
 6150TIP3    H139941   4.030   2.968   1.412 -1.7894  0.5961 -2.4754
 6150TIP3    H239942   4.046   3.115   1.446 -1.1609  0.5248 -2.4508
 6151TIP3   OH239943   2.768   1.028  12.465 -0.8535  0.1207  0.0036
 6151TIP3    H139944   2.760   0.933  12.450  0.0046  0.0724 -0.1886
 6151TIP3    H239945   2.680   1.062  12.448 -1.7309 -0.8899  2.1090
 6152TIP3   OH239946   2.771   2.028  14.089  0.0648  0.5696  0.3339
 6152TIP3    H139947   2.715   2.102  14.113 -2.2027 -0.9027 -0.1418
 6152TIP3    H239948   2.732   1.993  14.009  2.0671 -0.1597 -0.3802
 6153TIP3   OH239949   4.188   1.679   5.056  0.1597  0.2497 -0.1893
 6153TIP3    H139950   4.207   1.699   5.147  2.8380  0.0664 -0.6286
 6153TIP3    H239951   4.165   1.586   5.056  1.9866 -0.2369  0.1258
 6154TIP3   OH239952   4.230   0.079  14.357 -0.0184  0.1852  0.0107
 6154TIP3    H139953   4.307   0.091  14.413  1.6603  2.3268 -2.4715
 6154TIP3    H239954   4.251   0.002  14.304  0.3637  0.6334 -0.5062
 6155TIP3   OH239955   6.572   3.536  13.490 -0.2402 -0.0870  0.7317
 6155TIP3    H139956   6.610   3.476  13.426 -1.8264 -0.0758 -0.2715
 6155TIP3    H239957   6.601   3.502  13.575  0.5210 -1.0848  0.0944
 6156TIP3   OH239958   4.666   0.632  15.013  0.9370  0.5626  0.1184
 6156TIP3    H139959   4.736   0.566  15.020 -0.0060 -0.5242 -0.2734
 6156TIP3    H239960   4.685   0.695  15.082  1.0450 -0.9292  1.5009
 6157TIP3   OH239961   1.472   5.149  15.196 -0.2840  0.2812 -0.1716
 6157TIP3    H139962   1.424   5.212  15.143  0.7986 -0.1197 -1.6863
 6157TIP3    H239963   1.541   5.200  15.237 -1.5079  0.7208  1.4519
 6158TIP3   OH239964   5.927   2.624   5.594  0.1875 -0.0813 -0.6656
 6158TIP3    H139965   5.846   2.579   5.569  0.8956 -1.7359 -0.1422
 6158TIP3    H239966   5.898   2.701   5.643 -1.1984  2.3526 -4.8366
 6159TIP3   OH239967   0.913   0.272  14.039 -0.1635 -0.4127 -0.2781
 6159TIP3    H139968   0.826   0.240  14.064 -0.7707  1.8992  0.8232
 6159TIP3    H239969   0.903   0.367  14.033  2.2219 -0.1107 -0.4368
 6160TIP3   OH239970   5.289   5.013   3.973 -0.4269  0.3032  0.4495
 6160TIP3    H139971   5.301   5.097   3.927  3.7382 -0.4478 -0.2281
 6160TIP3    H239972   5.330   5.027   4.059 -0.0969 -0.8895  0.5008
 6161TIP3   OH239973   6.612   3.045   0.193  0.2818 -0.0144 -0.1398
 6161TIP3    H139974   6.581   2.977   0.252  0.2427 -0.7980 -1.0389
 6161TIP3    H239975   6.705   3.027   0.182 -0.0481 -0.9966 -1.7098
 6162TIP3   OH239976   6.259   2.883  15.416  0.3104 -0.4518  0.4106
 6162TIP3    H139977   6.252   2.979  15.409  0.8936 -0.5046 -2.4906
 6162TIP3    H239978   6.212   2.861  15.496 -1.5188  2.1218  0.1888
 6163TIP3   OH239979   2.827   2.044   3.569 -0.5042  0.6929  0.1078
 6163TIP3    H139980   2.820   1.992   3.649 -0.9541  0.6795  0.0641
 6163TIP3    H239981   2.892   1.998   3.516  0.0548  0.8947  0.6073
 6164TIP3   OH239982   5.981   1.019  15.852 -0.2787 -0.0880 -0.6368
 6164TIP3    H139983   5.940   0.982  15.930 -1.1509  2.8143  0.4184
 6164TIP3    H239984   6.024   0.944  15.810  0.5749 -1.7689  2.7901
 6165TIP3   OH239985   3.112   3.566   3.869 -0.2277 -0.2975  0.2118
 6165TIP3    H139986   3.117   3.632   3.800 -1.0447  0.3512  0.7458
 6165TIP3    H239987   3.055   3.606   3.936  1.1415 -0.5791  1.6094
 6166TIP3   OH239988   2.638   3.729   1.562 -0.0342  0.5557  0.7156
 6166TIP3    H139989   2.675   3.704   1.478  0.9725  0.7570  1.0911
 6166TIP3    H239990   2.650   3.652   1.618  0.4583  0.8657  1.0414
 6167TIP3   OH239991   3.476   3.016   2.113  0.2925 -0.5454  1.0992
 6167TIP3    H139992   3.489   3.110   2.096 -0.5640 -0.4974  0.6855
 6167TIP3    H239993   3.388   3.011   2.151  0.7424 -1.0720  2.1109
 6168TIP3   OH239994   3.481   5.159   5.438  0.2602  0.8250  0.1980
 6168TIP3    H139995   3.467   5.179   5.531  1.1686  0.3359  0.4548
 6168TIP3    H239996   3.566   5.114   5.436  0.3085  0.9448 -0.8882
 6169TIP3   OH239997   2.054   0.738  15.766 -0.2608 -0.2386  0.1972
 6169TIP3    H139998   2.085   0.674  15.830 -1.3100  0.6753  1.6809
 6169TIP3    H239999   2.112   0.725  15.691 -0.5407 -3.0384  0.3343
 6170TIP3   OH240000   4.122   0.886   1.062  0.1465  0.5447 -0.5142
 6170TIP3    H140001   4.081   0.877   1.148  0.3003 -0.2032 -0.5104
 6170TIP3    H240002   4.075   0.958   1.020 -0.5597  0.2984 -0.1583
 6171TIP3   OH240003   1.833   5.106  17.123 -0.2240  0.1652  0.4579
 6171TIP3    H140004   1.864   5.026  17.166  0.0951  0.5580  0.9753
 6171TIP3    H240005   1.907   5.167  17.131  0.8279 -0.4806 -2.7493
 6172TIP3   OH240006   0.553   2.453   4.182 -0.1041  0.6620 -0.1718
 6172TIP3    H140007   0.550   2.429   4.089 -2.6453 -1.1381  0.2592
 6172TIP3    H240008   0.475   2.508   4.195  0.4770  1.2771  0.8004
 6173TIP3   OH240009   1.512   6.004   3.995  0.4070  0.1411  0.2289
 6173TIP3    H140010   1.464   6.085   3.985 -1.5260 -0.8433  1.1230
 6173TIP3    H240011   1.502   5.959   3.911  1.6319  0.8586 -0.3302
 6174TIP3   OH240012   3.051   4.138   0.666  0.0257 -0.2639 -0.2469
 6174TIP3    H140013   3.098   4.087   0.731 -1.3830  0.5940  1.5407
 6174TIP3    H240014   3.112   4.207   0.639  1.2122 -1.6248 -1.1561
 6175TIP3   OH240015   0.109   1.273   0.126 -0.4121 -0.3812  0.3721
 6175TIP3    H140016   0.089   1.256   0.218 -0.8428  0.1244  0.3780
 6175TIP3    H240017   0.097   1.189   0.082 -0.7578 -0.4954  0.6865
 6176TIP3   OH240018   6.375   4.617   1.343 -0.1272  0.4968  0.0879
 6176TIP3    H140019   6.327   4.577   1.416 -1.4187  0.7071 -0.6095
 6176TIP3    H240020   6.451   4.560   1.331 -2.3722 -2.4635 -1.5077
 6177TIP3   OH240021   1.494   5.839   3.787  0.0624 -0.0493  0.1368
 6177TIP3    H140022   1.473   5.885   3.706  0.7947  0.8238  0.4288
 6177TIP3    H240023   1.526   5.753   3.758  0.1077  0.1728 -0.4890
 6178TIP3   OH240024   2.561   0.131   2.014  0.1528  0.0634 -0.1011
 6178TIP3    H140025   2.607   0.061   2.059  1.2463  0.5319 -0.4628
 6178TIP3    H240026   2.474   0.132   2.054  0.8584 -0.0191  1.4852
 6179TIP3   OH240027   5.231   5.358   1.019 -0.7881  0.2672 -0.0759
 6179TIP3    H140028   5.140   5.387   1.009 -1.8968 -1.2305  3.8016
 6179TIP3    H240029   5.280   5.436   1.044 -0.9678  1.0618 -2.0771
 6180TIP3   OH240030   2.106   5.015   0.071 -0.6779  0.1661  0.2506
 6180TIP3    H140031   2.129   5.051   0.156 -0.9058 -0.3704  0.5397
 6180TIP3    H240032   2.060   4.933   0.090  3.5627 -2.6696 -0.3790
 6181TIP3   OH240033   6.056   2.964   0.039  0.8393  0.0161  0.2971
 6181TIP3    H140034   6.075   2.981  -0.054  1.2007  3.2722  0.8463
 6181TIP3    H240035   6.140   2.970   0.082  0.3294  1.6589  1.1570
 6182TIP3   OH240036   4.951   1.554   1.395  0.3035 -0.1096  0.2557
 6182TIP3    H140037   4.910   1.592   1.473  2.5199  0.4658  1.2402
 6182TIP3    H240038   4.979   1.466   1.423 -0.9984 -0.8413 -0.6699
 6183TIP3   OH240039   4.666   3.874  14.381  0.0346  0.2210 -0.0257
 6183TIP3    H140040   4.604   3.944  14.360 -0.6244 -0.5474 -0.6992
 6183TIP3    H240041   4.731   3.878  14.312 -0.7630 -0.6897 -0.8766
 6184TIP3   OH240042   6.391   2.642  12.244  0.0902 -0.1833 -0.0529
 6184TIP3    H140043   6.312   2.691  12.265  0.1199 -0.2792  0.2919
 6184TIP3    H240044   6.362   2.550  12.240 -0.3083 -0.0091 -2.3594
 6185TIP3   OH240045   3.093   2.157  16.327 -0.1712  0.3141 -0.4161
 6185TIP3    H140046   3.081   2.172  16.420 -0.7067 -0.5879 -0.3279
 6185TIP3    H240047   3.187   2.154  16.315 -0.0978 -0.6290  0.2854
 6186TIP3   OH240048   1.314   0.419  11.673 -0.1370  0.2425 -0.1445
 6186TIP3    H140049   1.387   0.479  11.691  1.6313 -2.1832  1.3997
 6186TIP3    H240050   1.236   0.467  11.701  1.3675  1.1493  2.8966
 6187TIP3   OH240051   5.799   2.857   2.677 -0.2502 -0.2066 -0.0023
 6187TIP3    H140052   5.733   2.810   2.729 -0.6953  0.7063  0.2686
 6187TIP3    H240053   5.882   2.835   2.720 -0.5939  0.4026  1.0125
 6188TIP3   OH240054   3.702   5.845  12.265 -0.8325 -0.1724  0.3210
 6188TIP3    H140055   3.795   5.843  12.290 -0.4478  4.7260  0.2177
 6188TIP3    H240056   3.658   5.798  12.336  1.5471 -1.4610  1.0829
 6189TIP3   OH240057   3.493   4.298   1.681  0.1872 -0.3227 -0.0236
 6189TIP3    H140058   3.559   4.245   1.725 -0.3676  0.4290  1.8291
 6189TIP3    H240059   3.537   4.382   1.665  0.1922 -0.3896 -0.3796
 6190TIP3   OH240060   1.811   4.837  14.592 -0.4428 -0.4303 -0.6996
 6190TIP3    H140061   1.756   4.883  14.528  0.8005  1.9789 -0.1534
 6190TIP3    H240062   1.799   4.886  14.674  2.2712  0.1050 -0.5170
 6191TIP3   OH240063   4.617   3.154  15.479 -0.3778 -0.0693  0.1152
 6191TIP3    H140064   4.710   3.131  15.489 -0.7339 -0.7538  2.3087
 6191TIP3    H240065   4.598   3.136  15.387  1.5273 -0.4094 -0.2578
 6192TIP3   OH240066   5.107   2.783  11.681  0.4320 -0.6171  0.3835
 6192TIP3    H140067   5.023   2.759  11.643 -0.5525  1.6506  1.0281
 6192TIP3    H240068   5.092   2.783  11.776  0.4466  2.0114  0.4474
 6193TIP3   OH240069   5.789   0.105   0.918  0.1677 -0.0338  0.1736
 6193TIP3    H140070   5.835   0.021   0.918 -0.2410 -0.3299  2.4179
 6193TIP3    H240071   5.698   0.082   0.898  0.5140  0.2914 -2.0864
 6194TIP3   OH240072   3.572   2.176  13.100 -0.2011 -0.1421 -0.1685
 6194TIP3    H140073   3.562   2.086  13.133 -0.3133  0.0430  0.3160
 6194TIP3    H240074   3.485   2.214  13.109  0.1089  0.3833  0.7546
 6195TIP3   OH240075   2.291   3.057  15.622 -0.4858 -0.1749  0.2774
 6195TIP3    H140076   2.278   3.149  15.598  1.3664 -0.6207 -2.9935
 6195TIP3    H240077   2.349   3.060  15.698 -0.5870  1.3612  0.3281
 6196TIP3   OH240078   6.253   5.186  12.737  0.0934  0.4683  0.0842
 6196TIP3    H140079   6.196   5.237  12.681 -0.5449  0.5376  0.7799
 6196TIP3    H240080   6.212   5.100  12.743 -0.7617  0.9583  1.7710
 6197TIP3   OH240081   3.667   1.359   5.454  0.0609 -0.1122  0.2517
 6197TIP3    H140082   3.731   1.384   5.520 -1.1352 -1.5950  2.0770
 6197TIP3    H240083   3.693   1.271   5.426  1.0710  0.8424 -1.9882
 6198TIP3   OH240084   6.423   1.911   4.491  0.1381  0.4610  0.2756
 6198TIP3    H140085   6.492   1.864   4.444  0.5237  1.7035 -0.4514
 6198TIP3    H240086   6.346   1.855   4.484  0.2372  0.5006 -1.6897
 6199TIP3   OH240087   5.247   5.877  12.358  0.2154 -0.1351 -0.0021
 6199TIP3    H140088   5.287   5.819  12.422  1.3137  0.2056 -0.3603
 6199TIP3    H240089   5.161   5.899  12.396  1.5853  1.6323  2.3673
 6200TIP3   OH240090   5.261   5.275   0.602 -0.4901  0.2684  1.0139
 6200TIP3    H140091   5.351   5.269   0.635 -0.4235 -0.6041  0.6779
 6200TIP3    H240092   5.241   5.369   0.607  0.6968  0.5863  0.4248
 6201TIP3   OH240093   2.841   5.355  12.977  0.1001  0.0299  0.0323
 6201TIP3    H140094   2.932   5.385  12.974  0.2465 -0.0721  1.9134
 6201TIP3    H240095   2.790   5.435  12.978  0.1480  0.0880 -1.0941
 6202TIP3   OH240096   5.764   3.889   0.588  0.2185 -0.4713 -0.7920
 6202TIP3    H140097   5.693   3.952   0.583  1.1575  0.6737 -0.0728
 6202TIP3    H240098   5.727   3.808   0.550 -1.1559  0.3402 -1.2482
 6203TIP3   OH240099   5.395   2.995   3.314  0.0611  0.0190  0.2176
 6203TIP3    H140100   5.371   3.033   3.399 -1.0069  1.6313 -0.7414
 6203TIP3    H240101   5.473   3.044   3.287  0.9091 -1.0746  0.6241
 6204TIP3   OH240102   3.980   5.869  10.660  0.0783 -0.2588 -0.1953
 6204TIP3    H140103   3.887   5.850  10.664  0.5143 -2.3320  2.3830
 6204TIP3    H240104   3.988   5.960  10.687 -1.1896  0.1235 -1.0293
 6205TIP3   OH240105   1.892   4.708   6.215 -0.8844 -0.2545  0.1074
 6205TIP3    H140106   1.899   4.718   6.310  0.0627  1.0724 -0.0764
 6205TIP3    H240107   1.819   4.763   6.189  0.4438  1.4679 -0.1853
 6206TIP3   OH240108   0.934   4.968  11.462 -0.1796  0.6184 -0.7235
 6206TIP3    H140109   0.870   5.021  11.509 -2.4140 -0.6782 -2.1481
 6206TIP3    H240110   0.912   4.877  11.485  1.5153  0.1415 -0.8332
 6207TIP3   OH240111   5.404   2.763   3.589 -0.1646 -0.5109 -0.0757
 6207TIP3    H140112   5.426   2.849   3.553 -1.0064  0.0787  0.7469
 6207TIP3    H240113   5.481   2.709   3.573  0.4162  0.4298 -0.5198
 6208TIP3   OH240114   1.297   5.955   5.363  0.2011 -0.2974 -0.2662
 6208TIP3    H140115   1.292   6.043   5.328 -2.3108 -0.4175 -0.3873
 6208TIP3    H240116   1.242   5.957   5.442  1.2524 -1.4167  0.5448
 6209TIP3   OH240117   5.285   5.916   0.869 -0.2987 -0.3015  0.0214
 6209TIP3    H140118   5.272   5.991   0.926  0.4622 -1.5441  1.9307
 6209TIP3    H240119   5.290   5.953   0.781 -0.1694  1.8368  0.8771
 6210TIP3   OH240120   5.595   1.517   1.276 -0.3049 -0.0958  0.2784
 6210TIP3    H140121   5.678   1.553   1.243 -0.3750 -0.7561 -0.6775
 6210TIP3    H240122   5.587   1.433   1.232 -0.6188 -0.8504  1.7361
 6211TIP3   OH240123   1.120   6.031   0.684 -0.2135 -0.2847 -0.0701
 6211TIP3    H140124   1.201   6.058   0.641  1.2661 -0.1610  2.5339
 6211TIP3    H240125   1.106   5.941   0.655  3.1796 -1.7942  2.2327
 6212TIP3   OH240126   1.261   0.016   1.537 -0.3143  0.0169  0.6750
 6212TIP3    H140127   1.299  -0.057   1.487 -1.9995 -0.6219  0.2852
 6212TIP3    H240128   1.232   0.079   1.472  0.0251  0.4894  0.9707
 6213TIP3   OH240129   2.620   0.593  13.426 -0.5518 -0.5449  0.2220
 6213TIP3    H140130   2.682   0.584  13.353  0.0844  1.6664  0.4054
 6213TIP3    H240131   2.618   0.507  13.467  1.5200 -1.0042 -0.5069
 6214TIP3   OH240132   3.074   6.286   6.545  0.0577 -0.0182 -0.2092
 6214TIP3    H140133   3.030   6.214   6.590  0.5100 -0.2318 -0.1021
 6214TIP3    H240134   3.007   6.322   6.487 -0.1818 -0.5138 -0.2513
 6215TIP3   OH240135   2.034   5.865   2.380 -0.2197 -0.0721  0.0418
 6215TIP3    H140136   2.000   5.844   2.467 -1.0297  0.5243 -0.1167
 6215TIP3    H240137   1.957   5.870   2.324  0.0757  1.5838 -0.2724
 6216TIP3   OH240138   3.518   5.430  16.937 -0.0039  0.7190 -0.0008
 6216TIP3    H140139   3.470   5.403  16.858  0.3350 -1.0297  0.3489
 6216TIP3    H240140   3.461   5.494  16.979 -0.7670  0.7263 -1.0164
 6217TIP3   OH240141   5.589   6.131  14.795  0.6017  0.4302  0.3894
 6217TIP3    H140142   5.513   6.188  14.805  0.1970 -0.2108  1.0643
 6217TIP3    H240143   5.571   6.057  14.852  1.8466  0.3690  0.7242
 6218TIP3   OH240144   5.015   4.774   3.689  0.4103  0.0734  0.6176
 6218TIP3    H140145   5.106   4.793   3.714  0.6505 -0.4974  0.1954
 6218TIP3    H240146   5.022   4.704   3.624 -0.3708 -0.4116  1.0484
 6219TIP3   OH240147   5.128   0.182   5.111  0.7935  0.2195 -0.7042
 6219TIP3    H140148   5.182   0.158   5.036 -2.2164  1.0245 -3.3549
 6219TIP3    H240149   5.090   0.099   5.141  3.0515 -0.2971  0.9453
 6220TIP3   OH240150   6.332   6.297   4.113  0.0594 -0.0600  0.0159
 6220TIP3    H140151   6.379   6.359   4.057 -0.8544  0.4682 -0.2008
 6220TIP3    H240152   6.277   6.352   4.169 -0.3214 -0.6520  0.2348
 6221TIP3   OH240153   3.863   2.274   6.687  0.3798 -0.0301 -0.5891
 6221TIP3    H140154   3.821   2.190   6.672  0.0310 -0.5160  2.3803
 6221TIP3    H240155   3.795   2.339   6.669 -0.4745 -0.6065  0.4782
 6222TIP3   OH240156   4.040   2.329  13.647  0.0364  0.2206  0.2067
 6222TIP3    H140157   4.130   2.296  13.645 -0.4720 -1.2197  0.3363
 6222TIP3    H240158   4.011   2.313  13.737 -1.6987 -3.1832 -0.8016
 6223TIP3   OH240159   4.128   1.903  14.444  0.4396  0.4488 -0.1333
 6223TIP3    H140160   4.063   1.857  14.498  1.1633 -1.1462 -0.5595
 6223TIP3    H240161   4.188   1.834  14.415  0.7354  1.4406 -2.0281
 6224TIP3   OH240162   5.380   0.271   0.918 -0.0260 -0.5774  0.1304
 6224TIP3    H140163   5.353   0.202   0.858 -1.4666 -0.3570  0.4713
 6224TIP3    H240164   5.359   0.236   1.005  0.2207 -0.1348  0.3701
 6225TIP3   OH240165   6.341   1.681  14.291  0.7231 -0.4469  0.5485
 6225TIP3    H140166   6.264   1.686  14.349 -0.3630 -0.9160 -0.8079
 6225TIP3    H240167   6.378   1.769  14.295 -1.3266  0.5536 -0.6375
 6226TIP3   OH240168   6.087   6.382   0.945  0.3049  0.0673  0.6439
 6226TIP3    H140169   6.141   6.315   0.986 -1.8230 -2.2488 -0.0624
 6226TIP3    H240170   6.057   6.437   1.017  0.7783 -0.7576  1.4814
 6227TIP3   OH240171   5.479   1.223  16.622  0.1733 -0.8978 -0.2481
 6227TIP3    H140172   5.518   1.200  16.707 -0.9376 -3.4864 -0.3440
 6227TIP3    H240173   5.455   1.315  16.631  0.9974 -0.8327  1.8814
 6228TIP3   OH240174   2.002   4.057  14.825 -0.1080  0.0329  0.0374
 6228TIP3    H140175   1.964   3.970  14.828 -0.1354  0.0754  1.5024
 6228TIP3    H240176   1.927   4.116  14.813 -0.3719  0.0022  1.3603
 6229TIP3   OH240177   4.549   5.731   0.803  0.3685 -0.3210  0.2363
 6229TIP3    H140178   4.600   5.688   0.871 -0.5216 -0.0784  1.0809
 6229TIP3    H240179   4.478   5.774   0.850 -1.1204 -1.3613 -0.9726
 6230TIP3   OH240180   5.748   2.400   2.648 -0.2838 -0.0562 -0.0450
 6230TIP3    H140181   5.835   2.423   2.682  0.7868  1.0326 -3.1820
 6230TIP3    H240182   5.763   2.319   2.599 -1.2572 -0.3446  0.1189
 6231TIP3   OH240183   1.756   6.170  16.098 -0.0986 -0.0983 -0.4088
 6231TIP3    H140184   1.834   6.216  16.067 -0.3425 -0.1455 -1.1333
 6231TIP3    H240185   1.768   6.161  16.192  0.9702 -0.4833 -0.5719
 6232TIP3   OH240186   1.433   0.006  14.395  0.5339  0.0036 -0.1675
 6232TIP3    H140187   1.436   0.078  14.458 -0.2915  0.8299 -1.0274
 6232TIP3    H240188   1.340  -0.009  14.380  0.6834  0.4721 -1.8550
 6233TIP3   OH240189   1.153   5.351  12.277 -0.6503 -0.2133 -0.3555
 6233TIP3    H140190   1.151   5.257  12.296  0.1709 -0.5877 -1.9518
 6233TIP3    H240191   1.226   5.362  12.217 -0.8309  1.4363 -0.3127
 6234TIP3   OH240192   6.708   1.312  13.827 -0.1661 -0.3534 -0.3261
 6234TIP3    H140193   6.695   1.221  13.853  2.2455 -0.2692  1.5963
 6234TIP3    H240194   6.669   1.364  13.898  0.2623  0.0511 -0.3773
 6235TIP3   OH240195   6.384   4.146  13.392 -0.0548  0.2335 -0.1762
 6235TIP3    H140196   6.288   4.150  13.398 -0.2609 -3.5054  2.2130
 6235TIP3    H240197   6.414   4.169  13.479  1.1265 -0.0857 -0.4841
 6236TIP3   OH240198   0.904   1.016   2.655 -0.8465 -0.1365  0.4968
 6236TIP3    H140199   0.862   0.947   2.604  0.7200 -0.4229 -0.4745
 6236TIP3    H240200   0.976   1.047   2.600 -1.3809  2.1670  0.9838
 6237TIP3   OH240201   0.647   2.669  16.703 -0.2061  0.2394  0.6829
 6237TIP3    H140202   0.653   2.736  16.770  0.5451  0.1427  0.7245
 6237TIP3    H240203   0.730   2.675  16.655 -0.9934  0.7547 -0.6719
 6238TIP3   OH240204   6.610   4.687   0.963  0.8065  0.1736  0.4107
 6238TIP3    H140205   6.633   4.608   1.011 -1.5574 -0.7046  0.2253
 6238TIP3    H240206   6.597   4.658   0.873 -0.4838  0.6419  0.4130
 6239TIP3   OH240207   5.352   5.540   3.931  0.2280 -0.4792 -0.2751
 6239TIP3    H140208   5.315   5.559   3.845  1.0149  1.1578 -0.2830
 6239TIP3    H240209   5.442   5.513   3.913  0.6013  0.5046  0.0591
 6240TIP3   OH240210   4.242   6.572   1.240  0.1751 -0.0130  0.0819
 6240TIP3    H140211   4.328   6.599   1.270 -0.4389 -0.2534  2.2312
 6240TIP3    H240212   4.195   6.653   1.225  0.2856  0.1255  0.4703
 6241TIP3   OH240213   4.120   1.674   1.157 -0.0426  0.0616  0.4161
 6241TIP3    H140214   4.107   1.594   1.207 -1.2656 -0.4841 -0.7024
 6241TIP3    H240215   4.138   1.741   1.223  0.3682 -0.9980  1.4200
 6242TIP3   OH240216   0.793   5.780  12.059 -0.1976  0.3082 -0.4718
 6242TIP3    H140217   0.762   5.839  11.989 -0.1431  0.5919 -0.2584
 6242TIP3    H240218   0.873   5.741  12.023 -1.6213 -1.6817 -1.6967
 6243TIP3   OH240219   6.525   2.666  16.611  0.3610  0.4308 -0.0106
 6243TIP3    H140220   6.467   2.592  16.594  0.1727  0.4447  0.5299
 6243TIP3    H240221   6.472   2.743  16.595  0.2527  0.4438  0.4003
 6244TIP3   OH240222   6.582   3.215  11.762 -0.2427  0.4539 -0.9050
 6244TIP3    H140223   6.650   3.266  11.719  0.2302  0.6871  0.0957
 6244TIP3    H240224   6.566   3.261  11.845  1.6931 -2.0971  1.0406
 6245TIP3   OH240225   5.673   4.001   0.221  0.1419  0.1966 -0.2904
 6245TIP3    H140226   5.713   4.082   0.191 -0.6789  0.6926 -0.0712
 6245TIP3    H240227   5.670   4.008   0.316  1.4195 -0.7504 -0.1489
 6246TIP3   OH240228   2.582   0.570   4.806  0.4113  0.2116 -0.0920
 6246TIP3    H140229   2.503   0.515   4.809  0.1784  0.3872 -1.7173
 6246TIP3    H240230   2.647   0.516   4.761  1.3390 -0.0171  1.4377
 6247TIP3   OH240231   5.248   6.331  16.403 -0.1640 -0.1439 -0.7001
 6247TIP3    H140232   5.266   6.265  16.336 -0.8871 -0.0008 -1.0406
 6247TIP3    H240233   5.199   6.285  16.471 -1.3437  0.1991 -1.2926
 6248TIP3   OH240234   1.372   0.763   4.190 -0.0981 -0.0237 -0.4246
 6248TIP3    H140235   1.417   0.843   4.165 -0.6642  0.8762  1.2589
 6248TIP3    H240236   1.355   0.717   4.108  2.4886  0.3236 -1.2488
 6249TIP3   OH240237   1.655   3.350   4.256  0.1941  0.0392 -0.6317
 6249TIP3    H140238   1.734   3.359   4.309 -0.7151  0.4471  0.7212
 6249TIP3    H240239   1.622   3.439   4.246 -1.3499 -0.3198  0.8693
 6250TIP3   OH240240   0.328   4.099  12.916  0.3047  0.6080 -0.2791
 6250TIP3    H140241   0.346   4.052  12.996  0.5271  0.0509 -0.6543
 6250TIP3    H240242   0.344   4.191  12.938  2.0515  0.2999 -0.1678
 6251TIP3   OH240243   1.928   6.334   3.197 -0.3516  0.2703  0.5403
 6251TIP3    H140244   1.915   6.240   3.210 -0.3755 -0.0589 -1.4932
 6251TIP3    H240245   1.851   6.363   3.148  0.4285  0.9841 -0.3153
 6252TIP3   OH240246   5.635   4.950   6.559 -0.4213 -0.5219  0.1013
 6252TIP3    H140247   5.684   5.017   6.513  0.7294 -1.9619 -0.8585
 6252TIP3    H240248   5.576   4.999   6.617  1.4209  1.2737  0.5622
 6253TIP3   OH240249   2.508   1.628  15.690  0.1736 -0.3057 -0.6043
 6253TIP3    H140250   2.483   1.557  15.631  0.8307 -0.8941 -0.1859
 6253TIP3    H240251   2.501   1.707  15.636  1.7545 -0.9188 -1.7899
 6254TIP3   OH240252   3.323   3.755   4.557  0.2522 -0.4262 -0.2259
 6254TIP3    H140253   3.418   3.755   4.572  0.2120  0.4749  0.0754
 6254TIP3    H240254   3.287   3.800   4.633 -0.4159 -0.7213 -0.3650
 6255TIP3   OH240255   5.005   6.058  16.114  0.3674 -0.4394 -0.2364
 6255TIP3    H140256   4.982   5.977  16.069  0.6704  0.1612 -1.5293
 6255TIP3    H240257   5.010   6.123  16.044 -0.0856  0.7459  0.8029
 6256TIP3   OH240258   6.705   5.338   2.773 -0.1596  0.0347 -0.3502
 6256TIP3    H140259   6.651   5.381   2.707 -0.8620  1.2323  0.9655
 6256TIP3    H240260   6.660   5.255   2.789 -0.4884  0.1427 -0.6946
 6257TIP3   OH240261   4.330   4.639  12.443 -0.1521 -0.5082 -0.0260
 6257TIP3    H140262   4.295   4.715  12.489  0.9240  1.0818 -1.6994
 6257TIP3    H240263   4.306   4.653  12.351  1.2282 -1.4965 -0.5742
 6258TIP3   OH240264   2.046   3.959   6.853  0.4981 -0.0048  0.0075
 6258TIP3    H140265   2.047   3.892   6.785  0.8541 -1.6199  1.5263
 6258TIP3    H240266   2.056   4.041   6.806 -0.6068 -0.9472 -1.9825
 6259TIP3   OH240267   6.757   6.797  16.126 -0.1490  0.4390 -0.8228
 6259TIP3    H140268   6.750   6.890  16.104  0.5481  0.4207 -1.1473
 6259TIP3    H240269   6.851   6.780  16.131 -0.1739 -0.7785 -3.0654
 6260TIP3   OH240270   5.901   0.181   2.666  0.4418  0.0424 -0.3121
 6260TIP3    H140271   5.912   0.122   2.591  0.8123  0.3125 -0.4697
 6260TIP3    H240272   5.816   0.156   2.703  0.2292 -0.0575 -0.8537
 6261TIP3   OH240273   4.537   4.247   3.273 -0.1154 -0.4119 -0.3516
 6261TIP3    H140274   4.493   4.251   3.188  1.0487 -4.2561 -1.3312
 6261TIP3    H240275   4.614   4.302   3.263 -0.4262 -0.1545 -1.5005
 6262TIP3   OH240276   2.275   5.460  11.925  0.2226  0.0854  0.4230
 6262TIP3    H140277   2.257   5.383  11.979 -1.8931 -1.1841 -1.8937
 6262TIP3    H240278   2.369   5.475  11.937  0.1282 -0.9092  3.3175
 6263TIP3   OH240279   5.188   3.440  13.496  0.0073 -0.4767 -0.2300
 6263TIP3    H140280   5.151   3.475  13.577  0.1711  2.2205 -1.2154
 6263TIP3    H240281   5.283   3.452  13.506 -0.0019  0.2662 -0.9591
 6264TIP3   OH240282   4.598   5.761   2.144  0.4072  0.3494 -0.1908
 6264TIP3    H140283   4.681   5.765   2.191 -0.1219 -0.1451  0.8094
 6264TIP3    H240284   4.584   5.850   2.112  2.2102  0.0737 -1.9848
 6265TIP3   OH240285   1.237   1.787  16.440 -0.3912 -0.3529 -0.5810
 6265TIP3    H140286   1.322   1.790  16.484 -0.0239  2.0058 -1.2925
 6265TIP3    H240287   1.256   1.814  16.350 -1.9257  0.4595 -0.6905
 6266TIP3   OH240288   6.766   0.703   4.014  0.3548 -0.8670 -0.5427
 6266TIP3    H140289   6.719   0.666   3.940  1.1343  0.6849 -1.8710
 6266TIP3    H240290   6.852   0.661   4.011 -0.1414 -2.0418  0.5407
 6267TIP3   OH240291   0.399   5.898  12.438  0.0158  0.3250  0.1990
 6267TIP3    H140292   0.491   5.887  12.462  0.0845 -0.6978 -0.4857
 6267TIP3    H240293   0.368   5.970  12.493  1.4404  1.2227 -0.1222
 6268TIP3   OH240294   1.227   4.814   4.570  0.0498 -0.2353 -0.3768
 6268TIP3    H140295   1.175   4.871   4.514  0.6830  1.7101  0.9268
 6268TIP3    H240296   1.243   4.865   4.649  1.0937 -2.0410  0.6511
 6269TIP3   OH240297   1.410   1.560  12.316 -0.2770  0.3596  0.0119
 6269TIP3    H140298   1.443   1.598  12.235  0.0997  3.8987  1.5993
 6269TIP3    H240299   1.319   1.539  12.297  0.4398 -1.2689 -1.9619
 6270TIP3   OH240300   1.442   3.638  16.380 -0.0251  0.1050 -0.5681
 6270TIP3    H140301   1.528   3.611  16.348 -0.3848 -1.5295 -0.2725
 6270TIP3    H240302   1.460   3.698  16.452  0.9662 -1.8906  0.9299
 6271TIP3   OH240303   0.071   4.558   3.482 -0.1322  0.4931  0.2463
 6271TIP3    H140304   0.083   4.540   3.576 -0.6443 -0.4109  0.1511
 6271TIP3    H240305   0.154   4.597   3.454  0.6213 -0.7275  0.7265
 6272TIP3   OH240306   3.971   3.976  15.213  0.5520 -0.2521  0.7108
 6272TIP3    H140307   4.028   3.911  15.254  1.4208 -0.0360 -0.1005
 6272TIP3    H240308   4.026   4.054  15.205  0.1942 -0.0780 -0.1969
 6273TIP3   OH240309   3.755   1.728  13.725 -0.3123 -0.0756  0.0235
 6273TIP3    H140310   3.750   1.823  13.724  1.0980  0.1109 -2.9653
 6273TIP3    H240311   3.664   1.699  13.720 -0.7004  1.1821 -0.5886
 6274TIP3   OH240312   1.953   4.823  15.201  0.4590 -0.0596 -0.4892
 6274TIP3    H140313   1.859   4.833  15.182  0.8234  0.5687 -2.1986
 6274TIP3    H240314   1.976   4.738  15.164  0.3978 -0.6115  0.7182
 6275TIP3   OH240315   2.987   5.102   2.075  0.3929 -0.1192  0.3727
 6275TIP3    H140316   3.055   5.053   2.121  0.0817 -0.4554  0.4851
 6275TIP3    H240317   3.022   5.190   2.066  0.6826 -0.1895  0.7755
 6276TIP3   OH240318   0.364   6.504  11.972 -0.4192  0.9327 -0.1718
 6276TIP3    H140319   0.444   6.524  11.923  1.4018 -0.1548  2.1567
 6276TIP3    H240320   0.375   6.550  12.055 -1.2343 -0.8605  0.9955
 6277TIP3   OH240321   4.305   4.016   4.498  0.5961 -0.1827  0.5741
 6277TIP3    H140322   4.396   4.031   4.521  0.3084 -0.4425  1.9858
 6277TIP3    H240323   4.258   4.091   4.535  0.2388  0.0238 -0.2663
 6278TIP3   OH240324   5.799   1.562   3.479 -0.3868  0.2356 -0.3674
 6278TIP3    H140325   5.893   1.568   3.468 -0.1126 -0.7896  1.0904
 6278TIP3    H240326   5.765   1.550   3.390  0.8500  0.5460 -0.8978
 6279TIP3   OH240327   0.105   6.050   0.710 -0.2534  1.0844 -0.2157
 6279TIP3    H140328   0.091   5.991   0.785 -0.2918  1.6174  0.2019
 6279TIP3    H240329   0.021   6.095   0.700  0.1288  1.8985  0.1978
 6280TIP3   OH240330   1.797   1.570  16.494 -0.5840 -0.4525 -0.1886
 6280TIP3    H140331   1.811   1.478  16.476  1.7212 -0.2616  0.3330
 6280TIP3    H240332   1.866   1.615  16.445 -2.3765  1.1415 -1.4206
 6281TIP3   OH240333   1.215   3.073  13.427  0.1495 -0.1598  0.8700
 6281TIP3    H140334   1.262   3.004  13.380 -0.4003 -1.0692  1.6018
 6281TIP3    H240335   1.147   3.102  13.366 -0.3257 -1.0665  0.9421
 6282TIP3   OH240336   0.510   1.428  11.842 -0.4278  0.3137 -0.2898
 6282TIP3    H140337   0.484   1.514  11.875  0.4580  0.6286 -0.3849
 6282TIP3    H240338   0.441   1.369  11.873 -0.0502  0.7278  1.4762
 6283TIP3   OH240339   6.796   2.443   1.627 -0.2849 -0.6623 -0.5579
 6283TIP3    H140340   6.748   2.487   1.557  0.3872  1.4714  0.2446
 6283TIP3    H240341   6.727   2.407   1.683 -0.9285  0.2841 -0.7028
 6284TIP3   OH240342   2.584   5.899   5.138  0.3071  0.8874  0.1918
 6284TIP3    H140343   2.561   5.942   5.221 -0.1169 -3.1547  2.4584
 6284TIP3    H240344   2.680   5.894   5.140  0.3710  1.7950 -0.1743
 6285TIP3   OH240345   6.548   2.817  11.217  0.2562  0.1407 -0.3027
 6285TIP3    H140346   6.526   2.742  11.161 -0.4406 -0.5287  0.8152
 6285TIP3    H240347   6.629   2.852  11.180 -0.0278 -0.4550 -1.5397
 6286TIP3   OH240348   1.112   6.434   3.829 -0.2938  0.2132  0.3876
 6286TIP3    H140349   1.026   6.393   3.832 -0.2067  0.0612  0.9289
 6286TIP3    H240350   1.118   6.483   3.911 -0.2543  1.0142 -0.0868
 6287TIP3   OH240351   4.376   0.867   5.136  0.5506 -0.2951 -0.0399
 6287TIP3    H140352   4.414   0.874   5.049 -0.3432 -1.9796 -0.6167
 6287TIP3    H240353   4.294   0.818   5.123 -0.0895  0.2436  1.6153
 6288TIP3   OH240354   5.660   3.068   3.980  0.3473  0.1525  0.3809
 6288TIP3    H140355   5.711   3.144   4.009  0.5094  0.5444 -0.9042
 6288TIP3    H240356   5.569   3.097   3.987  0.2111 -0.6033  2.8357
 6289TIP3   OH240357   3.738   4.423   2.318 -0.6627  0.1365  0.0070
 6289TIP3    H140358   3.788   4.412   2.237 -1.5642 -0.2109 -0.5122
 6289TIP3    H240359   3.661   4.368   2.306 -0.8330  0.1262  1.0873
 6290TIP3   OH240360   4.398   1.163  15.206 -0.3544  0.5591  0.4428
 6290TIP3    H140361   4.466   1.177  15.272 -0.4192 -0.6486  0.7813
 6290TIP3    H240362   4.445   1.133  15.128 -0.4895 -0.4331  0.7256
 6291TIP3   OH240363   0.213   1.638  13.437  0.7226 -0.4408 -0.8657
 6291TIP3    H140364   0.130   1.667  13.474  0.3998  0.4797 -2.2231
 6291TIP3    H240365   0.241   1.567  13.494 -0.8653 -0.6066 -0.2279
 6292TIP3   OH240366   2.018   1.156   5.772 -0.6512  0.2807  0.6011
 6292TIP3    H140367   2.079   1.170   5.699 -1.6415 -0.5145 -0.4349
 6292TIP3    H240368   2.073   1.160   5.850  0.3220  1.9825 -0.1015
 6293TIP3   OH240369   6.263   4.950   3.704  0.0434 -0.3342 -0.6416
 6293TIP3    H140370   6.199   4.982   3.641 -0.3215 -1.0584 -0.6534
 6293TIP3    H240371   6.342   4.935   3.652  0.2482  0.5891 -0.6213
 6294TIP3   OH240372   0.801   0.932  13.840 -0.5428  0.2138 -0.1230
 6294TIP3    H140373   0.883   0.884  13.826 -0.8328 -0.4933  0.5300
 6294TIP3    H240374   0.812   0.973  13.925 -0.2169  1.5116 -0.7655
 6295TIP3   OH240375   3.305   0.223   2.470  0.3237 -0.0653  0.0105
 6295TIP3    H140376   3.280   0.280   2.397 -0.2894  1.5809  1.4413
 6295TIP3    H240377   3.229   0.167   2.484  0.7693 -1.0095 -1.1238
 6296TIP3   OH240378   0.153   5.894  14.869 -0.0229  0.1634 -0.1159
 6296TIP3    H140379   0.168   5.864  14.780 -1.8336 -1.1815 -0.0361
 6296TIP3    H240380   0.098   5.971  14.859 -2.2186 -1.3147 -0.1950
 6297TIP3   OH240381   1.118   1.829  12.740  0.5623 -0.1761 -0.0623
 6297TIP3    H140382   1.105   1.776  12.661 -4.2185 -1.3112  1.1466
 6297TIP3    H240383   1.157   1.769  12.803  0.8455 -0.4183 -0.4620
 6298TIP3   OH240384   4.227   3.860  14.794 -0.3780  0.2139  0.7788
 6298TIP3    H140385   4.309   3.819  14.819 -0.3082  0.9515  1.8297
 6298TIP3    H240386   4.161   3.791  14.801 -0.2536  0.2236  2.4524
 6299TIP3   OH240387   6.244   6.596   1.872  0.3620  0.1605  0.1504
 6299TIP3    H140388   6.316   6.659   1.874  0.1578  0.3804  0.7227
 6299TIP3    H240389   6.170   6.645   1.837 -0.3203  0.8234  2.3366
 6300TIP3   OH240390   1.976   1.134  10.511  0.0729  0.4716  0.0822
 6300TIP3    H140391   1.912   1.068  10.538  1.0993 -0.1325  1.1034
 6300TIP3    H240392   2.006   1.104  10.425 -0.7508  0.5888 -0.2597
 6301TIP3   OH240393   4.378   2.631  15.262 -0.2627 -0.6733 -0.3177
 6301TIP3    H140394   4.288   2.600  15.275  0.0948 -3.2850 -2.9422
 6301TIP3    H240395   4.407   2.587  15.182  2.8651  1.2846 -0.4410
 6302TIP3   OH240396   5.830   1.624   1.165  0.1928 -0.0612 -0.2658
 6302TIP3    H140397   5.823   1.703   1.111  1.3178 -0.4121 -0.9696
 6302TIP3    H240398   5.918   1.628   1.202  0.3045 -1.0335 -0.3951
 6303TIP3   OH240399   2.741   2.460   1.985  0.0109 -0.0084 -0.7773
 6303TIP3    H140400   2.809   2.505   1.934  0.3823 -2.0528 -2.2212
 6303TIP3    H240401   2.659   2.483   1.940  0.2101 -0.8164 -1.5841
 6304TIP3   OH240402   4.447   6.524   1.557  0.2036 -0.1597  0.1662
 6304TIP3    H140403   4.484   6.576   1.486 -0.8119  0.9885  0.4369
 6304TIP3    H240404   4.454   6.434   1.527  2.0161  0.1193 -0.3244
 6305TIP3   OH240405   6.375   6.749  13.648 -0.6137  0.0421 -0.2988
 6305TIP3    H140406   6.468   6.770  13.656 -0.5822 -0.5613  1.2270
 6305TIP3    H240407   6.330   6.825  13.685 -0.6844 -0.2743  0.2609
 6306TIP3   OH240408   4.473   0.651  11.576  0.2865  0.1382  0.0918
 6306TIP3    H140409   4.552   0.691  11.613 -0.8451  0.7802  1.9514
 6306TIP3    H240410   4.438   0.598  11.648 -0.6738 -0.5883 -0.8916
 6307TIP3   OH240411   0.281   2.975  17.148 -0.5653  0.3424 -0.0588
 6307TIP3    H140412   0.256   3.067  17.152  0.2801  0.6376 -1.0727
 6307TIP3    H240413   0.370   2.976  17.111 -1.6436 -1.0313 -2.9366
 6308TIP3   OH240414   4.392   0.066   1.107  0.4677  0.1167 -0.0314
 6308TIP3    H140415   4.419   0.100   1.192  1.3654 -1.2814  0.2781
 6308TIP3    H240416   4.428   0.128   1.044 -0.3790  1.2791  0.5760
 6309TIP3   OH240417   2.163   2.101   3.327  0.0010 -0.0999  0.3715
 6309TIP3    H140418   2.187   2.138   3.411 -1.0894 -1.6318  1.4186
 6309TIP3    H240419   2.074   2.069   3.339  0.0395 -0.9215 -1.1680
 6310TIP3   OH240420   6.563   2.365  11.788  0.1576  0.0086 -0.0190
 6310TIP3    H140421   6.530   2.281  11.819  0.3649  0.4064  1.3562
 6310TIP3    H240422   6.627   2.391  11.854 -1.8450  2.5277  1.0764
 6311TIP3   OH240423   2.317   4.780   0.190 -0.0025 -0.8020 -0.1783
 6311TIP3    H140424   2.301   4.742   0.277  0.0060 -0.1916  0.0960
 6311TIP3    H240425   2.282   4.869   0.196  0.4638 -0.5823 -0.6368
 6312TIP3   OH240426   4.196   4.860   4.891  0.5529 -0.2707 -0.1081
 6312TIP3    H140427   4.237   4.778   4.862  2.2822  0.4860  0.0643
 6312TIP3    H240428   4.156   4.838   4.975  1.6896 -0.7685  0.3257
 6313TIP3   OH240429   1.910   0.610  12.573 -0.5677  0.4777 -0.2573
 6313TIP3    H140430   1.996   0.569  12.584 -0.2320  0.9331 -1.1699
 6313TIP3    H240431   1.910   0.683  12.635 -0.2466  0.5579 -0.3512
 6314TIP3   OH240432   3.751   4.867   2.693  0.0657 -0.3977 -0.0913
 6314TIP3    H140433   3.789   4.901   2.773  1.1994 -1.2154 -0.2643
 6314TIP3    H240434   3.785   4.925   2.624 -0.4007 -0.0850 -0.0684
 6315TIP3   OH240435   2.189   4.979  11.770 -0.0621  0.3477 -0.1645
 6315TIP3    H140436   2.182   5.047  11.703  0.1846  0.5764  0.0394
 6315TIP3    H240437   2.123   4.913  11.745 -0.0743  0.5026 -0.5440
 6316TIP3   OH240438   2.218   4.619   0.858  0.3106 -0.7629 -0.3338
 6316TIP3    H140439   2.268   4.548   0.898  1.5152 -0.2137 -0.8402
 6316TIP3    H240440   2.215   4.686   0.926  0.4740 -0.6967 -0.3921
 6317TIP3   OH240441   0.134   2.461   4.735 -0.3178  0.5475  0.1440
 6317TIP3    H140442   0.119   2.461   4.830  1.3188  0.7282  0.4188
 6317TIP3    H240443   0.107   2.549   4.707 -0.5773  0.5759  0.4737
 6318TIP3   OH240444   2.108   1.527  10.742  0.2119  0.3644  0.0266
 6318TIP3    H140445   2.069   1.521  10.829 -0.6514 -0.2448 -0.3852
 6318TIP3    H240446   2.202   1.511  10.757 -0.0710 -0.7910  0.7265
 6319TIP3   OH240447   4.501   4.529   1.379  0.2499 -0.4825 -0.2560
 6319TIP3    H140448   4.516   4.434   1.378  1.9909 -0.2841  1.4882
 6319TIP3    H240449   4.541   4.559   1.460 -0.6150  1.7279 -0.5718
 6320TIP3   OH240450   4.795   1.667  14.913 -0.2732  0.3159  0.0946
 6320TIP3    H140451   4.866   1.644  14.853 -0.6173 -0.4187 -0.0414
 6320TIP3    H240452   4.840   1.699  14.992  0.1877  0.7028 -0.3108
 6321TIP3   OH240453   3.810   3.563  13.984  0.1693  0.8893 -0.3493
 6321TIP3    H140454   3.858   3.512  14.048 -0.5732  0.7180  0.0840
 6321TIP3    H240455   3.826   3.518  13.901  2.0652  1.7550 -0.5140
 6322TIP3   OH240456   5.457   5.269  16.037  0.0012 -0.3819  0.3035
 6322TIP3    H140457   5.365   5.283  16.014 -0.0231 -1.4933 -0.3224
 6322TIP3    H240458   5.492   5.357  16.046 -0.5868  0.0947 -1.6402
 6323TIP3   OH240459   0.169   1.418   4.244 -0.2494 -0.3955 -0.3653
 6323TIP3    H140460   0.210   1.424   4.330 -2.7610 -0.0446  0.9258
 6323TIP3    H240461   0.164   1.508   4.212 -1.0314 -0.2781  0.0489
 6324TIP3   OH240462   1.097   3.977  16.274  0.1150  0.6760  0.7504
 6324TIP3    H140463   1.157   3.977  16.200 -0.5120  1.1782  0.2347
 6324TIP3    H240464   1.105   4.065  16.311  0.0990  0.5686  1.0121
 6325TIP3   OH240465   0.680   1.907   4.532 -0.2901  0.6670  0.4962
 6325TIP3    H140466   0.770   1.938   4.524 -0.6985  2.0907  1.1397
 6325TIP3    H240467   0.656   1.878   4.444 -0.0738  2.7528 -0.2901
 6326TIP3   OH240468   3.473   3.980   1.949 -0.2897 -0.3857  0.0279
 6326TIP3    H140469   3.445   4.027   2.028  1.1920 -0.8131  0.8532
 6326TIP3    H240470   3.545   4.033   1.913  0.6211 -1.3747  0.3217
 6327TIP3   OH240471   4.575   6.378   0.799 -0.5129  0.0250 -0.5796
 6327TIP3    H140472   4.662   6.416   0.792 -1.5425  2.6866 -0.1617
 6327TIP3    H240473   4.569   6.318   0.724  0.5831  2.2273 -2.5638
 6328TIP3   OH240474   4.685   5.036  14.929 -0.7829 -0.3368 -0.4072
 6328TIP3    H140475   4.633   5.115  14.943  0.9195  0.8253 -0.3702
 6328TIP3    H240476   4.716   5.043  14.839  0.3657 -0.3181 -0.0316
 6329TIP3   OH240477   5.283   6.677  17.106 -0.3875  0.4194  0.3337
 6329TIP3    H140478   5.225   6.617  17.059 -0.7857  1.2614 -0.2800
 6329TIP3    H240479   5.353   6.621  17.140 -1.1690 -0.5042  0.4719
 6330TIP3   OH240480   4.725   6.460  13.089  0.8910 -0.3232 -0.3344
 6330TIP3    H140481   4.730   6.376  13.135  0.5640 -0.0291  0.2477
 6330TIP3    H240482   4.642   6.498  13.118  1.0567  0.2229 -0.5674
 6331TIP3   OH240483   3.452   1.176  15.815 -0.6638  0.4435  0.0454
 6331TIP3    H140484   3.541   1.143  15.827 -0.4307  0.3276 -1.7150
 6331TIP3    H240485   3.396   1.104  15.842 -0.3166  1.2038  3.1057
 6332TIP3   OH240486   6.769   5.245   4.940  0.0161  0.1940  0.1758
 6332TIP3    H140487   6.755   5.208   4.853  2.4319  1.7401 -1.0035
 6332TIP3    H240488   6.716   5.325   4.940 -0.3646 -0.0593  0.3079
 6333TIP3   OH240489   1.305   0.068   6.169  0.1859  0.7839  0.5212
 6333TIP3    H140490   1.360   0.074   6.246 -0.1112  2.3063  0.6288
 6333TIP3    H240491   1.217   0.092   6.199 -0.6014 -1.5587  0.3522
 6334TIP3   OH240492   5.720   6.749  16.493 -0.0537 -0.2852  0.4414
 6334TIP3    H140493   5.808   6.780  16.516 -0.3424  0.8116  0.1338
 6334TIP3    H240494   5.695   6.693  16.566  1.7041 -2.3315 -0.4210
 6335TIP3   OH240495   4.305   1.359   6.173 -0.0208  0.5485  0.8614
 6335TIP3    H140496   4.361   1.301   6.225 -0.6238 -0.1643  0.7430
 6335TIP3    H240497   4.316   1.329   6.083  1.2003  1.9350  0.5204
 6336TIP3   OH240498   4.722   2.682   0.521  0.2600  0.5352 -0.1091
 6336TIP3    H140499   4.754   2.681   0.611 -2.1447 -0.6299  0.8350
 6336TIP3    H240500   4.801   2.685   0.467  1.7814  0.9883  2.0143
 6337TIP3   OH240501   1.201   4.215  15.503 -0.9509  0.2852  0.0667
 6337TIP3    H140502   1.154   4.298  15.495 -1.0298  0.1459 -1.1839
 6337TIP3    H240503   1.215   4.187  15.412  0.4674 -0.2849  0.4325
 6338TIP3   OH240504   5.328   4.355  14.653  0.2590  0.2275  0.0878
 6338TIP3    H140505   5.269   4.289  14.690 -1.1648  2.3812  1.9801
 6338TIP3    H240506   5.269   4.419  14.613  1.4714  1.1490 -0.2613
 6339TIP3   OH240507   1.355   6.591   0.305 -0.3358  0.0588 -0.1593
 6339TIP3    H140508   1.353   6.576   0.210 -2.0097 -0.7232 -0.0248
 6339TIP3    H240509   1.276   6.641   0.324  0.2050  0.5820  0.7800
 6340TIP3   OH240510   4.560   3.678   4.328  0.2588 -0.5734 -0.1507
 6340TIP3    H140511   4.468   3.663   4.347 -0.1324  1.4678 -0.2516
 6340TIP3    H240512   4.592   3.593   4.296 -1.0170 -1.9242  1.8846
 6341TIP3   OH240513   5.016   0.188  11.415 -0.3942 -0.0664  0.1826
 6341TIP3    H140514   4.955   0.245  11.462  1.0476  1.4924  0.2656
 6341TIP3    H240515   4.962   0.116  11.383 -2.3370  1.4109 -0.0422
 6342TIP3   OH240516   4.749   2.568  11.414 -0.1521  0.0087  0.0207
 6342TIP3    H140517   4.792   2.606  11.491  1.8649 -1.2839 -0.3859
 6342TIP3    H240518   4.687   2.505  11.451  3.1498 -3.1727  0.8070
 6343TIP3   OH240519   2.989   3.739   2.141  0.1345 -0.0011 -0.1213
 6343TIP3    H140520   3.055   3.790   2.095  0.8118  0.2749  1.1004
 6343TIP3    H240521   2.941   3.802   2.193 -0.4456 -0.3334 -0.2478
 6344TIP3   OH240522   1.872   3.638  16.811  0.3040 -0.2970  0.2717
 6344TIP3    H140523   1.792   3.609  16.855  0.9529 -0.0328  1.6648
 6344TIP3    H240524   1.845   3.650  16.720 -1.2883 -0.0085  0.7394
 6345TIP3   OH240525   1.374   6.085   1.393  0.0933  0.1030 -0.4384
 6345TIP3    H140526   1.333   6.154   1.445  1.8107 -0.0258  1.2004
 6345TIP3    H240527   1.363   6.006   1.446 -1.1233 -0.7716 -1.9079
 6346TIP3   OH240528   5.958   5.042   0.914  0.0315  0.3934  0.4155
 6346TIP3    H140529   5.912   4.996   0.844 -0.4197  1.2143  0.1559
 6346TIP3    H240530   6.026   4.981   0.942  0.2085  0.0442 -0.7305
 6347TIP3   OH240531   1.791   5.952   5.400  0.0817 -0.3925 -0.2550
 6347TIP3    H140532   1.799   6.037   5.444 -0.4579 -0.8225  0.7233
 6347TIP3    H240533   1.833   5.964   5.315  1.2327  0.4588  0.4132
 6348TIP3   OH240534   0.833   0.203   0.998 -0.0581 -0.2904  0.3951
 6348TIP3    H140535   0.818   0.109   0.985 -0.2801 -0.4075  1.4187
 6348TIP3    H240536   0.812   0.243   0.914  3.0536 -1.4915 -1.1028
 6349TIP3   OH240537   0.667   2.024  12.740 -0.3325 -1.0498  0.5090
 6349TIP3    H140538   0.709   2.109  12.726 -0.3521 -0.8038  1.7612
 6349TIP3    H240539   0.693   1.971  12.665  0.7012 -0.3223  0.3335
 6350TIP3   OH240540   2.575   3.923   4.208 -0.2156  0.6199 -0.5462
 6350TIP3    H140541   2.497   3.870   4.223 -0.2633  1.0929  1.0703
 6350TIP3    H240542   2.647   3.870   4.240 -0.1578  1.1217  0.1829
 6351TIP3   OH240543   5.339   4.492  11.378  0.2669 -0.4239 -0.1083
 6351TIP3    H140544   5.270   4.437  11.340  0.3858  0.0858 -1.1130
 6351TIP3    H240545   5.322   4.492  11.472 -0.3793 -1.2846 -0.2149
 6352TIP3   OH240546   4.036   5.548   3.878  0.2011  0.1177  0.2298
 6352TIP3    H140547   4.105   5.544   3.812 -0.2469  0.6360 -0.2878
 6352TIP3    H240548   3.956   5.561   3.827  0.0816  2.7306  0.9445
 6353TIP3   OH240549   4.364   4.046  13.067 -0.4601  0.1704  0.0336
 6353TIP3    H140550   4.367   4.124  13.122 -2.1372 -0.5105  1.1789
 6353TIP3    H240551   4.271   4.032  13.051 -0.1904 -1.5067 -0.2650
 6354TIP3   OH240552   3.061   3.039  16.088 -0.2585 -0.3463 -0.2520
 6354TIP3    H140553   3.095   2.950  16.071  1.7923  0.0009  1.5031
 6354TIP3    H240554   2.970   3.025  16.112 -0.7509 -1.6669 -2.5391
 6355TIP3   OH240555   4.160   4.128   1.446 -0.1870 -0.0376 -0.1533
 6355TIP3    H140556   4.065   4.127   1.438 -0.4672 -2.4466  2.0783
 6355TIP3    H240557   4.184   4.036   1.459  2.4635  0.5144 -0.5068
 6356TIP3   OH240558   2.588   0.713   5.403 -0.0067  0.1049  0.0637
 6356TIP3    H140559   2.557   0.730   5.492  0.6494  1.1340  0.1201
 6356TIP3    H240560   2.654   0.645   5.414  1.6632  1.7230  0.7159
 6357TIP3   OH240561   3.469   4.235   5.660  0.6880 -0.2458  0.3986
 6357TIP3    H140562   3.482   4.306   5.598  1.5364 -1.1964 -0.5370
 6357TIP3    H240563   3.416   4.274   5.730 -2.3963  0.2788 -1.9877
 6358TIP3   OH240564   1.847   4.824  14.249  0.0535  0.2938 -0.0640
 6358TIP3    H140565   1.920   4.779  14.293 -0.8433 -0.9205  0.2253
 6358TIP3    H240566   1.860   4.916  14.271  1.4687  0.0982  0.0324
 6359TIP3   OH240567   2.384   2.074  16.374  0.1384 -0.5531  0.1049
 6359TIP3    H140568   2.354   2.107  16.459  0.6448  1.3561 -0.3913
 6359TIP3    H240569   2.326   2.001  16.354  0.0048 -1.0394  2.0716
 6360TIP3   OH240570   5.738   3.349   4.497 -0.4496  0.2325  0.1984
 6360TIP3    H140571   5.779   3.272   4.536  1.1452  0.5972 -0.6636
 6360TIP3    H240572   5.694   3.393   4.570  1.4842  0.2983  1.3882
 6361TIP3   OH240573   1.517   4.303   0.938  0.4579  0.3846 -0.4828
 6361TIP3    H140574   1.575   4.372   0.968 -0.3250  0.5708  0.6673
 6361TIP3    H240575   1.539   4.228   0.992 -1.6629  1.0130  1.3737
 6362TIP3   OH240576   1.988   1.710  15.078 -0.2095 -0.1180  0.0533
 6362TIP3    H140577   2.006   1.618  15.098  1.3256  0.0619 -0.4257
 6362TIP3    H240578   1.914   1.707  15.018  0.7802 -1.1500 -1.1651
 6363TIP3   OH240579   0.788   5.823   4.327  0.6018  0.0548  0.4926
 6363TIP3    H140580   0.800   5.857   4.238  0.5612  0.1861  0.5374
 6363TIP3    H240581   0.755   5.734   4.315  0.2421  0.2040  0.3799
 6364TIP3   OH240582   0.669   2.334   5.722 -0.1476 -0.4494  0.0295
 6364TIP3    H140583   0.678   2.398   5.793 -0.7013 -0.1955 -0.1260
 6364TIP3    H240584   0.643   2.253   5.766 -1.3853 -0.0623  0.0363
 6365TIP3   OH240585   2.592   2.777   6.104 -0.1049  0.1790 -0.0375
 6365TIP3    H140586   2.607   2.867   6.076 -1.9904 -0.2463 -2.8489
 6365TIP3    H240587   2.655   2.725   6.054 -0.1118 -0.2127  0.3497
 6366TIP3   OH240588   2.120   0.883   6.513 -0.5442  0.3414 -0.2980
 6366TIP3    H140589   2.186   0.831   6.467  0.4584  2.7247 -1.7899
 6366TIP3    H240590   2.043   0.827   6.515  0.7272 -1.5557 -0.8676
 6367TIP3   OH240591   5.701   5.536   4.152 -0.1851 -0.4743  0.5032
 6367TIP3    H140592   5.654   5.517   4.071 -0.8467 -1.7640  1.1432
 6367TIP3    H240593   5.792   5.513   4.133 -0.2448 -0.2692 -0.0338
 6368TIP3   OH240594   2.389   3.589   0.614 -0.0731  0.2843  0.3361
 6368TIP3    H140595   2.465   3.532   0.627  0.2117  0.9823  1.9057
 6368TIP3    H240596   2.335   3.543   0.550  1.1110 -0.7770  0.0630
 6369TIP3   OH240597   1.232   0.129  16.781  0.1607  0.2114  0.1057
 6369TIP3    H140598   1.282   0.132  16.700  2.5476  0.0429  1.4460
 6369TIP3    H240599   1.141   0.139  16.755  0.9903  2.1375 -2.3812
 6370TIP3   OH240600   5.286   0.895  14.316  0.2653 -0.0513  0.3097
 6370TIP3    H140601   5.211   0.853  14.276  0.5327 -0.2777  0.0449
 6370TIP3    H240602   5.316   0.960  14.252  1.5704 -1.3918 -0.5010
 6371TIP3   OH240603   4.796   6.653  12.295 -0.1759  0.4825 -0.6813
 6371TIP3    H140604   4.742   6.598  12.352  0.5910 -0.0682 -0.4656
 6371TIP3    H240605   4.817   6.597  12.220 -0.6427  0.9900 -1.2072
 6372TIP3   OH240606   0.976   1.708   4.259  0.0766 -0.3156 -0.5058
 6372TIP3    H140607   0.913   1.637   4.258  0.6203 -0.8011 -0.9860
 6372TIP3    H240608   0.979   1.737   4.350 -0.7132 -0.3969 -0.4548
 6373TIP3   OH240609   6.476   3.804  15.406  0.4581  0.5830  0.0199
 6373TIP3    H140610   6.430   3.816  15.323 -2.7278  1.2820  1.7194
 6373TIP3    H240611   6.536   3.878  15.411  0.4005  0.7553 -1.4712
 6374TIP3   OH240612   5.033   5.244  11.959  0.1585  0.2364 -0.1776
 6374TIP3    H140613   4.988   5.313  12.008  0.0750  0.5097 -0.6389
 6374TIP3    H240614   4.970   5.172  11.957  0.9790 -0.6488  2.0616
 6375TIP3   OH240615   1.975   2.240   4.829  0.1954 -0.8424 -0.8019
 6375TIP3    H140616   1.956   2.153   4.864  0.1127 -0.4010  0.2954
 6375TIP3    H240617   1.972   2.228   4.734  0.8960 -2.1843 -0.6865
 6376TIP3   OH240618   6.285   2.116   4.381 -0.1539 -0.0575 -0.4359
 6376TIP3    H140619   6.205   2.069   4.405  0.2063 -0.6251 -0.3153
 6376TIP3    H240620   6.355   2.065   4.421  0.3002  0.1961 -0.8970
 6377TIP3   OH240621   2.859   1.438   0.229 -0.8031 -0.6077  0.0655
 6377TIP3    H140622   2.808   1.423   0.149  0.0861  0.5373 -0.7542
 6377TIP3    H240623   2.950   1.428   0.201 -0.4681  0.1471  0.8625
 6378TIP3   OH240624   4.092   4.672   5.359  0.4920  0.8719  0.2973
 6378TIP3    H140625   4.181   4.644   5.338 -0.2558 -0.5654 -1.2320
 6378TIP3    H240626   4.068   4.621   5.436 -0.2605 -1.6673 -1.4922
 6379TIP3   OH240627   1.470   5.297   1.352 -0.4678 -0.6223  0.3588
 6379TIP3    H140628   1.444   5.214   1.313 -0.3572 -0.8337  0.7379
 6379TIP3    H240629   1.554   5.318   1.312 -1.9101  0.9028 -2.1777
 6380TIP3   OH240630   2.616   0.928  11.003 -0.2219  0.2591 -0.7164
 6380TIP3    H140631   2.565   0.978  10.939  1.4074  0.7190 -1.7046
 6380TIP3    H240632   2.576   0.841  11.001 -3.7362  1.5742  1.7194
 6381TIP3   OH240633   4.986   6.276  12.345  0.1273 -0.2481 -0.3755
 6381TIP3    H140634   4.955   6.343  12.406  0.0607 -0.3008 -0.3517
 6381TIP3    H240635   5.026   6.209  12.401 -2.6520 -1.8149 -0.1003
 6382TIP3   OH240636   5.771   3.121   2.743  0.4957 -0.0660  0.0080
 6382TIP3    H140637   5.744   3.039   2.701 -0.8771  1.6821 -2.8268
 6382TIP3    H240638   5.866   3.115   2.750  0.4394 -1.7884 -0.3440
 6383TIP3   OH240639   5.143   6.057   4.238 -0.2813 -0.1113 -0.0888
 6383TIP3    H140640   5.210   6.107   4.192 -1.3648  2.6003  1.0430
 6383TIP3    H240641   5.062   6.074   4.189 -0.8002 -0.1270  0.7358
 6384TIP3   OH240642   5.005   2.234  15.123  0.0809 -0.3776  0.0865
 6384TIP3    H140643   5.094   2.200  15.135  1.0023  1.7262 -0.3646
 6384TIP3    H240644   4.949   2.157  15.135  2.0030 -2.0206 -0.7906
 6385TIP3   OH240645   2.728   1.737   0.832  0.5353 -0.5669  0.1896
 6385TIP3    H140646   2.762   1.705   0.749  2.5948 -1.1791  1.2136
 6385TIP3    H240647   2.739   1.832   0.828  2.1434 -0.7245  0.3579
 6386TIP3   OH240648   0.131   0.398  12.553  0.3189  0.1280 -0.2734
 6386TIP3    H140649   0.204   0.431  12.606  0.0999 -0.7581  0.5950
 6386TIP3    H240650   0.068   0.470  12.551  1.2508  0.9615 -1.1501
 6387TIP3   OH240651   4.614   5.494  12.245  0.3210 -0.3448 -0.8402
 6387TIP3    H140652   4.610   5.589  12.256 -1.0934 -0.5830  1.3105
 6387TIP3    H240653   4.667   5.464  12.319 -1.6551 -1.3994  0.2337
 6388TIP3   OH240654   2.333   6.289   2.591  0.0177  0.4677  0.1852
 6388TIP3    H140655   2.303   6.292   2.682  1.1528  1.5401  0.5521
 6388TIP3    H240656   2.419   6.246   2.595 -1.0258 -1.9083 -0.7553
 6389TIP3   OH240657   2.564   2.196   5.149 -0.6865  0.2226 -0.1961
 6389TIP3    H140658   2.612   2.115   5.161 -0.4348  0.2866 -0.7851
 6389TIP3    H240659   2.497   2.194   5.218  0.1125  0.1095  0.5944
 6390TIP3   OH240660   6.240   0.955  11.542 -0.5463 -0.6231  0.2096
 6390TIP3    H140661   6.145   0.949  11.543 -0.6479  0.2293 -1.2223
 6390TIP3    H240662   6.270   0.869  11.511 -0.9102 -0.5940 -0.2362
 6391TIP3   OH240663   2.515   6.500   1.338  0.0885 -0.5617  0.6297
 6391TIP3    H140664   2.540   6.478   1.428  0.7130  1.5265  1.0196
 6391TIP3    H240665   2.455   6.430   1.313  0.2283 -1.4355  2.5117
 6392TIP3   OH240666   3.536   5.014  11.773 -0.1201 -0.5267  0.8945
 6392TIP3    H140667   3.568   5.062  11.849  0.7746 -1.0898  0.8844
 6392TIP3    H240668   3.557   4.923  11.790 -1.0942 -0.8382  0.5501
 6393TIP3   OH240669   2.756   6.517  11.203 -0.2602 -1.0556  0.1132
 6393TIP3    H140670   2.665   6.495  11.223 -0.3701 -2.7292 -1.9031
 6393TIP3    H240671   2.771   6.479  11.116  1.9594  0.3824 -0.2030
 6394TIP3   OH240672   1.687   2.344  10.761 -0.5607 -0.4419 -0.1899
 6394TIP3    H140673   1.760   2.285  10.746  2.7613  3.2514 -0.0528
 6394TIP3    H240674   1.662   2.374  10.674  1.1124  1.5025 -0.0574
 6395TIP3   OH240675   3.068   2.213  15.169  0.4260 -0.3092  0.2562
 6395TIP3    H140676   3.143   2.239  15.224  0.3350 -0.5947  0.5171
 6395TIP3    H240677   3.007   2.286  15.177 -0.4177 -1.1356  2.0716
 6396TIP3   OH240678   2.766   1.970   1.080 -0.1288 -0.2321 -0.4361
 6396TIP3    H140679   2.742   1.883   1.049  0.2323 -0.8706  0.9526
 6396TIP3    H240680   2.772   1.960   1.175  0.9583  1.0431 -0.3358
 6397TIP3   OH240681   0.872   4.408   0.050  0.2689 -0.1941 -0.6262
 6397TIP3    H140682   0.908   4.342   0.109  0.6840 -0.1444 -0.8164
 6397TIP3    H240683   0.806   4.453   0.102  0.9359  0.1390 -0.0453
 6398TIP3   OH240684   2.522   4.772   1.144  0.3187 -0.2265  0.8854
 6398TIP3    H140685   2.523   4.867   1.134 -1.9658 -0.3415 -1.3060
 6398TIP3    H240686   2.582   4.739   1.078  0.2375 -0.3423  0.8676
 6399TIP3   OH240687   4.691   6.495  11.345 -0.2420 -0.3455 -0.0370
 6399TIP3    H140688   4.777   6.473  11.379  0.0461  1.1950  0.3040
 6399TIP3    H240689   4.678   6.436  11.271  1.3067 -0.2788 -0.3868
 6400TIP3   OH240690   2.125   2.009   1.875  0.0901 -0.4285 -0.1691
 6400TIP3    H140691   2.159   2.024   1.787  1.0402 -1.8607 -0.0791
 6400TIP3    H240692   2.056   1.944   1.864  1.1306 -1.6469  0.2666
 6401TIP3   OH240693   0.986   0.987   2.201  0.4057  0.1272 -0.7204
 6401TIP3    H140694   1.033   0.907   2.175 -0.5981 -0.3066 -1.2447
 6401TIP3    H240695   0.993   1.045   2.125 -0.4690 -0.2070 -1.0728
 6402TIP3   OH240696   5.590   6.621  14.497 -0.5192 -0.1825  0.2723
 6402TIP3    H140697   5.573   6.695  14.438 -0.8912  0.6390  1.3709
 6402TIP3    H240698   5.587   6.659  14.584  0.5505 -1.2738  0.8163
 6403TIP3   OH240699   5.769   2.275   4.601 -0.4873 -0.1100  0.2951
 6403TIP3    H140700   5.745   2.254   4.511 -0.2407  0.1115  0.1780
 6403TIP3    H240701   5.838   2.341   4.593 -0.2522 -0.3105  0.6403
 6404TIP3   OH240702   3.919   0.934  15.927 -0.0585  0.3869 -0.0198
 6404TIP3    H140703   3.904   0.965  16.017  1.1792  1.8239 -0.2579
 6404TIP3    H240704   4.010   0.906  15.927  0.4062  1.7969 -1.1713
 6405TIP3   OH240705   2.196   3.335  16.682  0.1216  0.1562 -0.2209
 6405TIP3    H140706   2.273   3.315  16.629  0.4646  0.7604  0.0406
 6405TIP3    H240707   2.219   3.415  16.729  0.5602 -1.3305  2.2908
 6406TIP3   OH240708   0.720   2.636  11.940 -0.1032  0.2016  0.0068
 6406TIP3    H140709   0.806   2.603  11.914  0.7641  1.1726  1.4922
 6406TIP3    H240710   0.714   2.722  11.897 -0.6913 -0.2123 -0.7506
 6407TIP3   OH240711   1.150   2.777  16.051 -0.0910 -0.4223 -0.2678
 6407TIP3    H140712   1.122   2.823  16.130  2.3051 -0.1473  0.5038
 6407TIP3    H240713   1.112   2.689  16.060  0.5705 -0.5690  1.4945
 6408TIP3   OH240714   5.737   1.665  14.999 -0.2354  0.2681  0.4697
 6408TIP3    H140715   5.775   1.613  15.069  1.4292  1.1667  0.2750
 6408TIP3    H240716   5.647   1.681  15.027 -1.1984 -3.5540  0.0383
 6409TIP3   OH240717   5.921   0.119  12.000  0.2703 -0.1651 -0.5435
 6409TIP3    H140718   5.890   0.184  11.937  0.5029  1.3189  0.7993
 6409TIP3    H240719   5.852   0.115  12.066  1.4018  0.7353  0.7595
 6410TIP3   OH240720   6.455   1.984   2.505  0.0946 -0.1710  0.6711
 6410TIP3    H140721   6.484   1.967   2.595 -0.9622 -1.1256  0.8435
 6410TIP3    H240722   6.436   1.898   2.469  1.0348  0.1564 -0.6774
 6411TIP3   OH240723   0.600   4.622  11.905  0.1359 -0.2184  0.0885
 6411TIP3    H140724   0.508   4.604  11.887 -0.2585  1.5773  0.0544
 6411TIP3    H240725   0.605   4.628  12.001  0.2444 -0.4544  0.0980
 6412TIP3   OH240726   5.082   6.240  17.022  0.8685 -0.5267  0.1552
 6412TIP3    H140727   5.089   6.151  16.987  1.9179 -1.0125  1.5137
 6412TIP3    H240728   5.118   6.233  17.111  1.8187  1.4340 -0.0350
 6413TIP3   OH240729   6.571   2.828   2.139  0.2463 -0.2294  0.0574
 6413TIP3    H140730   6.522   2.757   2.180  1.0337 -0.9990 -0.2771
 6413TIP3    H240731   6.514   2.904   2.146 -2.4346 -1.6845 -3.0872
 6414TIP3   OH240732   4.584   4.806  11.584 -0.2325 -0.0183 -0.0531
 6414TIP3    H140733   4.677   4.829  11.592  0.0126 -0.0187 -2.1969
 6414TIP3    H240734   4.539   4.866  11.643  1.0669  0.5687  0.3728
 6415TIP3   OH240735   6.071   5.482  10.646  0.1008 -0.2911 -0.5187
 6415TIP3    H140736   6.142   5.546  10.640  1.4415 -1.6774  0.0855
 6415TIP3    H240737   6.029   5.502  10.730  1.2909 -0.9316  0.2637
 6416TIP3   OH240738   3.692   2.417  15.136 -0.0235  0.2011  0.1433
 6416TIP3    H140739   3.682   2.331  15.094  0.1985  0.2878 -0.0870
 6416TIP3    H240740   3.664   2.403  15.226  0.8326 -0.3160  0.3329
 6417TIP3   OH240741   0.688   6.720   5.552  0.1504  0.0290 -0.3163
 6417TIP3    H140742   0.653   6.746   5.637  1.1013 -0.4113  0.2342
 6417TIP3    H240743   0.612   6.689   5.503 -0.5497  1.1216  0.0375
 6418TIP3   OH240744   0.268   2.366   1.242 -0.4072 -0.1242  0.2515
 6418TIP3    H140745   0.298   2.343   1.330  0.9710  1.3311  0.2118
 6418TIP3    H240746   0.303   2.454   1.227 -0.8960 -0.2052 -1.6256
 6419TIP3   OH240747   5.349   2.983   5.571 -0.0025 -0.1185 -0.8823
 6419TIP3    H140748   5.308   2.970   5.486 -3.4878  1.8482  0.2850
 6419TIP3    H240749   5.276   2.975   5.634  1.4567  3.0137  1.4764
 6420TIP3   OH240750   2.657   3.259  15.468  0.1500 -0.1759 -0.0641
 6420TIP3    H140751   2.609   3.336  15.438 -1.2475 -0.1141  2.0841
 6420TIP3    H240752   2.589   3.199  15.499  1.3602 -0.4453  2.2993
 6421TIP3   OH240753   6.789   2.029   2.618 -0.2364  0.1973 -0.1936
 6421TIP3    H140754   6.836   2.069   2.691 -1.9408  1.7042  0.1460
 6421TIP3    H240755   6.780   2.099   2.553  0.0805 -0.7396 -1.2820
 6422TIP3   OH240756   2.433   2.805  14.434  0.3070  0.2588 -0.1671
 6422TIP3    H140757   2.492   2.848  14.495  0.5086  2.4366 -1.7915
 6422TIP3    H240758   2.452   2.711  14.444  1.3656  0.6469  1.9721
 6423TIP3   OH240759   6.763   1.377  14.476 -0.5210  0.1983  0.0007
 6423TIP3    H140760   6.856   1.384  14.497 -0.2311  0.7852 -1.3709
 6423TIP3    H240761   6.725   1.458  14.510  0.0345  1.3793 -2.0118
 6424TIP3   OH240762   5.321   2.973  13.356 -0.5920 -0.3733 -0.4746
 6424TIP3    H140763   5.341   3.038  13.425  1.1817  0.1460 -1.4195
 6424TIP3    H240764   5.394   2.911  13.360 -0.4239 -0.2897 -1.9282
 6425TIP3   OH240765   1.490   4.932  16.065 -0.3770  0.0130 -0.3554
 6425TIP3    H140766   1.477   5.005  16.005  0.2046 -0.5145 -1.1352
 6425TIP3    H240767   1.417   4.939  16.127 -0.6492  0.9109 -0.7633
 6426TIP3   OH240768   3.874   0.561  14.594 -0.3035  0.1070 -0.1218
 6426TIP3    H140769   3.839   0.650  14.587  1.0986  0.8375  1.5227
 6426TIP3    H240770   3.854   0.522  14.509 -0.1350  2.2901 -1.2483
 6427TIP3   OH240771   6.236   0.020  13.030  0.3418 -0.1393  0.1810
 6427TIP3    H140772   6.213  -0.072  13.017  0.4209 -0.4073  1.8270
 6427TIP3    H240773   6.198   0.043  13.115  1.7578  0.8734  0.5756
 6428TIP3   OH240774   2.129   6.177  13.431  0.1051  0.5342 -0.2279
 6428TIP3    H140775   2.218   6.142  13.427  0.5693  1.4753  1.1446
 6428TIP3    H240776   2.137   6.258  13.483 -1.9769 -0.8510  2.5095
 6429TIP3   OH240777   3.558   4.871  11.249  0.3003 -0.2411 -0.4342
 6429TIP3    H140778   3.645   4.897  11.279 -0.4520  0.4540  1.2751
 6429TIP3    H240779   3.526   4.810  11.316 -0.5041 -0.5550 -1.0805
 6430TIP3   OH240780   3.555   3.678   1.066 -0.2877  0.3442 -0.1135
 6430TIP3    H140781   3.528   3.703   0.977  0.2244  0.3986 -0.2574
 6430TIP3    H240782   3.645   3.646   1.056  0.2686  1.5862  0.5745
 6431TIP3   OH240783   1.547   6.399   0.072  0.0588 -0.1150  0.0541
 6431TIP3    H140784   1.569   6.347  -0.006  1.5263 -0.9783  1.0090
 6431TIP3    H240785   1.559   6.490   0.044  4.2335 -0.4240  0.1609
 6432TIP3   OH240786   0.497   5.272  15.021  0.0664  0.1897 -0.3166
 6432TIP3    H140787   0.404   5.273  15.042 -0.0327  1.7751 -0.6881
 6432TIP3    H240788   0.532   5.196  15.067 -1.5132 -0.7672 -0.6485
 6433TIP3   OH240789   0.326   3.664   2.470 -0.5995  0.3085 -0.1609
 6433TIP3    H140790   0.325   3.743   2.416 -0.6644 -0.6143 -1.5652
 6433TIP3    H240791   0.238   3.659   2.507 -0.1565  1.6784  1.1897
 6434TIP3   OH240792   1.781   3.599   6.545  0.6339 -0.1900  0.2948
 6434TIP3    H140793   1.808   3.525   6.598 -0.1073 -0.3919  0.3981
 6434TIP3    H240794   1.692   3.578   6.516  1.2192 -0.3614 -1.5309
 6435TIP3   OH240795   0.092   3.718  13.009  0.4394 -0.1035 -0.0734
 6435TIP3    H140796   0.030   3.710  12.936  1.0692  0.0582 -0.6356
 6435TIP3    H240797   0.100   3.812  13.023 -1.5362 -0.1431  1.8398
 6436TIP3   OH240798   1.950   3.039   3.401  0.0591  0.3668 -0.2679
 6436TIP3    H140799   1.916   3.026   3.312 -1.3130  1.1153  0.1051
 6436TIP3    H240800   1.917   2.965   3.451  3.1595 -1.6134 -0.9075
 6437TIP3   OH240801   5.169   2.636  13.575 -0.5845  0.5358 -0.6523
 6437TIP3    H140802   5.118   2.711  13.606 -1.2146 -0.8548  1.8698
 6437TIP3    H240803   5.103   2.571  13.551 -0.0072  0.2673 -1.5812
 6438TIP3   OH240804   2.869   4.711  13.041  0.1359  0.6440 -0.0875
 6438TIP3    H140805   2.851   4.787  13.097 -2.0677  1.2700 -1.5098
 6438TIP3    H240806   2.959   4.685  13.064  0.2219  2.3929  1.8912
 6439TIP3   OH240807   3.833   1.368  11.716 -0.5873 -0.2685  0.1790
 6439TIP3    H140808   3.749   1.327  11.698 -1.8016  2.5789 -1.2416
 6439TIP3    H240809   3.812   1.450  11.760  1.5219  0.0336  0.7678
 6440TIP3   OH240810   1.523   1.977  16.945 -0.3089  0.8673  0.2410
 6440TIP3    H140811   1.458   2.044  16.922  0.6170  2.1284  1.1105
 6440TIP3    H240812   1.599   1.997  16.891 -1.1549 -1.6982 -2.1084
 6441TIP3   OH240813   6.650   3.479  15.036  0.3655 -0.5848  0.1347
 6441TIP3    H140814   6.659   3.494  14.942  1.8487 -1.4395  0.1111
 6441TIP3    H240815   6.556   3.463  15.050  0.2917 -1.6445 -1.3824
 6442TIP3   OH240816   6.304   6.034   6.552 -0.0419  1.0144 -0.2594
 6442TIP3    H140817   6.272   6.004   6.466  0.6545  1.4225 -0.6702
 6442TIP3    H240818   6.313   5.954   6.603  0.3009  0.6783 -0.8335
 6443TIP3   OH240819   3.384   5.588  11.525  0.3452  0.0698  0.8673
 6443TIP3    H140820   3.348   5.613  11.440  1.3900  0.1864  0.4423
 6443TIP3    H240821   3.410   5.671  11.565 -1.0668  0.1093  1.7472
 6444TIP3   OH240822   3.965   3.273  11.348 -0.3988 -0.0323  0.2594
 6444TIP3    H140823   3.887   3.248  11.397 -1.9336  0.8755 -1.5883
 6444TIP3    H240824   3.931   3.315  11.269  1.9683  0.0361 -0.7993
 6445TIP3   OH240825   2.159   2.647   1.052  0.1517  0.1173  0.3974
 6445TIP3    H140826   2.093   2.688   0.996 -0.4766  0.9850  1.7089
 6445TIP3    H240827   2.147   2.553   1.039 -1.1530  0.2631  0.3598
 6446TIP3   OH240828   1.522   0.880   2.680  0.4032 -0.0826 -0.2260
 6446TIP3    H140829   1.594   0.934   2.712 -0.3927 -0.2326  1.9336
 6446TIP3    H240830   1.465   0.940   2.632  1.0739  0.3696 -0.4615
 6447TIP3   OH240831   3.000   0.038  15.083 -0.1092  0.4055 -0.5948
 6447TIP3    H140832   3.075   0.094  15.106 -2.4731  3.1709  1.1829
 6447TIP3    H240833   2.933   0.100  15.053 -2.3145 -1.6867 -0.2769
 6448TIP3   OH240834   3.214   4.017   0.831 -0.1670  0.4984  0.6694
 6448TIP3    H140835   3.276   3.985   0.766 -0.6823  1.0220 -0.1053
 6448TIP3    H240836   3.268   4.066   0.893  0.4115 -0.5040  0.9915
 6449TIP3   OH240837   5.747   0.026  15.802  0.2751  0.5632  0.1326
 6449TIP3    H140838   5.739  -0.050  15.744 -0.5395  0.1834  0.7402
 6449TIP3    H240839   5.658   0.058  15.813  0.3272  0.2009  1.7489
 6450TIP3   OH240840   5.290   5.533  12.770 -0.0902  0.4989 -0.0149
 6450TIP3    H140841   5.233   5.471  12.816  0.5528  0.7397  1.1471
 6450TIP3    H240842   5.371   5.534  12.821  0.0701  1.9675 -0.2529
 6451TIP3   OH240843   3.976   2.681  12.964  0.3517  0.3810  0.2037
 6451TIP3    H140844   3.893   2.708  13.003  0.1439 -0.7722  0.5862
 6451TIP3    H240845   3.962   2.693  12.870 -0.8843 -1.3810  0.1103
 6452TIP3   OH240846   5.499   3.219   0.080  0.1941  0.0419 -0.0631
 6452TIP3    H140847   5.511   3.213  -0.014 -3.0093  2.5344 -0.8457
 6452TIP3    H240848   5.549   3.296   0.106 -0.2375  0.3207 -0.0526
 6453TIP3   OH240849   1.749   5.684  13.829  0.6057 -0.4079  0.6225
 6453TIP3    H140850   1.674   5.711  13.882  0.8933  1.2212  0.2356
 6453TIP3    H240851   1.710   5.648  13.749  0.2075 -1.7769  1.3861
 6454TIP3   OH240852   0.921   4.219   0.970 -0.3069  0.2211 -0.0932
 6454TIP3    H140853   0.857   4.278   0.932  0.9215  0.3605 -2.1133
 6454TIP3    H240854   0.931   4.149   0.905  0.7755 -0.3523  0.6528
 6455TIP3   OH240855   3.190   6.417  12.933 -0.0453 -0.4411  0.3315
 6455TIP3    H140856   3.162   6.327  12.915  1.0127 -0.8048  0.4562
 6455TIP3    H240857   3.271   6.428  12.883  0.2111  0.2041  0.8693
 6456TIP3   OH240858   5.106   6.594  16.373  0.9911 -0.2509  0.1197
 6456TIP3    H140859   5.051   6.640  16.436  0.2598 -1.8613  0.7080
 6456TIP3    H240860   5.153   6.529  16.425  1.1676 -0.9059 -0.8363
 6457TIP3   OH240861   4.531   2.429   4.698  0.7649  0.3945  0.2863
 6457TIP3    H140862   4.496   2.456   4.783  0.1411 -0.8404  0.4500
 6457TIP3    H240863   4.543   2.511   4.649  1.2550  1.1326  1.5967
 6458TIP3   OH240864   4.247   6.560  11.756  0.2465  0.5441  0.3248
 6458TIP3    H140865   4.207   6.524  11.677  1.3836  0.9982 -0.4964
 6458TIP3    H240866   4.237   6.492  11.822 -0.3004 -0.0374 -0.3523
 6459TIP3   OH240867   0.128   0.535  13.158 -0.5826 -0.4330  0.5015
 6459TIP3    H140868   0.203   0.536  13.217  0.2131 -0.4339 -0.4686
 6459TIP3    H240869   0.073   0.607  13.188  1.2197  1.4796 -0.4705
 6460TIP3   OH240870   1.117   1.354   1.369  1.3172  0.1357 -0.3985
 6460TIP3    H140871   1.063   1.433   1.371 -0.0501 -0.6968  3.4930
 6460TIP3    H240872   1.095   1.311   1.286 -3.5828  0.2470  0.5974
 6461TIP3   OH240873   5.118   2.032   2.546  0.5286  0.3768  0.6225
 6461TIP3    H140874   5.113   2.012   2.453  0.1969 -2.8352  1.2336
 6461TIP3    H240875   5.210   2.056   2.561  0.2702  2.4282 -0.7085
 6462TIP3   OH240876   4.375   4.458   3.830  0.6083 -0.2575  0.0619
 6462TIP3    H140877   4.381   4.495   3.918  1.3220 -2.0862  0.8306
 6462TIP3    H240878   4.325   4.523   3.780 -0.0864  0.6830  1.8804
 6463TIP3   OH240879   4.365   1.207   3.873 -0.4239  0.2222  0.4157
 6463TIP3    H140880   4.361   1.123   3.826  0.4259  0.0238  0.6771
 6463TIP3    H240881   4.419   1.263   3.817 -1.7013  0.8869 -0.1798
 6464TIP3   OH240882   4.604   1.111   1.519  0.1270 -0.0798  0.2536
 6464TIP3    H140883   4.638   1.200   1.533  1.8049 -0.1396 -2.6394
 6464TIP3    H240884   4.558   1.116   1.435 -0.2424 -1.8407  0.3124
 6465TIP3   OH240885   1.157   6.435  15.233 -0.1633 -0.4871  0.1353
 6465TIP3    H140886   1.158   6.389  15.149  0.5181  1.0477 -0.7472
 6465TIP3    H240887   1.098   6.384  15.288 -0.1121 -1.8952 -1.0654
 6466TIP3   OH240888   5.906   2.820  13.349  0.3180 -0.5031  0.0959
 6466TIP3    H140889   5.816   2.790  13.361  0.5255 -0.7936  0.9333
 6466TIP3    H240890   5.960   2.747  13.377  0.8616 -1.2885 -2.6767
 6467TIP3   OH240891   2.605   0.124  13.596  0.7391  0.2393 -0.3010
 6467TIP3    H140892   2.689   0.170  13.592  1.4324 -0.9577 -0.0798
 6467TIP3    H240893   2.539   0.194  13.594  1.7547  1.2936  0.9158
 6468TIP3   OH240894   5.930   3.612  14.070 -0.3301 -0.0193  0.4491
 6468TIP3    H140895   6.019   3.648  14.062 -0.3963  0.8881  2.8995
 6468TIP3    H240896   5.945   3.521  14.097 -0.1735 -0.3926 -0.8347
 6469TIP3   OH240897   5.132   2.308  13.939  1.0393 -0.0775  0.7105
 6469TIP3    H140898   5.192   2.267  13.878 -1.1070 -2.0876 -0.2054
 6469TIP3    H240899   5.051   2.321  13.889 -0.1341  0.1271  2.5522
 6470TIP3   OH240900   6.262   1.222   5.994 -0.2636 -0.2100 -0.2422
 6470TIP3    H140901   6.229   1.143   6.038  1.4345 -0.6749  0.2875
 6470TIP3    H240902   6.293   1.278   6.065  0.5623 -0.0337 -0.7274
 6471TIP3   OH240903   3.675   3.417   2.670  0.6251  0.3978 -0.0662
 6471TIP3    H140904   3.650   3.465   2.749 -0.2915 -3.9086  2.6527
 6471TIP3    H240905   3.771   3.422   2.668  0.5327  2.9260 -0.4612
 6472TIP3   OH240906   2.974   0.891   4.954  0.1348 -0.3985 -0.2632
 6472TIP3    H140907   2.907   0.935   4.903  1.6254  1.0383 -1.0824
 6472TIP3    H240908   2.926   0.828   5.008 -1.9066  1.0587 -0.2799
 6473TIP3   OH240909   1.149   4.699  16.715 -0.0851 -0.1931  0.2326
 6473TIP3    H140910   1.149   4.717  16.809 -2.5155  0.9004  0.1132
 6473TIP3    H240911   1.178   4.781  16.675 -0.1692 -0.2816 -0.0120
 6474TIP3   OH240912   4.430   4.817   1.889  0.3854  0.2740  0.0175
 6474TIP3    H140913   4.406   4.854   1.973  0.2961 -1.4613  0.8076
 6474TIP3    H240914   4.525   4.810   1.892  0.3361 -0.4086  0.2790
 6475TIP3   OH240915   1.300   5.922   2.363  0.3633  0.7736  0.1713
 6475TIP3    H140916   1.342   5.903   2.447  1.2989  0.6576 -0.3120
 6475TIP3    H240917   1.306   5.841   2.313 -0.6279  0.6901  0.1554
 6476TIP3   OH240918   2.203   3.626  11.448  0.2401 -0.0353  0.2172
 6476TIP3    H140919   2.118   3.603  11.411 -0.2185  0.8848  0.6614
 6476TIP3    H240920   2.190   3.713  11.485  1.5831  0.4516 -0.3905
 6477TIP3   OH240921   6.825   4.178  10.643 -1.0989  0.3275 -0.0484
 6477TIP3    H140922   6.895   4.174  10.708 -1.0667  1.0429 -0.0394
 6477TIP3    H240923   6.798   4.270  10.641 -0.3804  0.5266 -1.8236
 6478TIP3   OH240924   5.384   2.000   0.005 -0.5623  0.4148 -0.3304
 6478TIP3    H140925   5.436   2.064   0.054 -0.1267  1.8172 -2.4974
 6478TIP3    H240926   5.426   1.997  -0.081 -2.2943 -0.6881 -1.1750
 6479TIP3   OH240927   3.558   2.852  14.158  0.1638  0.0603  0.1599
 6479TIP3    H140928   3.527   2.805  14.235 -0.5126  1.3627  0.7056
 6479TIP3    H240929   3.513   2.810  14.084  0.6709 -1.0620  0.4620
 6480TIP3   OH240930   1.306   3.573   5.836 -0.3833 -0.4380  0.2662
 6480TIP3    H140931   1.308   3.577   5.932 -0.6745  1.9075  0.2314
 6480TIP3    H240932   1.246   3.501   5.817 -0.0240 -1.2028  1.8247
 6481TIP3   OH240933   3.969   1.945   1.926  0.4123 -0.1490  0.2750
 6481TIP3    H140934   4.011   2.024   1.961 -1.1247  1.0950 -0.5834
 6481TIP3    H240935   4.030   1.913   1.860  0.5081  1.0476 -0.2470
 6482TIP3   OH240936   0.776   1.726  16.663 -0.3970 -0.0173 -0.7119
 6482TIP3    H140937   0.845   1.792  16.663  0.5286 -0.8935 -2.5647
 6482TIP3    H240938   0.790   1.678  16.581 -0.6622 -2.8761  0.8094
 6483TIP3   OH240939   5.615   3.214  13.520  0.2224  0.0023  0.2892
 6483TIP3    H140940   5.699   3.252  13.545  0.9956 -0.6767 -1.1698
 6483TIP3    H240941   5.633   3.166  13.439 -1.7256  0.4244 -0.4467
 6484TIP3   OH240942   0.801   4.509  13.000 -0.3870 -0.1830 -0.1245
 6484TIP3    H140943   0.896   4.519  12.996 -0.5247  0.9242 -1.2237
 6484TIP3    H240944   0.771   4.530  12.912 -1.5952 -1.3317 -0.0202
 6485TIP3   OH240945   0.947   0.419   0.233 -0.1142 -0.0342 -0.1714
 6485TIP3    H140946   0.895   0.362   0.177 -0.5865  0.3569 -0.1373
 6485TIP3    H240947   0.935   0.382   0.321 -1.0032  0.5257 -0.0423
 6486TIP3   OH240948   5.138   3.616  16.693 -0.9036  0.3282 -0.2887
 6486TIP3    H140949   5.110   3.557  16.623  0.1402  1.3615 -1.6303
 6486TIP3    H240950   5.187   3.560  16.753 -0.9040 -0.3967 -0.9395
 6487TIP3   OH240951   6.802   1.297  11.280 -0.4983  1.1138  0.0432
 6487TIP3    H140952   6.834   1.215  11.316 -1.8966  0.7756  0.5913
 6487TIP3    H240953   6.749   1.271  11.205 -0.9598  1.5072  0.2280
 6488TIP3   OH240954   4.886   2.353  11.314 -0.2438 -0.5011  0.2449
 6488TIP3    H140955   4.877   2.448  11.303  3.0032 -0.3171 -1.9918
 6488TIP3    H240956   4.832   2.316  11.244 -1.2544 -0.3783  0.9225
 6489TIP3   OH240957   1.012   3.008  11.446 -0.2821 -0.0689 -0.5142
 6489TIP3    H140958   1.004   3.018  11.352  2.2421  0.6213 -0.7354
 6489TIP3    H240959   1.055   3.089  11.476 -1.0264 -0.2639  1.2243
 6490TIP3   OH240960   3.356   4.337  11.466 -0.6503  0.3685 -0.3016
 6490TIP3    H140961   3.281   4.285  11.436 -1.2533  0.4612  0.9776
 6490TIP3    H240962   3.326   4.428  11.459 -2.1710  0.3679  3.6902
 6491TIP3   OH240963   1.733   1.714  11.229  0.2576 -0.2490 -0.2498
 6491TIP3    H140964   1.800   1.775  11.199 -1.7793  1.9318 -0.5938
 6491TIP3    H240965   1.769   1.627  11.208  2.3338  0.8711 -1.6782
 6492TIP3   OH240966   3.919   2.408  16.166  0.4801 -0.3702  0.2117
 6492TIP3    H140967   3.928   2.497  16.132 -0.2167  0.3048  1.7008
 6492TIP3    H240968   3.930   2.352  16.089 -1.0672  1.0512 -1.1463
 6493TIP3   OH240969   2.743   4.377  13.081  0.0861 -0.1031  0.3515
 6493TIP3    H140970   2.785   4.305  13.128  0.5388  0.5517  0.9676
 6493TIP3    H240971   2.693   4.424  13.148 -1.3818 -0.6711 -0.3054
 6494TIP3   OH240972   2.700   4.414   1.035  0.0019 -0.6509 -0.1466
 6494TIP3    H140973   2.604   4.419   1.033  0.0243 -0.0707  0.0449
 6494TIP3    H240974   2.718   4.330   1.077 -0.4200 -1.3860 -1.3793
 6495TIP3   OH240975   4.585   1.527   5.468  0.0253 -0.5990  0.3417
 6495TIP3    H140976   4.629   1.587   5.407 -1.4487  1.4137  1.1606
 6495TIP3    H240977   4.519   1.483   5.414 -0.1841 -0.0415  0.1401
 6496TIP3   OH240978   4.028   1.698  16.019  0.0570  0.0414  0.0694
 6496TIP3    H140979   3.991   1.654  15.942  3.3522 -0.8541 -1.1544
 6496TIP3    H240980   4.055   1.784  15.986 -0.9956  0.7440  0.9740
 6497TIP3   OH240981   5.531   4.389  17.081  0.1159  0.0275 -0.1760
 6497TIP3    H140982   5.495   4.415  17.166  0.9892  0.1917  0.1552
 6497TIP3    H240983   5.500   4.456  17.020 -0.3217  0.0352  0.0494
 6498TIP3   OH240984   6.288   3.773   0.443  0.1932 -0.1421 -0.1247
 6498TIP3    H140985   6.257   3.683   0.441 -0.1929 -0.0097 -0.7755
 6498TIP3    H240986   6.379   3.768   0.414 -1.1550  0.0938 -5.7208
 6499TIP3   OH240987   5.145   2.798  14.532 -0.2339 -0.5071 -0.3741
 6499TIP3    H140988   5.153   2.764  14.621  1.0318  0.4516 -0.0909
 6499TIP3    H240989   5.102   2.883  14.543  1.8831  0.6245 -0.3944
 6500TIP3   OH240990   2.677   6.238   3.312  0.0813  0.1328  0.0292
 6500TIP3    H140991   2.609   6.274   3.369 -0.3973 -1.5671  0.6056
 6500TIP3    H240992   2.754   6.232   3.368  0.4834  1.2396 -0.3779
 6501TIP3   OH240993   3.689   5.358   4.027 -0.1180 -0.0150  0.3093
 6501TIP3    H140994   3.602   5.394   4.012 -0.6649 -1.4489 -0.1344
 6501TIP3    H240995   3.722   5.405   4.104 -1.0723  0.8871  0.1862
 6502TIP3   OH240996   4.612   3.641   0.295  0.3158  0.0112  0.4357
 6502TIP3    H140997   4.628   3.621   0.387 -0.1852 -2.5089  0.0513
 6502TIP3    H240998   4.698   3.669   0.262  0.6888  0.1502  1.4852
 6503TIP3   OH240999   0.873   2.203   0.599 -0.1147  0.1155  0.3924
 6503TIP3    H141000   0.896   2.204   0.506 -0.3336 -0.8433  0.3215
 6503TIP3    H241001   0.940   2.150   0.641 -1.0888 -1.1145  0.4676
 6504TIP3   OH241002   3.321   1.602  10.196  0.1335  0.0772  0.0846
 6504TIP3    H141003   3.307   1.641  10.282 -0.0992  0.8403 -0.2840
 6504TIP3    H241004   3.409   1.629  10.171 -0.0803  0.4934 -0.2322
 6505TIP3   OH241005   1.495   3.376   5.301 -0.1897  0.1134 -0.0039
 6505TIP3    H141006   1.508   3.281   5.309  0.5063  0.1679 -0.3951
 6505TIP3    H241007   1.419   3.395   5.356 -0.3438 -0.6744  0.0628
 6506TIP3   OH241008   0.754   3.844  13.459  0.7303  0.3575 -0.7590
 6506TIP3    H141009   0.763   3.868  13.551 -1.3706 -1.0409 -0.1050
 6506TIP3    H241010   0.843   3.846  13.425  1.9966 -1.6819  2.0140
 6507TIP3   OH241011   0.150   1.438  16.328  0.0312  0.1354  0.1420
 6507TIP3    H141012   0.063   1.460  16.295  1.8407  1.1973 -4.8328
 6507TIP3    H241013   0.167   1.503  16.397 -2.2368  1.3823 -0.3894
 6508TIP3   OH241014   4.833   0.076  12.216  0.1165  0.0769 -0.5409
 6508TIP3    H141015   4.812  -0.017  12.225 -0.3163  0.0657 -1.5059
 6508TIP3    H241016   4.922   0.077  12.182  0.7479  0.0700  1.0176
 6509TIP3   OH241017   5.367   2.779  13.948  0.3934 -0.0626  0.1776
 6509TIP3    H141018   5.353   2.688  13.976  1.8093 -0.4676 -0.3729
 6509TIP3    H241019   5.396   2.824  14.027  0.2467 -0.2179  0.3219
 6510TIP3   OH241020   4.961   5.168  13.859 -0.1274  0.0522 -0.0146
 6510TIP3    H141021   4.866   5.172  13.862 -0.1633 -0.2285 -0.6519
 6510TIP3    H241022   4.982   5.164  13.765  0.5230  0.4873  0.1064
 6511TIP3   OH241023   3.067   2.943   6.424 -0.0857 -0.0184 -0.0270
 6511TIP3    H141024   3.082   2.850   6.406 -1.0705  0.0231 -1.2202
 6511TIP3    H241025   2.983   2.945   6.469 -0.7287  0.3713 -1.2074
 6512TIP3   OH241026   0.102   2.370  13.617  0.1025  0.4467  0.3422
 6512TIP3    H141027   0.105   2.383  13.712 -0.1345  1.2655  0.2431
 6512TIP3    H241028   0.042   2.297  13.604  0.8885 -0.3107  0.8776
 6513TIP3   OH241029   0.126   5.705   3.728 -0.6708  0.3988  0.6293
 6513TIP3    H141030   0.112   5.799   3.736  0.5982  0.6331  0.3033
 6513TIP3    H241031   0.165   5.679   3.812  0.9906  0.5843 -0.0433
 6514TIP3   OH241032   1.768   6.317   3.890  0.2583  0.4245 -0.3318
 6514TIP3    H141033   1.763   6.237   3.837 -0.3720  1.2909 -1.6221
 6514TIP3    H241034   1.837   6.298   3.954  0.7577 -0.8163 -1.1873
 6515TIP3   OH241035   5.823   2.732   3.067 -0.2314 -0.4274 -0.6876
 6515TIP3    H141036   5.875   2.769   3.139 -0.9338 -0.4334 -0.1709
 6515TIP3    H241037   5.738   2.775   3.075 -0.4662 -0.7921 -1.2214
 6516TIP3   OH241038   5.164   1.292  11.673  0.0956  0.1617 -0.7041
 6516TIP3    H141039   5.193   1.382  11.656  2.3986 -0.8201 -2.3281
 6516TIP3    H241040   5.228   1.257  11.734 -0.7192 -0.4412 -0.1720
 6517TIP3   OH241041   5.722   1.699  11.803 -0.4666  0.4327 -0.0885
 6517TIP3    H141042   5.726   1.776  11.860  0.4027 -1.3977  2.4988
 6517TIP3    H241043   5.798   1.646  11.830 -1.1956 -1.4698 -1.5765
 6518TIP3   OH241044   2.017   2.288  16.579 -0.0401 -0.4101 -0.5756
 6518TIP3    H141045   2.062   2.287  16.494  1.6352 -2.3420  0.2250
 6518TIP3    H241046   1.965   2.208  16.579 -1.1182  0.2746 -0.2841
 6519TIP3   OH241047   6.518   3.023  13.438 -0.8026 -0.4812 -0.4238
 6519TIP3    H141048   6.559   2.984  13.361  0.0133 -2.4789  0.9442
 6519TIP3    H241049   6.592   3.046  13.495 -1.4344 -2.6258  1.3913
 6520TIP3   OH241050   5.620   5.598   2.782  0.7318  0.5640 -0.0272
 6520TIP3    H141051   5.556   5.654   2.827  1.4830 -0.3649  2.3616
 6520TIP3    H241052   5.704   5.627   2.816  1.4136  0.1648 -1.3169
 6521TIP3   OH241053   4.885   3.127  12.995 -0.2769 -0.0887 -0.2236
 6521TIP3    H141054   4.903   3.132  12.901  0.7731 -0.0500 -0.0380
 6521TIP3    H241055   4.950   3.065  13.028 -0.5796 -0.0315  0.4920
 6522TIP3   OH241056   3.159   2.659   3.280  0.2253  0.0821 -0.2006
 6522TIP3    H141057   3.114   2.694   3.357  1.2293 -0.3845  0.6278
 6522TIP3    H241058   3.126   2.570   3.271  1.1660 -0.3705  0.5988
 6523TIP3   OH241059   4.473   0.312   3.684  0.2806 -0.0347 -0.0078
 6523TIP3    H141060   4.523   0.240   3.722 -0.2488 -1.1837 -1.3930
 6523TIP3    H241061   4.383   0.297   3.712 -0.1030 -0.8485 -1.5421
 6524TIP3   OH241062   1.303   4.553   0.195  0.3826 -0.1100 -0.0955
 6524TIP3    H141063   1.349   4.634   0.216 -0.0610  0.2961 -0.6766
 6524TIP3    H241064   1.244   4.576   0.124 -1.4760 -0.3727  1.2937
 6525TIP3   OH241065   5.090   2.705  12.141  0.1303 -0.1900  0.7162
 6525TIP3    H141066   5.044   2.648  12.203  0.6979 -0.8573  0.5296
 6525TIP3    H241067   5.135   2.645  12.082 -1.1377  0.3990 -0.9273
 6526TIP3   OH241068   5.318   1.447  16.710 -0.4653  0.3534 -0.5403
 6526TIP3    H141069   5.232   1.404  16.707 -0.6334  0.5240  1.0227
 6526TIP3    H241070   5.309   1.512  16.779  1.7902 -1.5768  1.7363
 6527TIP3   OH241071   0.030   0.156  12.427  0.3947  0.4238 -0.4319
 6527TIP3    H141072   0.066   0.147  12.339  1.5334  0.5668  0.0042
 6527TIP3    H241073   0.083   0.224  12.468  0.4725 -0.2642  0.6621
 6528TIP3   OH241074   1.070   0.721   1.442 -0.1568 -0.3098 -0.2132
 6528TIP3    H141075   1.116   0.766   1.513  0.6063  0.0449 -0.9097
 6528TIP3    H241076   1.130   0.728   1.367 -1.8081  1.1740 -1.4730
 6529TIP3   OH241077   2.800   5.318  16.288  0.6412 -0.5324  0.1157
 6529TIP3    H141078   2.724   5.279  16.244  0.6414 -0.5076  0.0916
 6529TIP3    H241079   2.872   5.305  16.226  0.4416  0.3561 -0.3265
 6530TIP3   OH241080   2.595   1.120  13.385  0.0291 -0.0868 -0.3894
 6530TIP3    H141081   2.501   1.107  13.371 -0.0131  0.3252 -0.4827
 6530TIP3    H241082   2.629   1.032  13.402 -0.3552 -0.2504 -0.4684
 6531TIP3   OH241083   2.368   6.040   3.271  0.5457  0.0416 -0.3156
 6531TIP3    H141084   2.358   6.056   3.178  0.6533  1.8220 -0.0536
 6531TIP3    H241085   2.453   5.996   3.279  0.9318  0.6459 -0.9942
 6532TIP3   OH241086   5.294   6.807  10.471  0.0678  0.1668  0.1790
 6532TIP3    H141087   5.257   6.870  10.409 -0.1768 -0.3821 -0.2436
 6532TIP3    H241088   5.367   6.853  10.511  1.4371 -0.0959 -1.8795
 6533TIP3   OH241089   2.546   3.586  16.632  0.2279  0.0227 -0.1532
 6533TIP3    H141090   2.499   3.639  16.567  0.3665  0.2450 -0.0726
 6533TIP3    H241091   2.611   3.537  16.581  0.5402  0.4261 -0.1435
 6534TIP3   OH241092   6.358   0.391  15.139 -0.1374 -0.4252 -0.3765
 6534TIP3    H141093   6.445   0.395  15.101  0.1867  2.3021  0.4095
 6534TIP3    H241094   6.318   0.475  15.116 -0.6151  0.6150  3.5312
 6535TIP3   OH241095   5.710   1.171  15.114  0.1065  0.3817  0.1669
 6535TIP3    H141096   5.668   1.207  15.192 -1.1814  0.4491 -0.5329
 6535TIP3    H241097   5.685   1.079  15.112  1.5845 -0.0577  0.7609
 6536TIP3   OH241098   0.226   3.958  11.729  0.3810 -0.1453  0.1271
 6536TIP3    H141099   0.176   4.036  11.708 -0.9839 -1.3343 -1.2632
 6536TIP3    H241100   0.237   3.912  11.646  0.5446 -1.7737  0.9929
 6537TIP3   OH241101   5.649   0.476   1.092  0.5029  0.0377 -0.4077
 6537TIP3    H141102   5.558   0.476   1.122  0.5299 -0.9900 -0.2900
 6537TIP3    H241103   5.699   0.438   1.164  1.0175  0.4920 -0.5131
 6538TIP3   OH241104   4.673   1.921  13.796 -0.2811  0.1650  0.6133
 6538TIP3    H141105   4.676   1.833  13.757 -0.9132 -0.3684  1.7391
 6538TIP3    H241106   4.627   1.974  13.731 -0.4294 -0.4722  0.1878
 6539TIP3   OH241107   3.516   3.484   0.462 -0.4084  0.0911 -0.1983
 6539TIP3    H141108   3.434   3.532   0.470  0.0826  0.8619  0.2625
 6539TIP3    H241109   3.584   3.549   0.474  0.3097 -0.3167 -1.8253
 6540TIP3   OH241110   0.095   4.585   4.155  0.0736  0.3062  0.3463
 6540TIP3    H141111   0.025   4.645   4.130  0.9260  0.6358 -1.3351
 6540TIP3    H241112   0.066   4.500   4.123  2.0023  1.0026 -3.8809
 6541TIP3   OH241113   1.559   5.071   5.681 -0.0653  0.5031 -0.1435
 6541TIP3    H141114   1.562   5.113   5.594  1.1373 -1.8112 -1.3054
 6541TIP3    H241115   1.615   5.127   5.736 -1.6520  2.5721 -0.5285
 6542TIP3   OH241116   3.195   1.912   1.037 -0.4571  0.0045  0.4080
 6542TIP3    H141117   3.152   1.829   1.054  0.2116 -0.6245 -0.8436
 6542TIP3    H241118   3.207   1.951   1.124  0.3580 -1.7789  1.1318
 6543TIP3   OH241119   6.684   3.934  10.438 -0.4106 -0.5333 -0.0972
 6543TIP3    H141120   6.722   3.984  10.365 -1.5308 -1.5167 -1.4142
 6543TIP3    H241121   6.730   3.850  10.436  0.6260 -0.0217  1.3417
 6544TIP3   OH241122   2.449   1.654  12.446  0.3506 -0.4494 -0.3438
 6544TIP3    H141123   2.389   1.727  12.427  1.2699  0.3360 -0.3119
 6544TIP3    H241124   2.532   1.681  12.409  0.9294 -1.1123  0.4295
 6545TIP3   OH241125   5.795   2.499   4.064 -0.0847  0.3639  0.6674
 6545TIP3    H141126   5.849   2.577   4.076  0.2867  0.8218 -2.9488
 6545TIP3    H241127   5.707   2.534   4.046  0.2856  0.0930 -1.9480
 6546TIP3   OH241128   2.334   5.358   1.360 -0.9309 -0.7817 -0.1637
 6546TIP3    H141129   2.345   5.336   1.453 -0.3093 -0.6075 -0.1908
 6546TIP3    H241130   2.416   5.331   1.320 -0.3428  1.0588 -0.2984
 6547TIP3   OH241131   6.695   0.595   0.908  0.4559  0.5040 -1.0874
 6547TIP3    H141132   6.730   0.509   0.930 -0.5897  0.6856  1.5595
 6547TIP3    H241133   6.667   0.586   0.816  1.9611 -1.3882 -1.4256
 6548TIP3   OH241134   2.094   2.915   5.932 -0.0154 -0.3388 -0.2585
 6548TIP3    H141135   2.095   2.936   6.025 -3.7316 -1.2172  0.1610
 6548TIP3    H241136   2.058   2.993   5.890 -0.4347 -0.7111 -0.6086
 6549TIP3   OH241137   1.682   6.109  14.249 -0.1760 -0.7977  0.2350
 6549TIP3    H141138   1.727   6.043  14.198  0.1067 -0.2396 -0.2466
 6549TIP3    H241139   1.658   6.177  14.186 -0.6345 -0.5320  0.6856
 6550TIP3   OH241140   4.671   4.270   0.171 -0.7696 -0.1472  0.4823
 6550TIP3    H141141   4.648   4.328   0.099 -0.8766  0.4294  0.9700
 6550TIP3    H241142   4.587   4.230   0.197 -0.3438 -2.6650 -1.6208
 6551TIP3   OH241143   6.097   2.151  16.379 -0.2101 -0.5081  0.6111
 6551TIP3    H141144   6.056   2.210  16.442 -2.6162 -0.2832 -1.0080
 6551TIP3    H241145   6.152   2.208  16.325 -0.2115 -0.2652  0.8645
 6552TIP3   OH241146   5.248   3.197  12.468  0.0741  0.3035  0.3794
 6552TIP3    H141147   5.254   3.118  12.414 -1.7834 -1.8684  3.0949
 6552TIP3    H241148   5.328   3.196  12.520 -0.6090 -0.7128  1.4644
 6553TIP3   OH241149   5.001   2.513   2.438  0.1668  0.1522  0.3094
 6553TIP3    H141150   5.049   2.594   2.423  0.3240 -0.0264 -0.1994
 6553TIP3    H241151   5.041   2.451   2.377 -0.3908 -0.1260  0.2250
 6554TIP3   OH241152   5.532   6.531   1.379 -0.8183 -0.0667 -0.0610
 6554TIP3    H141153   5.577   6.599   1.429  0.2581  0.8570 -2.1713
 6554TIP3    H241154   5.444   6.566   1.365 -0.1779  1.1357 -1.4153
 6555TIP3   OH241155   5.641   2.304   0.280 -0.1491  0.0522  0.1979
 6555TIP3    H141156   5.662   2.387   0.323 -0.7649  0.2490  0.1223
 6555TIP3    H241157   5.564   2.323   0.226  0.1344 -0.3911 -0.3742
 6556TIP3   OH241158   2.864   6.260   0.602 -0.0401  0.4947 -0.5611
 6556TIP3    H141159   2.888   6.351   0.584 -2.2459  1.2833  0.1039
 6556TIP3    H241160   2.788   6.266   0.661 -1.2464 -1.7145 -1.7275
 6557TIP3   OH241161   4.866   1.106   0.132  0.0830  0.1108  0.2165
 6557TIP3    H141162   4.914   1.166   0.190 -1.0248  0.7046  0.5414
 6557TIP3    H241163   4.821   1.164   0.071 -0.4174 -0.4311  0.0743
 6558TIP3   OH241164   6.004   1.986  11.338  0.0412 -0.1505 -0.0881
 6558TIP3    H141165   6.055   1.946  11.268  0.1120  2.8969 -1.9635
 6558TIP3    H241166   5.951   1.914  11.374  2.3071 -2.4517 -1.0907
 6559TIP3   OH241167   0.074   5.139  11.489 -0.4855 -0.4436  0.6127
 6559TIP3    H141168   0.049   5.090  11.568  1.2767 -0.8367  0.9676
 6559TIP3    H241169   0.079   5.072  11.421 -1.1131 -0.2525  0.3797
 6560TIP3   OH241170   0.351   5.895  12.779 -0.2777 -0.3943  0.4804
 6560TIP3    H141171   0.430   5.932  12.740 -1.8076  0.0435 -2.5323
 6560TIP3    H241172   0.359   5.801  12.764  0.6967 -0.6827  2.4155
 6561TIP3   OH241173   5.232   2.519  12.563  0.4965 -0.4132 -0.2917
 6561TIP3    H141174   5.306   2.558  12.518  0.8011  0.8232  1.1907
 6561TIP3    H241175   5.221   2.572  12.642 -0.1867 -2.2788  0.9452
 6562TIP3   OH241176   2.831   4.145  12.817  0.4937  0.4984  0.5506
 6562TIP3    H141177   2.883   4.203  12.762  1.4993 -1.5051 -0.7170
 6562TIP3    H241178   2.742   4.153  12.783  0.9640 -0.1105 -0.9054
 6563TIP3   OH241179   3.080   3.199  17.108 -0.7167 -0.6447 -0.4477
 6563TIP3    H141180   3.103   3.292  17.111 -0.7598 -0.6240 -0.7156
 6563TIP3    H241181   2.988   3.197  17.082 -0.5111 -0.7833 -1.1825
 6564TIP3   OH241182   5.873   3.782   1.542 -0.6048 -0.5159  0.3889
 6564TIP3    H141183   5.947   3.829   1.580 -0.4304 -1.4516  1.2768
 6564TIP3    H241184   5.799   3.843   1.547  0.6958  1.6790 -3.4512
 6565TIP3   OH241185   0.956   2.097  14.203 -0.4249  0.1044  0.3590
 6565TIP3    H141186   0.962   2.139  14.117 -0.3257 -0.3117  0.1563
 6565TIP3    H241187   0.903   2.018  14.187  0.3776 -0.4721  0.4768
 6566TIP3   OH241188   0.125   6.525  11.844 -0.2302  0.2142 -0.5189
 6566TIP3    H141189   0.213   6.518  11.881 -0.6696 -1.3475  0.3806
 6566TIP3    H241190   0.101   6.434  11.823 -1.6849  0.5706 -0.5357
 6567TIP3   OH241191   6.541   1.238   2.269  0.1906  0.1013 -0.2347
 6567TIP3    H141192   6.532   1.149   2.303 -1.9944 -0.8086 -2.8559
 6567TIP3    H241193   6.636   1.254   2.267  0.5852 -1.7824  1.1483
 6568TIP3   OH241194   5.894   5.037  17.130 -0.1485  0.1632 -0.3142
 6568TIP3    H141195   5.916   5.118  17.176  0.6248 -0.7896  1.0797
 6568TIP3    H241196   5.868   5.065  17.043  0.0969  1.9091  0.1363
 6569TIP3   OH241197   5.991   5.177  12.622  0.0860 -0.1061  0.1240
 6569TIP3    H141198   6.030   5.135  12.546  0.1070  0.8386 -0.4106
 6569TIP3    H241199   5.953   5.106  12.673 -2.3967 -0.5951 -2.1533
 6570TIP3   OH241200   3.736   2.269   6.359  0.0059 -0.2693 -0.2351
 6570TIP3    H141201   3.817   2.224   6.332 -0.7642 -2.0409  0.2358
 6570TIP3    H241202   3.722   2.335   6.292  1.8179  0.0433 -0.3586
 6571TIP3   OH241203   6.456   5.367   5.157 -0.2462  0.2204 -1.1213
 6571TIP3    H141204   6.433   5.412   5.238 -0.7023 -0.7217 -0.7119
 6571TIP3    H241205   6.414   5.419   5.088 -0.0794  0.8731 -0.7455
 6572TIP3   OH241206   0.755   4.570  12.686 -0.0636  0.2844 -0.3413
 6572TIP3    H141207   0.687   4.505  12.671 -0.1598  0.3159 -0.0536
 6572TIP3    H241208   0.708   4.654  12.686 -0.2895  0.1936  1.4690
 6573TIP3   OH241209   3.937   1.801   5.367 -0.6627  0.2420 -0.2451
 6573TIP3    H141210   3.913   1.747   5.443  0.0471 -0.6108 -0.6068
 6573TIP3    H241211   3.897   1.886   5.385  0.0523  0.2641  1.4152
 6574TIP3   OH241212   1.024   5.966   4.386 -0.4036 -0.0621 -0.2217
 6574TIP3    H141213   1.106   5.947   4.340  0.4904  1.0793  0.8102
 6574TIP3    H241214   0.987   5.881   4.406  0.8553 -0.6298 -0.1981
 6575TIP3   OH241215   6.463   4.639  16.880  0.1600  0.3321 -0.0361
 6575TIP3    H141216   6.407   4.570  16.914  0.0932 -0.3353 -1.4306
 6575TIP3    H241217   6.480   4.695  16.955 -0.5971 -0.6495  0.9004
 6576TIP3   OH241218   2.991   1.026  15.586 -0.0882  0.7348 -0.2980
 6576TIP3    H141219   2.899   1.031  15.612  0.0778  1.5249  0.1599
 6576TIP3    H241220   2.993   0.961  15.516 -0.7996 -0.2785  0.5827
 6577TIP3   OH241221   0.935   2.420  15.554 -0.1272 -0.1613 -0.3717
 6577TIP3    H141222   0.989   2.374  15.617 -0.9417  0.2594  0.6582
 6577TIP3    H241223   0.907   2.352  15.492  2.7339 -0.1482 -1.8478
 6578TIP3   OH241224   2.934   0.696  13.845  0.2509  0.2694  0.5428
 6578TIP3    H141225   2.844   0.671  13.824 -0.2442  1.7037  0.8396
 6578TIP3    H241226   2.966   0.625  13.902  0.4793 -1.9595 -2.1255
 6579TIP3   OH241227   5.876   2.240  17.128  0.4391  0.8075 -0.4079
 6579TIP3    H141228   5.926   2.319  17.145  0.4341  1.3107 -2.4860
 6579TIP3    H241229   5.937   2.168  17.144  0.8731  1.2864  0.0996
 6580TIP3   OH241230   5.639   2.716  16.758 -0.4025  0.0912 -0.3730
 6580TIP3    H141231   5.574   2.646  16.771  1.7284 -1.9639 -0.0292
 6580TIP3    H241232   5.632   2.738  16.665 -1.6896  0.0668 -0.3084
 6581TIP3   OH241233   3.519   2.351   2.710  0.1582  0.0438 -0.1760
 6581TIP3    H141234   3.571   2.360   2.630  0.5431  2.3464  0.2457
 6581TIP3    H241235   3.479   2.437   2.722 -0.6883 -0.5451  1.5898
 6582TIP3   OH241236   1.418   5.026   2.858 -0.1539  0.2032  0.5404
 6582TIP3    H141237   1.484   5.061   2.798 -1.3887 -0.8410 -1.5368
 6582TIP3    H241238   1.402   5.097   2.920  1.1556  1.3476 -0.3655
 6583TIP3   OH241239   1.279   0.851   4.615 -0.0447  0.2487 -0.5607
 6583TIP3    H141240   1.184   0.844   4.608 -0.1637  1.5366 -0.4011
 6583TIP3    H241241   1.307   0.763   4.638 -1.3945  0.2719  1.3921
 6584TIP3   OH241242   6.755   0.068   6.130  0.5979 -0.0268 -0.0076
 6584TIP3    H141243   6.744  -0.020   6.165 -1.4570  0.6136  1.1188
 6584TIP3    H241244   6.668   0.093   6.098  0.9803  1.7885  0.2353
 6585TIP3   OH241245   4.900   0.795  11.880 -0.2478  0.0575 -0.4564
 6585TIP3    H141246   4.868   0.879  11.846 -0.7023 -1.1630 -3.3892
 6585TIP3    H241247   4.992   0.792  11.853 -0.0792 -0.1611  0.1335
 6586TIP3   OH241248   0.015   0.412   2.672  0.2285  0.1015 -0.0289
 6586TIP3    H141249  -0.072   0.380   2.697 -0.8910  2.7439 -0.2267
 6586TIP3    H241250   0.057   0.433   2.756  0.7839 -1.3249  0.0754
 6587TIP3   OH241251   5.668   6.838   5.250  0.3826 -0.1227  0.3472
 6587TIP3    H141252   5.747   6.860   5.299  0.9715 -1.1274 -0.1181
 6587TIP3    H241253   5.618   6.920   5.247  2.3149  1.1123 -1.0591
 6588TIP3   OH241254   6.670   0.539   0.183  0.4790  0.3498 -0.2117
 6588TIP3    H141255   6.631   0.624   0.163  1.1188  0.8958  0.7670
 6588TIP3    H241256   6.605   0.475   0.155  0.6688  1.0786 -2.5287
 6589TIP3   OH241257   5.377   3.892   4.363  0.1691  0.0827  0.1600
 6589TIP3    H141258   5.458   3.885   4.414 -1.0054 -1.7284  1.8958
 6589TIP3    H241259   5.357   3.803   4.336  0.2470  0.8389 -2.8628
 6590TIP3   OH241260   6.817   0.539  14.344 -0.3672  0.5755  0.2183
 6590TIP3    H141261   6.744   0.589  14.309 -1.8015 -1.8203 -0.4124
 6590TIP3    H241262   6.868   0.513  14.267 -0.2949  0.0811  0.4288
 6591TIP3   OH241263   0.236   3.057  16.229 -0.6338  0.2336 -0.4656
 6591TIP3    H141264   0.261   3.090  16.315  0.5032  3.5556 -1.8710
 6591TIP3    H241265   0.144   3.082  16.220 -1.0733 -1.0932  0.1415
 6592TIP3   OH241266   5.397   5.831   3.959 -0.2731 -0.0204  0.3863
 6592TIP3    H141267   5.405   5.739   3.983  0.0297  0.1298  0.8743
 6592TIP3    H241268   5.487   5.863   3.957 -0.3558  0.1886 -0.0981
 6593TIP3   OH241269   5.450   0.620  16.269  0.2196  1.1441  0.6436
 6593TIP3    H141270   5.363   0.653  16.248  0.6684  2.4430  0.7262
 6593TIP3    H241271   5.489   0.689  16.323 -0.1085 -1.1070  4.0106
 6594TIP3   OH241272   3.902   1.711   0.991 -0.7090  0.2250  0.7156
 6594TIP3    H141273   3.861   1.797   0.994  0.6840  0.9455  0.0245
 6594TIP3    H241274   3.977   1.717   1.049  2.3775  1.2051 -2.9506
 6595TIP3   OH241275   1.420   1.448  13.770  0.4338  0.5791  0.2490
 6595TIP3    H141276   1.385   1.467  13.683  0.2299  0.4391  0.2986
 6595TIP3    H241277   1.455   1.531  13.801  1.8385  0.3163 -0.5626
 6596TIP3   OH241278   4.177   2.442   4.560  0.3248 -0.1732  0.1359
 6596TIP3    H141279   4.117   2.391   4.507 -1.1156  0.8173  0.7324
 6596TIP3    H241280   4.131   2.454   4.644  2.3100 -1.2801  1.4734
 6597TIP3   OH241281   5.821   2.762   4.088  0.3097 -0.4004 -0.2327
 6597TIP3    H141282   5.788   2.776   4.000  1.7090  0.0642 -0.7202
 6597TIP3    H241283   5.781   2.831   4.141  0.5245  0.1782 -0.8105
 6598TIP3   OH241284   0.718   5.546  12.482 -0.9707  0.2312  0.2851
 6598TIP3    H141285   0.691   5.524  12.571 -0.2623 -1.2625  0.1642
 6598TIP3    H241286   0.740   5.461  12.442  0.0021  1.0013 -0.8792
 6599TIP3   OH241287   2.983   0.763  14.970  0.8649  0.1716 -0.5547
 6599TIP3    H141288   2.994   0.668  14.972 -0.1436  0.0334 -0.8420
 6599TIP3    H241289   3.047   0.793  14.906  0.8018 -0.3743 -0.8816
 6600TIP3   OH241290   1.095   1.923  10.974 -0.0361 -0.2520 -0.7376
 6600TIP3    H141291   1.004   1.924  10.942 -0.1190  0.8064 -0.5060
 6600TIP3    H241292   1.087   1.928  11.069  0.2670  0.0075 -0.7240
 6601TIP3   OH241293   6.012   5.149   5.618 -0.3178  0.4034 -0.6927
 6601TIP3    H141294   6.009   5.125   5.525  1.5012  0.3086 -0.7443
 6601TIP3    H241295   6.008   5.244   5.618  2.0786  0.5493 -1.0417
 6602TIP3   OH241296   1.672   1.396   4.849  0.3365  0.1713  0.6052
 6602TIP3    H141297   1.728   1.471   4.863  0.9757  0.1509 -1.4390
 6602TIP3    H241298   1.732   1.325   4.824 -0.4476 -0.2143 -0.2875
 6603TIP3   OH241299   2.921   1.451   5.468 -0.5315  0.7715 -0.0054
 6603TIP3    H141300   2.975   1.404   5.404 -0.5216  0.7424  0.0240
 6603TIP3    H241301   2.834   1.411   5.460 -0.4795  0.6261  0.1443
 6604TIP3   OH241302   4.154   1.223   2.905  0.4428 -0.1991 -0.4117
 6604TIP3    H141303   4.134   1.183   2.820  1.3103 -0.0217 -0.7122
 6604TIP3    H241304   4.249   1.231   2.905  0.3394  1.1854 -0.0411
 6605TIP3   OH241305   5.768   5.815   1.849 -0.4556  0.0686  0.2728
 6605TIP3    H141306   5.769   5.904   1.884 -0.3110 -0.2814  1.1858
 6605TIP3    H241307   5.697   5.815   1.784  0.3089  1.1566 -0.6091
 6606TIP3   OH241308   6.023   4.083  15.217  0.5475  0.0350 -0.4849
 6606TIP3    H141309   6.061   4.087  15.129  1.9084  0.5484  0.0923
 6606TIP3    H241310   5.986   4.170  15.231  0.0492 -0.1455 -0.6598
 6607TIP3   OH241311   1.912   0.242  15.353 -0.0686 -0.1716 -0.0061
 6607TIP3    H141312   1.900   0.178  15.424 -0.2824  0.0611  0.1678
 6607TIP3    H241313   1.858   0.317  15.378 -1.4509 -0.7147 -1.2101
 6608TIP3   OH241314   3.515   6.136  16.684 -0.8211 -0.1754  0.1741
 6608TIP3    H141315   3.469   6.199  16.629  0.1404  0.9267  0.5998
 6608TIP3    H241316   3.595   6.181  16.712 -1.1935 -0.7356  2.3662
 6609TIP3   OH241317   2.959   4.332  10.915 -0.3407 -0.0161 -0.7400
 6609TIP3    H141318   2.899   4.337  10.990  1.1446 -0.7111  0.5617
 6609TIP3    H241319   2.904   4.348  10.839 -1.6485  2.3811  0.5861
 6610TIP3   OH241320   5.383   5.850  13.878 -0.7520 -0.1732 -0.1618
 6610TIP3    H141321   5.421   5.859  13.791 -1.9845  1.5566 -0.5657
 6610TIP3    H241322   5.451   5.808  13.930  0.1838 -0.8028 -1.8231
 6611TIP3   OH241323   5.324   6.045   0.289 -0.4065  0.0656 -0.5554
 6611TIP3    H141324   5.410   6.055   0.331 -0.9767  0.6112  0.5253
 6611TIP3    H241325   5.261   6.068   0.357 -1.3669  1.5625 -1.8769
 6612TIP3   OH241326   6.103   6.279  11.662  0.2314  0.8852  0.3712
 6612TIP3    H141327   6.090   6.190  11.630 -2.0939  0.5185  2.0581
 6612TIP3    H241328   6.085   6.274  11.756 -0.3114  3.1930  0.4655
 6613TIP3   OH241329   2.098   3.997  11.702 -0.4806  0.8980  0.2602
 6613TIP3    H141330   2.187   4.011  11.670  0.0532 -2.9993 -0.5099
 6613TIP3    H241331   2.104   4.011  11.796  0.9903  0.6968  0.2210
 6614TIP3   OH241332   4.128   4.925  16.403 -0.1266 -0.2197  0.0623
 6614TIP3    H141333   4.204   4.966  16.363 -1.3945 -0.3645 -2.6724
 6614TIP3    H241334   4.065   4.996  16.414 -0.9766 -0.7163 -1.3071
 6615TIP3   OH241335   1.268   3.122  12.534 -0.0296  0.1366 -0.2180
 6615TIP3    H141336   1.256   3.104  12.627 -0.5992  1.3023 -0.0553
 6615TIP3    H241337   1.194   3.177  12.510 -0.4567 -0.9742 -1.6137
 6616TIP3   OH241338   4.761   0.131   3.011  0.5225 -0.4452  0.0682
 6616TIP3    H141339   4.791   0.098   2.926 -0.7801  0.7930 -0.9429
 6616TIP3    H241340   4.724   0.055   3.055 -4.0937 -0.3636 -2.9399
 6617TIP3   OH241341   4.696   5.185   3.340  0.7466  0.2152  0.5949
 6617TIP3    H141342   4.686   5.191   3.245  0.3115  1.4368  0.7029
 6617TIP3    H241343   4.720   5.093   3.356 -1.1261 -0.5225 -0.5255
 6618TIP3   OH241344   6.715   5.499   4.910 -0.2447 -0.0914 -0.2898
 6618TIP3    H141345   6.700   5.520   5.003 -0.6919 -1.1315 -0.1193
 6618TIP3    H241346   6.667   5.568   4.863  1.3918  1.4655  0.2133
 6619TIP3   OH241347   4.056   3.218  13.880 -0.3736  0.5004 -0.0062
 6619TIP3    H141348   4.109   3.139  13.870 -1.0489  0.1174 -0.6632
 6619TIP3    H241349   4.112   3.278  13.930  0.2638 -0.2732  0.2402
 6620TIP3   OH241350   5.303   5.563   3.639 -0.1413  0.0831  0.2060
 6620TIP3    H141351   5.394   5.547   3.615 -0.6703 -2.3880 -0.4624
 6620TIP3    H241352   5.290   5.657   3.623  2.2342  0.4704  0.2400
 6621TIP3   OH241353   2.176   2.716   0.251  0.6966  0.6825 -0.1815
 6621TIP3    H141354   2.265   2.690   0.274  1.2829  1.9131 -0.9736
 6621TIP3    H241355   2.184   2.805   0.217 -1.2350  2.0619  2.5297
 6622TIP3   OH241356   3.508   2.697  13.218 -0.1651 -0.1343  0.2956
 6622TIP3    H141357   3.563   2.620  13.205  0.7855  0.6324 -0.4273
 6622TIP3    H241358   3.509   2.713  13.313  1.5740  0.3477  0.2205
 6623TIP3   OH241359   1.271   2.156   5.549 -0.5515  0.1600  0.1468
 6623TIP3    H141360   1.314   2.206   5.480 -0.3282 -0.4669 -0.1711
 6623TIP3    H241361   1.340   2.143   5.615 -0.3526 -0.5302 -0.1964
 6624TIP3   OH241362   4.767   6.732  13.573 -0.4747  0.0498 -0.8275
 6624TIP3    H141363   4.837   6.682  13.616 -1.7398 -0.6723  0.4892
 6624TIP3    H241364   4.690   6.676  13.580 -1.4782  1.3496 -1.0912
 6625TIP3   OH241365   1.961   5.974  10.612  0.1227  0.1031  0.3587
 6625TIP3    H141366   1.966   5.885  10.577  0.0005  0.6465 -1.1030
 6625TIP3    H241367   1.868   5.986  10.635 -0.4108  0.6814 -1.8428
 6626TIP3   OH241368   6.813   4.264   5.225  0.0899 -0.0609  0.2476
 6626TIP3    H141369   6.800   4.307   5.141  0.8078 -1.3203 -0.5325
 6626TIP3    H241370   6.847   4.333   5.282  1.9553  0.2877 -1.1782
 6627TIP3   OH241371   5.713   5.957  14.622 -0.5696  0.2930 -0.3913
 6627TIP3    H141372   5.684   6.013  14.694  0.8737  1.3602 -0.5881
 6627TIP3    H241373   5.663   5.985  14.546  0.2937  1.5090 -0.5352
 6628TIP3   OH241374   5.480   6.671   2.163 -0.3964 -0.2389 -0.1908
 6628TIP3    H141375   5.533   6.679   2.083 -0.1236  1.1972  0.1210
 6628TIP3    H241376   5.513   6.739   2.221 -2.4102  0.5226  0.1127
 6629TIP3   OH241377   2.902   5.631  16.155 -0.2268 -0.2901  0.5028
 6629TIP3    H141378   2.988   5.621  16.113 -1.0096 -0.5591 -1.1058
 6629TIP3    H241379   2.871   5.541  16.166 -1.3255 -0.1608 -1.1909
 6630TIP3   OH241380   0.620   2.676  15.145  0.0076  0.2770 -0.0814
 6630TIP3    H141381   0.552   2.744  15.146  0.3216  0.5976 -0.4782
 6630TIP3    H241382   0.682   2.705  15.078  0.3770 -0.1751  0.0650
 6631TIP3   OH241383   4.252   1.786   2.622 -0.3555 -0.5239 -0.4774
 6631TIP3    H141384   4.280   1.878   2.626 -1.1081 -0.2283 -1.5545
 6631TIP3    H241385   4.161   1.788   2.650  0.2483 -1.2987  1.7345
 6632TIP3   OH241386   0.442   2.320   3.645 -0.2602  0.1878  0.3870
 6632TIP3    H141387   0.503   2.391   3.626 -0.2108  0.6769  2.2175
 6632TIP3    H241388   0.400   2.302   3.561  1.2391  0.9195 -0.5728
 6633TIP3   OH241389   4.183   3.689  12.493  0.0348  0.0227 -0.7037
 6633TIP3    H141390   4.099   3.653  12.467 -0.8599  1.8060 -0.4353
 6633TIP3    H241391   4.237   3.612  12.513 -1.7279 -1.1466 -0.1977
 6634TIP3   OH241392   6.511   3.173  16.129  0.5700 -0.5717  0.0998
 6634TIP3    H141393   6.579   3.126  16.081  0.3188  0.1774 -1.0123
 6634TIP3    H241394   6.548   3.260  16.142  0.2016 -0.4508  0.3476
 6635TIP3   OH241395   5.974   5.894  15.907 -0.6204  0.3314  0.4692
 6635TIP3    H141396   6.012   5.980  15.891 -1.8674  0.8573  0.2194
 6635TIP3    H241397   6.022   5.835  15.849 -1.9262  1.4283 -1.8383
 6636TIP3   OH241398   6.390   3.724  11.995 -0.1090  0.2860  0.0660
 6636TIP3    H141399   6.368   3.752  12.084 -0.2284  0.4559 -0.0146
 6636TIP3    H241400   6.338   3.645  11.981 -0.2361  0.3657  0.0810
 6637TIP3   OH241401   3.145   6.690  12.861  0.0532 -0.4275  1.0874
 6637TIP3    H141402   3.141   6.596  12.841 -1.1282 -0.3723  0.9952
 6637TIP3    H241403   3.082   6.702  12.932 -1.3482  0.6180 -0.2606
 6638TIP3   OH241404   0.310   0.866  10.158 -0.2849 -0.7486 -0.4651
 6638TIP3    H141405   0.343   0.897  10.075  0.1628  2.1541  0.6843
 6638TIP3    H241406   0.378   0.890  10.222 -1.5029 -1.0204  0.9963
 6639TIP3   OH241407   5.163   1.170   6.478  0.2390  1.0192  0.1097
 6639TIP3    H141408   5.080   1.204   6.511 -0.0844  1.6971 -1.3315
 6639TIP3    H241409   5.229   1.213   6.532 -0.3323  0.1531  1.5510
 6640TIP3   OH241410   0.427   1.650  13.216  0.5609  0.2053 -0.0467
 6640TIP3    H141411   0.493   1.614  13.157 -0.4169 -0.9576 -0.4870
 6640TIP3    H241412   0.396   1.729  13.173  0.1765 -0.3895 -0.8828
 6641TIP3   OH241413   0.072   5.704  13.102 -0.6588  0.4548  0.2722
 6641TIP3    H141414   0.002   5.717  13.037 -1.9789 -1.0367  1.3188
 6641TIP3    H241415   0.031   5.729  13.185  0.3819  0.4997  0.7794
 6642TIP3   OH241416   3.190   2.439  14.919  0.4645 -0.0655 -0.1894
 6642TIP3    H141417   3.113   2.431  14.862  0.1239 -1.9821  0.4746
 6642TIP3    H241418   3.164   2.504  14.984 -0.4761 -0.4173 -0.1864
 6643TIP3   OH241419   0.417   0.820   0.421 -0.3712  0.4561  0.4057
 6643TIP3    H141420   0.341   0.793   0.370  1.5675 -1.0523 -1.9133
 6643TIP3    H241421   0.410   0.770   0.503 -2.1049  0.7574  0.4786
 6644TIP3   OH241422   5.438   2.493  10.916 -0.4020 -0.5892 -0.2016
 6644TIP3    H141423   5.432   2.398  10.918 -0.4228 -0.5911 -0.3156
 6644TIP3    H241424   5.484   2.512  10.834  1.1087 -0.5689  0.6154
 6645TIP3   OH241425   2.456   5.442   4.593 -0.4018 -0.5149 -0.2375
 6645TIP3    H141426   2.464   5.400   4.679  2.0628 -1.3629 -0.7968
 6645TIP3    H241427   2.516   5.517   4.599 -2.9384  1.6322 -0.0684
 6646TIP3   OH241428   3.764   0.435   4.316  0.4196  0.3520 -0.5012
 6646TIP3    H141429   3.726   0.396   4.238  2.4511  0.0885 -1.4232
 6646TIP3    H241430   3.775   0.362   4.377  1.0076  0.1152 -0.8862
 6647TIP3   OH241431   4.333   4.540   5.616  0.0524 -0.0672  0.7660
 6647TIP3    H141432   4.252   4.496   5.590  1.3131 -0.8361 -2.1485
 6647TIP3    H241433   4.303   4.617   5.665 -2.4902  0.1695 -0.9812
 6648TIP3   OH241434   5.917   5.790   0.947 -0.5578  0.3268  0.1340
 6648TIP3    H141435   5.880   5.819   0.864  2.1771  2.4113 -0.4959
 6648TIP3    H241436   5.953   5.703   0.929 -0.0659  0.7235 -0.8710
 6649TIP3   OH241437   2.041   3.180   0.335 -0.0574  0.5537 -0.1341
 6649TIP3    H141438   2.031   3.267   0.372  3.0294  0.7238  0.5814
 6649TIP3    H241439   2.117   3.143   0.380  0.3065 -1.5214 -2.2319
 6650TIP3   OH241440   2.109   0.573   5.131  0.2238  0.5436 -0.4700
 6650TIP3    H141441   2.182   0.575   5.192  2.6000  0.6834 -3.1111
 6650TIP3    H241442   2.082   0.664   5.122  1.0426  0.7549 -0.8964
 6651TIP3   OH241443   1.008   0.928   4.545 -0.1660  0.5371  0.4378
 6651TIP3    H141444   0.934   0.944   4.487  0.7070  1.1402 -0.5529
 6651TIP3    H241445   0.977   0.954   4.631 -0.7547  1.8775 -0.1471
 6652TIP3   OH241446   5.772   2.756  16.484  0.2008  0.1675 -0.3496
 6652TIP3    H141447   5.813   2.690  16.428 -2.4170 -1.5498 -0.4347
 6652TIP3    H241448   5.844   2.810  16.514  2.4716 -2.4478 -0.6676
 6653TIP3   OH241449   4.187   5.012  12.901 -0.2938 -0.1283  0.7156
 6653TIP3    H141450   4.188   5.108  12.901  1.6524 -0.1046  1.2678
 6653TIP3    H241451   4.094   4.989  12.901 -0.8086  1.7591  1.3290
 6654TIP3   OH241452   4.141   2.745   5.259 -0.2772  0.2079 -0.2105
 6654TIP3    H141453   4.162   2.659   5.294  3.2726  0.8577 -0.2840
 6654TIP3    H241454   4.198   2.805   5.308 -0.4890  2.1067 -2.1121
 6655TIP3   OH241455   3.016   5.916  12.288 -0.0811 -0.3934  0.8187
 6655TIP3    H141456   2.930   5.894  12.325 -1.5579  1.8728 -0.9185
 6655TIP3    H241457   3.018   5.870  12.204 -0.3491  0.7557  0.1481
 6656TIP3   OH241458   1.244   1.219  11.182  0.6580 -0.5672  0.0813
 6656TIP3    H141459   1.278   1.309  11.188  0.2444 -0.0773 -2.9395
 6656TIP3    H241460   1.315   1.170  11.140 -0.2888 -0.8036 -1.3318
 6657TIP3   OH241461   4.889   0.162  11.774 -0.1072 -0.5792 -0.3511
 6657TIP3    H141462   4.875   0.077  11.732 -1.2557 -0.4231 -0.3068
 6657TIP3    H241463   4.886   0.225  11.701 -0.1328 -0.4908 -0.2733
 6658TIP3   OH241464   6.769   1.266   1.560  0.1836 -0.1244  0.1583
 6658TIP3    H141465   6.708   1.278   1.487 -1.3950  2.0089  1.6773
 6658TIP3    H241466   6.745   1.182   1.599 -0.4056 -0.2713 -0.5094
 6659TIP3   OH241467   5.195   2.628   1.714 -0.1305 -0.4514 -0.5123
 6659TIP3    H141468   5.278   2.583   1.700 -0.2156 -0.6344 -0.4316
 6659TIP3    H241469   5.144   2.569   1.769 -0.3793 -0.4194 -0.7037
 6660TIP3   OH241470   3.631   4.880   0.124 -0.1839 -0.4632  0.1564
 6660TIP3    H141471   3.640   4.892   0.219  0.8903 -0.8775  0.1176
 6660TIP3    H241472   3.694   4.941   0.087 -4.3285  3.9420 -0.5750
 6661TIP3   OH241473   3.108   4.725   0.097 -0.5757 -0.4620 -0.2742
 6661TIP3    H141474   3.044   4.769   0.041 -0.4491  0.9249  0.6303
 6661TIP3    H241475   3.174   4.691   0.036 -0.5235  0.8703 -1.0109
 6662TIP3   OH241476   4.470   4.634  14.867  0.2539  0.8007  0.2920
 6662TIP3    H141477   4.552   4.591  14.892 -0.4142 -0.0111  1.1890
 6662TIP3    H241478   4.406   4.563  14.868 -0.1629  1.0954 -2.0465
 6663TIP3   OH241479   5.348   3.833  16.414 -0.5949  0.1436 -0.5126
 6663TIP3    H141480   5.269   3.804  16.368 -1.1637  1.1957 -0.2240
 6663TIP3    H241481   5.315   3.883  16.488  0.3254  1.7782 -1.1598
 6664TIP3   OH241482   5.496   5.884  13.582  0.3911  0.8960  0.2467
 6664TIP3    H141483   5.425   5.867  13.520  0.5248  1.0904  0.0342
 6664TIP3    H241484   5.557   5.812  13.569  0.1411  0.6264  0.5667
 6665TIP3   OH241485   1.268   3.326   5.685  0.7746 -0.3084 -0.5946
 6665TIP3    H141486   1.310   3.241   5.698  0.5549 -0.2812  0.3880
 6665TIP3    H241487   1.189   3.322   5.740  0.8470  0.5851 -0.4188
 6666TIP3   OH241488   5.066   5.404  14.265 -0.2845 -0.2710  0.4110
 6666TIP3    H141489   5.052   5.493  14.233 -0.0171  0.0468  1.1502
 6666TIP3    H241490   5.159   5.399  14.284 -0.1884 -0.9080 -0.1770
 6667TIP3   OH241491   5.057   1.670  15.069 -0.4273 -0.4940  0.2184
 6667TIP3    H141492   5.052   1.613  14.993 -0.7052 -0.4950  0.2355
 6667TIP3    H241493   5.131   1.637  15.119 -0.2131 -0.4621 -0.0753
 6668TIP3   OH241494   4.361   2.298   5.386  0.0118  0.0385 -0.1083
 6668TIP3    H141495   4.435   2.328   5.333  0.2621  2.3830  1.3836
 6668TIP3    H241496   4.382   2.328   5.475 -2.6584  0.7301  0.3909
 6669TIP3   OH241497   3.445   6.051  15.347 -0.1984 -0.0491  0.9025
 6669TIP3    H141498   3.530   6.008  15.341 -0.4059 -0.4143  0.5375
 6669TIP3    H241499   3.463   6.144  15.330  0.0663 -0.1903  0.3990
 6670TIP3   OH241500   6.410   3.151   3.022 -0.7050 -0.3909  0.6788
 6670TIP3    H141501   6.459   3.083   3.068 -1.1708 -1.3908 -0.2678
 6670TIP3    H241502   6.435   3.232   3.067 -0.5188 -1.2148  2.1556
 6671TIP3   OH241503   0.636   5.374   2.289  0.5016 -0.6753 -0.1388
 6671TIP3    H141504   0.715   5.409   2.330  0.4914 -0.0495 -0.6447
 6671TIP3    H241505   0.612   5.299   2.344 -0.7969  1.4194  2.3940
 6672TIP3   OH241506   0.885   6.595   3.994  0.4355 -0.4756 -0.0760
 6672TIP3    H141507   0.795   6.585   4.024  0.1906  1.3174 -0.0686
 6672TIP3    H241508   0.923   6.658   4.056  2.1093 -2.2024  0.7240
 6673TIP3   OH241509   1.804   6.764  15.534  0.2559  0.3692  0.1528
 6673TIP3    H141510   1.882   6.803  15.575  0.4692  0.7510 -0.5983
 6673TIP3    H241511   1.781   6.691  15.591  1.2560  0.1549  0.3076
 6674TIP3   OH241512   2.607   2.990  14.148 -0.2913  0.1232  0.3296
 6674TIP3    H141513   2.672   3.058  14.133 -0.4785  0.1517 -0.3740
 6674TIP3    H241514   2.529   3.037  14.175  0.0037  0.0813  1.2897
 6675TIP3   OH241515   6.266   5.798   4.772 -0.3735 -0.0899 -0.6881
 6675TIP3    H141516   6.229   5.736   4.835  1.6592 -0.3009  0.3771
 6675TIP3    H241517   6.203   5.799   4.700 -1.2506 -2.1834 -0.0323
 6676TIP3   OH241518   4.226   1.827   0.416  0.8821  0.1129 -0.4533
 6676TIP3    H141519   4.178   1.746   0.434  2.3839 -0.5263  0.9057
 6676TIP3    H241520   4.288   1.804   0.347  1.1693  0.1570 -0.2108
 6677TIP3   OH241521   3.339   4.908   0.231 -0.0913 -0.2746 -0.0575
 6677TIP3    H141522   3.351   4.877   0.321 -2.0844  0.4510  0.5112
 6677TIP3    H241523   3.368   4.835   0.177 -0.1349 -1.2678  1.1948
 6678TIP3   OH241524   4.319   2.129  15.493 -0.5250  0.2091 -0.0969
 6678TIP3    H141525   4.235   2.087  15.477  0.2246 -1.1075 -0.7470
 6678TIP3    H241526   4.343   2.168  15.409  0.1003 -0.5446 -0.2811
 6679TIP3   OH241527   5.449   2.606   5.818 -0.2100  0.2488  0.1194
 6679TIP3    H141528   5.466   2.655   5.738  0.7359  1.4978  1.0535
 6679TIP3    H241529   5.376   2.549   5.796 -0.1656  0.7946 -1.5380
 6680TIP3   OH241530   3.802   3.130   1.798 -0.4436 -0.8680  0.0650
 6680TIP3    H141531   3.713   3.100   1.812 -0.7643  0.2137  0.5025
 6680TIP3    H241532   3.801   3.222   1.827  1.0808 -1.1531  1.1940
 6681TIP3   OH241533   6.244   4.381  13.612 -0.1163 -0.6092 -0.0213
 6681TIP3    H141534   6.215   4.408  13.525 -0.5661  0.9532  0.5816
 6681TIP3    H241535   6.179   4.316  13.640  0.4839 -1.7355 -1.1458
 6682TIP3   OH241536   0.203   1.379   2.037 -0.2459 -0.0004 -0.6914
 6682TIP3    H141537   0.201   1.288   2.066 -0.8378 -0.5138 -2.2563
 6682TIP3    H241538   0.161   1.378   1.951 -1.6245  1.9982 -0.0962
 6683TIP3   OH241539   1.121   1.217   5.872 -0.0623 -0.5784  0.1455
 6683TIP3    H141540   1.174   1.279   5.923  0.7966 -0.7453 -0.5126
 6683TIP3    H241541   1.077   1.163   5.937  1.1328 -0.8917  0.7235
 6684TIP3   OH241542   5.441   3.195  16.976 -0.7897  0.3807 -0.1483
 6684TIP3    H141543   5.485   3.110  16.968  0.4213  0.7960  1.6384
 6684TIP3    H241544   5.423   3.220  16.885  2.0005 -0.1771 -0.9747
 6685TIP3   OH241545   5.391   5.884  11.645 -0.4089 -0.0737  0.2877
 6685TIP3    H141546   5.469   5.937  11.628 -0.8486  0.0805 -1.4516
 6685TIP3    H241547   5.423   5.811  11.698  0.7123  0.5141  0.4659
 6686TIP3   OH241548   4.096   3.207  15.564 -0.1440 -0.1450  0.2446
 6686TIP3    H141549   4.058   3.121  15.581  1.8000 -1.0258  0.2874
 6686TIP3    H241550   4.109   3.209  15.469 -0.7338  0.3783  0.1603
 6687TIP3   OH241551   1.152   1.530  14.354 -0.1450  0.4408 -0.3319
 6687TIP3    H141552   1.217   1.477  14.400 -0.9167  0.1653  0.4653
 6687TIP3    H241553   1.144   1.489  14.268  2.2237  1.6897 -1.2365
 6688TIP3   OH241554   0.613   2.965  16.387 -0.3266 -0.1887  0.1310
 6688TIP3    H141555   0.590   3.037  16.328  0.3313 -0.6404 -0.6901
 6688TIP3    H241556   0.672   3.004  16.451  2.7964 -0.6105 -2.2498
 6689TIP3   OH241557   5.321   4.561   0.741 -0.6334 -0.0705 -0.0223
 6689TIP3    H141558   5.243   4.542   0.689  0.6248  1.5380 -2.7279
 6689TIP3    H241559   5.293   4.626   0.804 -1.5174  0.4288 -0.9118
 6690TIP3   OH241560   1.372   2.396  13.710 -0.1033  0.3127 -0.1024
 6690TIP3    H141561   1.335   2.462  13.769 -0.2275 -0.4625  0.7078
 6690TIP3    H241562   1.463   2.385  13.740  0.4281  1.2739 -1.2676
 6691TIP3   OH241563   0.504   0.697  14.337  0.9483 -0.3430  0.2962
 6691TIP3    H141564   0.565   0.651  14.394  0.0291  0.8958  2.3769
 6691TIP3    H241565   0.476   0.773  14.387  0.5957  1.2170 -2.0961
 6692TIP3   OH241566   6.080   4.152  12.793  0.2894 -0.5042 -0.2025
 6692TIP3    H141567   6.037   4.097  12.859 -0.3943 -0.6284 -0.7360
 6692TIP3    H241568   6.010   4.210  12.761  1.5623  2.8429  2.4443
 6693TIP3   OH241569   6.461   2.400   4.863 -0.3225  0.3659  0.8115
 6693TIP3    H141570   6.474   2.494   4.852  2.2751 -0.1003 -0.9801
 6693TIP3    H241571   6.529   2.375   4.926  0.1926 -0.5242 -0.0732
 6694TIP3   OH241572   0.912   0.381   1.362 -0.0349  0.9369 -0.0555
 6694TIP3    H141573   0.978   0.314   1.347 -0.6329 -0.1809  1.9621
 6694TIP3    H241574   0.935   0.419   1.447 -1.2973  1.3621  0.1131
 6695TIP3   OH241575   6.610   4.683  12.100 -0.0024  0.3116  0.3266
 6695TIP3    H141576   6.668   4.719  12.168  0.1439  0.0918  0.3219
 6695TIP3    H241577   6.562   4.758  12.067  0.8663  0.6438 -0.2350
 6696TIP3   OH241578   5.022   1.762  11.643 -0.0007 -0.0628  0.2834
 6696TIP3    H141579   5.014   1.828  11.575 -1.8039 -0.9072 -0.3813
 6696TIP3    H241580   5.113   1.766  11.670  0.2086  1.8596 -0.5693
 6697TIP3   OH241581   6.602   1.665   4.107 -0.2843  0.0816 -0.6405
 6697TIP3    H141582   6.524   1.610   4.116 -0.7682  0.7394 -0.7237
 6697TIP3    H241583   6.569   1.748   4.071  0.6591 -0.1664 -2.2095
 6698TIP3   OH241584   1.204   2.355   1.356 -0.1493 -0.4509  0.0797
 6698TIP3    H141585   1.169   2.336   1.443 -1.0644 -1.3771 -0.4507
 6698TIP3    H241586   1.145   2.421   1.320  0.9715  0.8699  0.6144
 6699TIP3   OH241587   4.750   3.990   4.864 -0.1779  0.3570 -0.1074
 6699TIP3    H141588   4.831   3.957   4.826 -1.0908 -0.3494 -1.5482
 6699TIP3    H241589   4.687   3.988   4.792 -1.0872  2.4181  0.5342
 6700TIP3   OH241590   0.559   2.774   5.791 -0.8038  0.4128 -0.5960
 6700TIP3    H141591   0.595   2.835   5.856 -0.0909 -1.4854  0.8627
 6700TIP3    H241592   0.511   2.710   5.841  0.5026 -1.6336 -1.8066
 6701TIP3   OH241593   4.552   6.552  13.612 -0.0189 -0.1430 -0.2311
 6701TIP3    H141594   4.491   6.615  13.651 -0.0366 -0.1429 -0.2602
 6701TIP3    H241595   4.584   6.501  13.687 -0.7589 -0.7619 -0.3262
 6702TIP3   OH241596   1.833   0.872  14.698 -0.4135 -0.4137  0.1057
 6702TIP3    H141597   1.794   0.796  14.739 -1.8633  0.5065  0.5007
 6702TIP3    H241598   1.787   0.882  14.615  0.3342 -0.4344 -0.3250
 6703TIP3   OH241599   1.682   5.066  10.518  0.5231 -0.7565  0.4820
 6703TIP3    H141600   1.743   5.040  10.587  0.4383 -0.4001  0.6928
 6703TIP3    H241601   1.710   5.015  10.442  1.7539  0.1890  0.2737
 6704TIP3   OH241602   1.636   2.269  14.111  0.4727 -0.2993 -0.2175
 6704TIP3    H141603   1.691   2.345  14.092 -2.4381  1.6717 -1.5273
 6704TIP3    H241604   1.563   2.304  14.161  0.0831 -2.7005  1.0682
 6705TIP3   OH241605   0.771   4.542   1.616 -0.3816  0.0221  0.0218
 6705TIP3    H141606   0.850   4.589   1.590 -1.1917  1.3932 -0.0576
 6705TIP3    H241607   0.789   4.451   1.592  1.6082  0.0771  1.0407
 6706TIP3   OH241608   5.503   4.238  16.316  0.3352 -0.1696  0.2503
 6706TIP3    H141609   5.535   4.151  16.296 -1.5561 -0.2551 -3.1395
 6706TIP3    H241610   5.445   4.260  16.243 -0.0194  3.5588  1.4300
 6707TIP3   OH241611   1.121   0.756  10.776 -0.0630 -0.2066 -0.0939
 6707TIP3    H141612   1.146   0.835  10.823 -0.6905 -0.7374  1.2099
 6707TIP3    H241613   1.145   0.772  10.685  3.4948 -0.0719  0.7442
 6708TIP3   OH241614   5.107   4.872  11.932 -0.2001  0.1131 -0.0112
 6708TIP3    H141615   5.146   4.958  11.918 -0.5994  0.6418  1.8119
 6708TIP3    H241616   5.171   4.810  11.895  1.4638  1.0546  1.1377
 6709TIP3   OH241617   4.188   5.445   5.732  0.3888  0.7882  0.9199
 6709TIP3    H141618   4.103   5.456   5.776  0.0217 -0.2200  0.5020
 6709TIP3    H241619   4.201   5.350   5.729  0.7016  0.8515 -0.5576
 6710TIP3   OH241620   2.933   0.528  12.942 -0.4561  0.5872 -0.1095
 6710TIP3    H141621   3.024   0.513  12.968 -0.4835  0.7585  0.0922
 6710TIP3    H241622   2.920   0.472  12.865  0.5446  2.3288 -1.6353
 6711TIP3   OH241623   0.319   4.168  11.508  0.1805 -0.2806 -0.1357
 6711TIP3    H141624   0.274   4.201  11.587 -0.2758 -1.4703  0.1142
 6711TIP3    H241625   0.283   4.221  11.437  1.2197  1.4061  0.5300
 6712TIP3   OH241626   1.898   5.487   3.171 -0.1406  0.6570  0.2448
 6712TIP3    H141627   1.929   5.513   3.084 -1.2016  1.8996  0.2025
 6712TIP3    H241628   1.892   5.391   3.166 -0.1403  0.6969 -1.0458
 6713TIP3   OH241629   3.738   4.209   5.696  0.1097  0.1562  0.6976
 6713TIP3    H141630   3.659   4.209   5.642  0.9744  1.8080 -0.6527
 6713TIP3    H241631   3.728   4.132   5.753 -1.2119 -1.2051 -1.2511
 6714TIP3   OH241632   4.967   3.095   1.557  0.3637  0.0470  0.0642
 6714TIP3    H141633   4.875   3.113   1.537  0.5328 -0.6509 -1.4307
 6714TIP3    H241634   5.003   3.062   1.476  2.1761  1.1564  0.3679
 6715TIP3   OH241635   1.935   0.859  12.675  0.5077 -0.0266  0.0262
 6715TIP3    H141636   2.026   0.889  12.676  0.5616 -0.2007  0.7793
 6715TIP3    H241637   1.903   0.876  12.764 -0.1849 -0.0026 -0.2242
 6716TIP3   OH241638   3.898   3.804  13.855 -0.2506  0.3209  0.2030
 6716TIP3    H141639   3.811   3.788  13.890  0.0699 -1.3781  0.3009
 6716TIP3    H241640   3.885   3.819  13.762 -0.5442 -1.1884 -0.0126
 6717TIP3   OH241641   0.055   6.679   0.600 -0.2127  0.7555 -0.6527
 6717TIP3    H141642   0.106   6.689   0.520 -0.4184  0.3882 -0.8305
 6717TIP3    H241643   0.060   6.765   0.643  0.3012  0.8122 -0.8165
 6718TIP3   OH241644   3.615   1.517  11.369  0.2489  0.9107 -0.7252
 6718TIP3    H141645   3.567   1.563  11.438  0.9706  1.3514 -0.5115
 6718TIP3    H241646   3.553   1.513  11.296 -1.2012 -1.1434  0.4985
 6719TIP3   OH241647   4.012   1.955  13.000 -0.0212  0.0435 -0.2531
 6719TIP3    H141648   4.054   1.983  12.919  0.1796 -0.8656 -0.4630
 6719TIP3    H241649   3.995   2.037  13.047  1.5507  0.4512 -0.3634
 6720TIP3   OH241650   2.013   1.925   0.237 -0.8727 -0.2507  0.0777
 6720TIP3    H141651   1.963   1.886   0.309 -0.7612 -0.0489  0.2653
 6720TIP3    H241652   2.104   1.922   0.267 -0.6046 -1.7697 -0.7763
 6721TIP3   OH241653   0.606   1.857  13.902 -0.1515 -0.5543  0.0319
 6721TIP3    H141654   0.624   1.880  13.811  0.5647  0.9426  0.5262
 6721TIP3    H241655   0.665   1.784  13.921  1.2916  0.5505 -0.0787
 6722TIP3   OH241656   2.256   3.845  11.207 -0.1887 -0.4351 -0.1809
 6722TIP3    H141657   2.190   3.878  11.267 -0.1172  1.3556 -1.0228
 6722TIP3    H241658   2.208   3.791  11.145 -0.9143  0.8933 -0.8174
 6723TIP3   OH241659   3.114   3.427  16.186  0.0329 -0.1630  0.2858
 6723TIP3    H141660   3.197   3.472  16.199  0.2911 -0.8377  1.0335
 6723TIP3    H241661   3.047   3.489  16.215  0.3316  0.0388  0.5382
 6724TIP3   OH241662   6.310   5.923   5.230 -0.7060  0.0614  0.3044
 6724TIP3    H141663   6.361   5.861   5.177 -0.7220 -1.3074  1.7994
 6724TIP3    H241664   6.223   5.920   5.192 -0.4651 -0.1085 -0.2454
 6725TIP3   OH241665   5.632   3.744   5.297 -0.7585 -0.0846  0.3074
 6725TIP3    H141666   5.609   3.821   5.349 -3.0567 -0.1348 -0.5267
 6725TIP3    H241667   5.553   3.722   5.249  0.8733 -0.8236 -2.2686
 6726TIP3   OH241668   0.149   4.882  13.166  0.3687 -0.6068 -0.0641
 6726TIP3    H141669   0.111   4.834  13.239 -1.1039 -1.8329 -1.5459
 6726TIP3    H241670   0.137   4.974  13.189 -0.1016 -0.9608  1.1960
 6727TIP3   OH241671   1.928   5.676   0.488 -0.1103 -0.0275 -0.2960
 6727TIP3    H141672   1.997   5.737   0.462 -0.5472 -0.2071 -1.9724
 6727TIP3    H241673   1.919   5.689   0.582  1.5291  0.6984 -0.2044
 6728TIP3   OH241674   3.091   1.664   6.282  0.0066  0.1961  0.4242
 6728TIP3    H141675   3.181   1.686   6.308  0.2033  0.8205 -0.6980
 6728TIP3    H241676   3.087   1.569   6.289  1.1106  0.0541 -0.5317
 6729TIP3   OH241677   5.871   5.137  14.057  0.1368 -0.4169  0.0483
 6729TIP3    H141678   5.831   5.089  14.129 -0.9494  0.8200  0.3102
 6729TIP3    H241679   5.848   5.087  13.979  1.0686 -1.5992  0.5139
 6730TIP3   OH241680   0.504   5.927   4.355 -0.0218 -0.4229  0.1001
 6730TIP3    H141681   0.596   5.901   4.363  0.5588  0.7337 -2.0095
 6730TIP3    H241682   0.466   5.861   4.297  0.7610  1.5838 -2.9516
 6731TIP3   OH241683   6.203   5.991  11.264 -0.0922 -0.1380 -0.3078
 6731TIP3    H141684   6.180   5.988  11.357 -0.3324 -0.7722 -0.3761
 6731TIP3    H241685   6.178   6.078  11.235 -0.9665 -0.2769 -0.0070
 6732TIP3   OH241686   4.635   1.477   6.161 -0.2624 -0.0281 -0.4602
 6732TIP3    H141687   4.637   1.382   6.152 -0.6945  0.0104 -1.0658
 6732TIP3    H241688   4.634   1.510   6.071  1.6722  0.6174 -0.2858
 6733TIP3   OH241689   6.140   5.731   2.420 -0.3466  0.2939 -0.0868
 6733TIP3    H141690   6.142   5.656   2.481  1.8069 -1.1837 -1.8193
 6733TIP3    H241691   6.081   5.704   2.350  0.8710 -0.0996 -1.0043
 6734TIP3   OH241692   3.498   0.999  16.598  0.0003 -0.3234  0.2417
 6734TIP3    H141693   3.538   0.969  16.516 -0.8387 -2.5424  0.5625
 6734TIP3    H241694   3.407   0.969  16.591 -0.1939 -0.1422  1.7983
 6735TIP3   OH241695   6.182   2.981  10.548 -0.8558  0.4891 -0.0641
 6735TIP3    H141696   6.168   2.889  10.570 -0.4914  0.6734  1.0103
 6735TIP3    H241697   6.254   2.980  10.484 -0.4906  0.0563  0.3463
 6736TIP3   OH241698   5.363   3.624   4.674  0.3785  0.2723 -0.2516
 6736TIP3    H141699   5.423   3.554   4.698  0.7023  0.5497 -0.2484
 6736TIP3    H241700   5.283   3.604   4.723  0.5946  0.1116  0.0447
 6737TIP3   OH241701   4.976   2.626  16.419  0.2441 -0.0555  1.0125
 6737TIP3    H141702   5.044   2.686  16.389 -0.9575  0.5492 -0.6538
 6737TIP3    H241703   5.016   2.539  16.414  1.2410  0.3864  1.1330
 6738TIP3   OH241704   2.122   5.126  13.626 -0.4665  0.2458 -0.4210
 6738TIP3    H141705   2.174   5.073  13.686  0.7184  0.5236 -1.1775
 6738TIP3    H241706   2.031   5.102  13.646  0.0134 -1.7331 -0.4498
 6739TIP3   OH241707   2.242   4.284  15.258  0.6239  0.1019  0.8618
 6739TIP3    H141708   2.244   4.193  15.289  1.3479  0.4880  1.9905
 6739TIP3    H241709   2.332   4.302  15.231  0.1805  0.0300 -0.8259
 6740TIP3   OH241710   6.121   0.763   4.456  0.2183  0.0676 -0.2781
 6740TIP3    H141711   6.063   0.700   4.500  1.4962 -0.7612  0.2664
 6740TIP3    H241712   6.182   0.708   4.407  2.3558  0.7845  1.4289
 6741TIP3   OH241713   5.924   3.185  11.922  0.5978  0.7791 -0.3602
 6741TIP3    H141714   5.976   3.129  11.865  0.9607  1.3065 -0.5601
 6741TIP3    H241715   5.989   3.234  11.973  0.2788  0.2263  0.5950
 6742TIP3   OH241716   3.253   5.453   2.417 -0.3166  0.1195  0.3686
 6742TIP3    H141717   3.206   5.516   2.473  0.8098  1.8799 -0.5779
 6742TIP3    H241718   3.202   5.450   2.336  0.9257  1.8037 -0.5448
 6743TIP3   OH241719   3.345   1.731   0.823 -0.7364  0.5552  0.0138
 6743TIP3    H141720   3.317   1.776   0.902 -1.4963  1.1547 -0.5917
 6743TIP3    H241721   3.399   1.658   0.855 -1.9344  0.1272  1.1335
 6744TIP3   OH241722   1.417   0.641   3.573 -0.4058  0.1139  0.5697
 6744TIP3    H141723   1.444   0.603   3.489  2.8796 -1.2049  2.0434
 6744TIP3    H241724   1.391   0.731   3.551  0.0234 -0.2875 -1.8949
 6745TIP3   OH241725   6.504   0.538  14.557 -0.7097 -0.4659 -0.3267
 6745TIP3    H141726   6.591   0.513  14.525 -0.7845 -0.3110 -0.6565
 6745TIP3    H241727   6.464   0.585  14.484 -0.0499  1.8799  0.7192
 6746TIP3   OH241728   6.751   2.038   3.663 -0.0411 -0.3579 -0.0709
 6746TIP3    H141729   6.688   2.095   3.620  1.6836  2.1701  0.5340
 6746TIP3    H241730   6.755   1.960   3.607 -1.5514  0.6380 -1.6617
 6747TIP3   OH241731   6.139   3.333   2.850  0.4199 -0.1420  0.9107
 6747TIP3    H141732   6.051   3.371   2.855  1.1127  1.8080 -0.5146
 6747TIP3    H241733   6.123   3.239   2.837 -1.5271  0.3840 -1.1429
 6748TIP3   OH241734   5.139   2.459   3.643 -0.4730 -0.3533  0.2620
 6748TIP3    H141735   5.106   2.374   3.614  0.8704 -1.0696  0.7101
 6748TIP3    H241736   5.107   2.467   3.733 -0.5240 -0.4299  0.2509
 6749TIP3   OH241737   5.224   3.592   2.749  0.5592  0.1578 -0.5128
 6749TIP3    H141738   5.272   3.665   2.789  0.6097  1.1924 -2.3456
 6749TIP3    H241739   5.278   3.566   2.675  1.1337 -2.5957  0.7472
 6750TIP3   OH241740   0.259   1.856  10.219  0.4885  0.4541 -0.8209
 6750TIP3    H141741   0.192   1.814  10.274  1.8180 -1.0656 -0.2939
 6750TIP3    H241742   0.228   1.842  10.130 -0.8395  1.4712 -0.5664
 6751TIP3   OH241743   0.208   3.028  10.820 -0.1128  0.1750  0.1418
 6751TIP3    H141744   0.196   3.117  10.785  1.0301 -0.3540 -1.7031
 6751TIP3    H241745   0.239   2.977  10.746 -0.2853 -1.6875  1.2937
 6752TIP3   OH241746   3.620   4.320   4.826 -0.0042  0.0961 -0.0881
 6752TIP3    H141747   3.653   4.335   4.914  0.5100 -0.5957 -0.1565
 6752TIP3    H241748   3.576   4.402   4.802 -0.2290  0.2499  0.8407
 6753TIP3   OH241749   3.165   0.873  12.591  0.7643  0.2127  0.4712
 6753TIP3    H141750   3.101   0.816  12.634 -0.9545  0.5942 -1.4086
 6753TIP3    H241751   3.117   0.953  12.572  1.7648  0.5035 -1.0332
 6754TIP3   OH241752   2.799   6.790  13.192 -0.1795 -0.5743  0.6546
 6754TIP3    H141753   2.803   6.794  13.097  0.6910 -2.1767  0.5830
 6754TIP3    H241754   2.707   6.771  13.212 -0.6061  0.8826  0.2354
 6755TIP3   OH241755   2.776   2.395   4.314  0.3666 -0.4079  0.2958
 6755TIP3    H141756   2.822   2.463   4.264 -0.3482 -0.6980 -0.8052
 6755TIP3    H241757   2.846   2.339   4.348  0.9973  1.1238  1.6313
 6756TIP3   OH241758   2.453   1.674   5.106  0.1759 -0.3309  0.4849
 6756TIP3    H141759   2.381   1.722   5.065  1.2740  0.3363 -0.7273
 6756TIP3    H241760   2.443   1.690   5.200 -1.3341 -0.3865  0.3454
 6757TIP3   OH241761   0.284   5.231  12.734  0.3144  0.9992 -0.4498
 6757TIP3    H141762   0.327   5.306  12.694  3.1032  0.6731  1.6675
 6757TIP3    H241763   0.355   5.180  12.772 -1.5965 -2.1550 -0.8120
 6758TIP3   OH241764   0.261   0.812  14.586 -0.3596  0.6222 -0.1866
 6758TIP3    H141765   0.345   0.846  14.553 -0.5506  1.1221 -0.1622
 6758TIP3    H241766   0.218   0.888  14.624 -1.8192  0.8576 -2.1966
 6759TIP3   OH241767   0.615   5.036  15.155 -0.1475  0.6351  0.2843
 6759TIP3    H141768   0.640   4.948  15.127  0.6561  0.6139  1.0327
 6759TIP3    H241769   0.666   5.052  15.234  0.5334  2.2073 -0.4337
 6760TIP3   OH241770   2.291   0.239  14.038 -0.2913 -0.1801  0.6280
 6760TIP3    H141771   2.270   0.315  13.983  1.3770  0.5598  0.9567
 6760TIP3    H241772   2.386   0.233  14.034 -0.3348 -1.7226  1.3526
 6761TIP3   OH241773   5.860   0.420  16.888  0.3895 -0.0221  0.0713
 6761TIP3    H141774   5.821   0.368  16.958 -0.9141  0.3517 -0.3424
 6761TIP3    H241775   5.903   0.492  16.933 -0.6736  0.3681  0.4941
 6762TIP3   OH241776   1.262   1.152   2.100 -0.0991 -0.1229  0.3180
 6762TIP3    H141777   1.265   1.118   2.011 -1.5237 -2.1681  0.9773
 6762TIP3    H241778   1.169   1.170   2.116  0.0935 -0.1056  1.5056
 6763TIP3   OH241779   2.590   0.793   2.377  0.1446 -0.7515  0.4161
 6763TIP3    H141780   2.676   0.758   2.404 -0.6278 -2.3025  1.0282
 6763TIP3    H241781   2.610   0.876   2.335  1.7688  0.1867  2.7814
 6764TIP3   OH241782   4.260   6.206  11.844  0.4013 -0.0325  0.3404
 6764TIP3    H141783   4.312   6.248  11.775  0.6184 -0.5206  0.2027
 6764TIP3    H241784   4.313   6.216  11.923  0.2582  0.3256  0.3906
 6765TIP3   OH241785   5.986   1.388  14.847  0.2762 -0.5493  0.2602
 6765TIP3    H141786   6.081   1.378  14.854  0.1604 -2.7487 -0.3843
 6765TIP3    H241787   5.964   1.354  14.760 -1.1999 -1.1151  0.8143
 6766TIP3   OH241788   0.853   0.417  14.687 -0.3022 -0.1652 -0.5138
 6766TIP3    H141789   0.913   0.376  14.749  1.0779  1.3588 -0.7633
 6766TIP3    H241790   0.809   0.486  14.737 -1.0826 -0.5689 -0.6124
 6767TIP3   OH241791   5.758   1.523  12.700  0.1575 -0.5712  0.8087
 6767TIP3    H141792   5.687   1.522  12.637 -0.1814  0.4440  1.1527
 6767TIP3    H241793   5.819   1.589  12.667  0.1423 -0.2775  1.3476
 6768TIP3   OH241794   0.420   5.829   1.272  0.2772 -0.2326  0.0151
 6768TIP3    H141795   0.363   5.854   1.345  0.1926  3.0301 -1.0303
 6768TIP3    H241796   0.385   5.875   1.197  2.4419 -0.6813 -1.3484
 6769TIP3   OH241797   5.112   5.995   0.086  0.1367 -0.8180 -0.2814
 6769TIP3    H141798   5.167   6.021   0.160  0.6497 -1.1690 -0.5355
 6769TIP3    H241799   5.174   5.974   0.017 -0.3389  1.9078 -1.6709
 6770TIP3   OH241800   2.009   4.556   6.001  0.2073  0.4152  0.0498
 6770TIP3    H141801   1.935   4.501   5.976 -0.1935  1.8482 -2.2254
 6770TIP3    H241802   1.991   4.581   6.092 -0.5802 -1.5396  0.4910
 6771TIP3   OH241803   0.577   5.258  11.832  0.1995  0.1929 -0.0780
 6771TIP3    H141804   0.560   5.352  11.837 -1.8411 -0.1448  0.2050
 6771TIP3    H241805   0.620   5.236  11.914 -0.1080  0.7488  0.2348
 6772TIP3   OH241806   0.066   2.805  15.431 -0.3487 -0.3602 -0.4823
 6772TIP3    H141807   0.018   2.838  15.507  2.7170  2.6669  0.3847
 6772TIP3    H241808   0.071   2.711  15.445 -1.1384 -0.0779  2.3352
 6773TIP3   OH241809   3.597   2.744   3.031  0.0850  0.2749  0.5908
 6773TIP3    H141810   3.541   2.716   3.103 -0.1376 -2.3380 -0.4696
 6773TIP3    H241811   3.538   2.788   2.970 -0.6342 -1.2439  0.1190
 6774TIP3   OH241812   6.283   4.909   1.821  0.2525 -0.1950  0.2507
 6774TIP3    H141813   6.249   4.998   1.825  0.0264 -0.3260  1.3310
 6774TIP3    H241814   6.363   4.910   1.874  0.3336 -0.6042  0.1471
 6775TIP3   OH241815   1.009   3.082  11.144  0.2502  0.3063 -0.2144
 6775TIP3    H141816   1.091   3.112  11.183  0.0286 -0.8844  1.2496
 6775TIP3    H241817   0.971   3.161  11.105  0.9536  1.3696  1.1543
 6776TIP3   OH241818   1.939   0.243   3.082 -0.3520 -0.6433 -0.3285
 6776TIP3    H141819   1.991   0.305   3.031 -1.4233  0.5978  0.0621
 6776TIP3    H241820   1.992   0.228   3.161 -1.3400  2.0884  0.9712
 6777TIP3   OH241821   0.179   4.191  15.756 -0.6323 -0.3573 -0.2964
 6777TIP3    H141822   0.222   4.273  15.731  0.0675  0.2228  2.5302
 6777TIP3    H241823   0.103   4.185  15.697  0.3250  1.3274 -1.8122
 6778TIP3   OH241824   1.181   1.975   2.701 -0.8127  0.2067 -0.3987
 6778TIP3    H141825   1.251   2.028   2.738 -0.5728  0.2014 -0.8410
 6778TIP3    H241826   1.107   1.988   2.760 -1.7639  3.4558 -2.0567
 6779TIP3   OH241827   1.182   3.472  13.944 -0.2190  0.8653 -0.0093
 6779TIP3    H141828   1.126   3.549  13.936 -1.0559  0.1815 -1.0067
 6779TIP3    H241829   1.121   3.399  13.954  0.4832  0.1068 -1.0223
 6780TIP3   OH241830   6.126   3.911  11.367  0.1281 -0.2403 -0.2788
 6780TIP3    H141831   6.115   3.837  11.426 -0.5096  0.0853  0.0163
 6780TIP3    H241832   6.038   3.947  11.356  0.3130  0.0159 -1.0243
 6781TIP3   OH241833   1.078   3.107   2.374 -0.3366  0.5498  0.1705
 6781TIP3    H141834   1.133   3.061   2.311  1.2284  0.8980  1.2221
 6781TIP3    H241835   1.068   3.046   2.447 -1.6529  0.3686 -0.1393
 6782TIP3   OH241836   1.063   2.101   5.403  0.2427  0.0702 -0.5258
 6782TIP3    H141837   1.000   2.066   5.465  0.8196 -0.4280 -0.2113
 6782TIP3    H241838   1.141   2.118   5.455  0.8549 -0.7003 -1.1700
 6783TIP3   OH241839   2.324   4.968   1.852  0.4941  0.0551  0.1291
 6783TIP3    H141840   2.298   4.924   1.933 -0.7310  0.2519 -0.1443
 6783TIP3    H241841   2.303   4.906   1.783 -1.6177  1.1361 -0.2937
 6784TIP3   OH241842   1.626   5.851   4.892 -0.7599 -0.1709 -0.0508
 6784TIP3    H141843   1.678   5.816   4.964  0.9380  0.8779 -0.6972
 6784TIP3    H241844   1.548   5.796   4.889  1.1934 -3.1163 -0.2898
 6785TIP3   OH241845   3.048   4.861  13.387  0.3914 -0.1468  0.6666
 6785TIP3    H141846   2.976   4.880  13.328  0.3810 -1.3631  0.2602
 6785TIP3    H241847   3.103   4.939  13.385  0.2607 -0.0784 -0.7661
 6786TIP3   OH241848   5.536   6.473   3.247  0.0461  0.2129  0.1523
 6786TIP3    H141849   5.571   6.559   3.269  0.3543  0.1075  0.0781
 6786TIP3    H241850   5.546   6.422   3.328  0.6669 -0.0101 -0.0622
 6787TIP3   OH241851   3.370   6.803   4.101 -0.2716 -0.1842 -0.1778
 6787TIP3    H141852   3.289   6.754   4.112 -0.8333  1.1232  2.1328
 6787TIP3    H241853   3.360   6.849   4.018 -1.7892 -0.2279 -0.0328
 6788TIP3   OH241854   2.950   6.297  12.123  0.2857  0.4021 -0.0767
 6788TIP3    H141855   2.973   6.282  12.031 -0.6725 -0.0573 -0.2555
 6788TIP3    H241856   3.027   6.269  12.172  1.2821  1.8106 -0.7917
 6789TIP3   OH241857   1.221   0.638   1.054  0.3146  0.0067  0.3197
 6789TIP3    H141858   1.235   0.613   0.963 -2.3748  0.2970 -0.2509
 6789TIP3    H241859   1.169   0.566   1.091 -3.2278  2.1805  0.0323
 6790TIP3   OH241860   2.846   4.466   5.987 -0.3122  0.5522 -0.3389
 6790TIP3    H141861   2.778   4.524   5.955 -2.8307 -2.5813 -1.2369
 6790TIP3    H241862   2.901   4.448   5.910 -0.6184  0.4013 -0.5265
 6791TIP3   OH241863   1.783   3.806   5.514  0.4178 -0.3000  0.2701
 6791TIP3    H141864   1.810   3.726   5.559  1.8134 -0.0795 -0.1085
 6791TIP3    H241865   1.735   3.776   5.438 -0.4272 -0.7197  0.9472
 6792TIP3   OH241866   4.439   6.249  16.116  0.2521  0.1507 -0.2523
 6792TIP3    H141867   4.428   6.344  16.124 -0.9910 -0.0697  0.9346
 6792TIP3    H241868   4.524   6.231  16.155  0.3030  0.7341 -0.0886
 6793TIP3   OH241869   3.716   5.677   2.294  0.0400 -0.1638 -0.1247
 6793TIP3    H141870   3.759   5.651   2.375  0.3868  1.3993  0.2404
 6793TIP3    H241871   3.628   5.641   2.301  0.3955 -0.9379  0.4679
 6794TIP3   OH241872   3.037   1.642   5.650 -0.4450 -0.5611  0.4166
 6794TIP3    H141873   2.968   1.648   5.716  0.5470 -0.4036  1.4666
 6794TIP3    H241874   3.011   1.569   5.594 -0.1238 -2.2960  2.4160
 6795TIP3   OH241875   3.098   1.341   5.294 -0.2014 -0.2661 -0.1338
 6795TIP3    H141876   3.080   1.414   5.236  1.6880  0.3233 -0.0369
 6795TIP3    H241877   3.046   1.268   5.259 -0.2203  0.4677 -1.6689
 6796TIP3   OH241878   3.070   3.929  15.326 -0.4338  0.1113 -0.0973
 6796TIP3    H141879   3.047   3.976  15.246  0.9472  0.5206 -0.2833
 6796TIP3    H241880   3.128   3.859  15.297 -0.6852 -0.3302  0.4471
 6797TIP3   OH241881   0.905   4.258  13.099 -0.3477  0.0976  0.0727
 6797TIP3    H141882   0.824   4.307  13.086 -0.0274  0.0909 -2.4277
 6797TIP3    H241883   0.882   4.168  13.076  0.0085 -0.2324  0.9373
 6798TIP3   OH241884   5.753   3.276   3.424 -0.6920  1.0965 -0.4180
 6798TIP3    H141885   5.779   3.216   3.494 -0.3675  1.6277 -0.0717
 6798TIP3    H241886   5.670   3.313   3.453 -1.9586 -0.7022 -1.5878
 6799TIP3   OH241887   1.994   5.038   2.068 -0.7642 -0.8149 -0.2277
 6799TIP3    H141888   2.043   5.112   2.032  0.0875 -0.5363  1.4472
 6799TIP3    H241889   1.918   5.078   2.111  0.8095 -0.6308  2.5735
 6800TIP3   OH241890   3.759   1.020  11.609 -0.3872 -0.3303 -0.3421
 6800TIP3    H141891   3.677   1.051  11.647 -1.3100 -1.5254 -1.2711
 6800TIP3    H241892   3.782   0.943  11.662  0.3598  0.2142  0.1506
 6801TIP3   OH241893   6.624   2.472   5.301 -0.0022 -0.1217  0.4551
 6801TIP3    H141894   6.694   2.524   5.341  0.7290  1.3212 -2.4060
 6801TIP3    H241895   6.552   2.535   5.290 -0.8973 -0.9867  1.2325
 6802TIP3   OH241896   0.354   0.485  12.690  0.1234 -0.8309  0.2549
 6802TIP3    H141897   0.298   0.502  12.766 -1.0791 -1.1595 -0.5391
 6802TIP3    H241898   0.370   0.572  12.652  2.5667 -0.3563  2.0682
 6803TIP3   OH241899   0.519   5.476  10.371  0.1206  0.3727 -0.1475
 6803TIP3    H141900   0.429   5.450  10.392  0.0601  1.3730  0.9587
 6803TIP3    H241901   0.520   5.486  10.276 -0.2920 -1.9272 -0.4362
 6804TIP3   OH241902   1.280   4.291   3.046  0.5590 -0.6264 -0.0933
 6804TIP3    H141903   1.301   4.371   2.999  1.5239 -0.1581  1.0782
 6804TIP3    H241904   1.185   4.287   3.047  0.4988  0.5913 -0.0287
 6805TIP3   OH241905   2.922   4.794  15.069  0.0590 -0.3492 -0.1516
 6805TIP3    H141906   2.958   4.777  14.982  0.5714 -0.9673  0.1655
 6805TIP3    H241907   2.827   4.794  15.057  0.1121 -0.9154 -0.6275
 6806TIP3   OH241908   3.100   5.914  11.961  0.2562 -0.1904 -0.2168
 6806TIP3    H141909   3.177   5.972  11.963  0.0538  0.1051 -0.8350
 6806TIP3    H241910   3.052   5.940  11.882 -0.1867 -0.7565 -0.1407
 6807TIP3   OH241911   2.559   4.479  11.244  0.3167  0.2787  0.2463
 6807TIP3    H141912   2.550   4.558  11.191 -1.0106  0.5367  0.8313
 6807TIP3    H241913   2.555   4.510  11.335  1.9004 -0.2339  0.5237
 6808TIP3   OH241914   1.543   0.087   5.557  0.3254  0.3067  0.5474
 6808TIP3    H141915   1.560   0.181   5.554 -1.3192  0.6053 -0.4018
 6808TIP3    H241916   1.565   0.062   5.647  1.9392  1.3281  0.4790
 6809TIP3   OH241917   6.740   5.619  11.766 -0.3042 -0.1478  0.3558
 6809TIP3    H141918   6.677   5.641  11.697  0.6884  0.4463 -0.3963
 6809TIP3    H241919   6.822   5.659  11.736  0.6845 -1.7486  0.8080
 6810TIP3   OH241920   2.306   1.632  16.429  0.7044  0.3220  0.5111
 6810TIP3    H141921   2.299   1.591  16.515 -0.1440 -0.7856 -0.0698
 6810TIP3    H241922   2.381   1.588  16.388 -1.0667 -1.7927 -0.6643
 6811TIP3   OH241923   0.436   5.315  12.452 -0.1838  0.4472  0.1062
 6811TIP3    H141924   0.354   5.284  12.414 -0.3821 -0.7227  1.4187
 6811TIP3    H241925   0.429   5.410  12.450 -2.0862  0.3714  1.2311
 6812TIP3   OH241926   6.202   6.559  11.718  0.3188  0.7192  0.5778
 6812TIP3    H141927   6.163   6.645  11.733 -0.8197  0.2756  0.2456
 6812TIP3    H241928   6.127   6.499  11.711  1.1069 -0.4458  1.6503
 6813TIP3   OH241929   5.663   0.852   5.534 -0.0136  0.3238 -0.4343
 6813TIP3    H141930   5.708   0.768   5.527  3.6105  2.1324 -1.7945
 6813TIP3    H241931   5.674   0.878   5.625  2.0854  0.7755 -0.7527
 6814TIP3   OH241932   4.310   0.227   3.242  0.1457 -0.6062  0.2377
 6814TIP3    H141933   4.230   0.208   3.291 -0.1385  1.2981  0.6048
 6814TIP3    H241934   4.356   0.291   3.295  0.5478  0.4140 -1.2728
 6815TIP3   OH241935   4.760   0.199   1.705  0.6056  0.1208  0.2578
 6815TIP3    H141936   4.768   0.249   1.786 -0.8133  0.4180  0.2367
 6815TIP3    H241937   4.721   0.260   1.642  0.7295 -0.4143 -0.3606
 6816TIP3   OH241938   2.310   5.801   4.309 -0.8761 -0.1471 -0.0170
 6816TIP3    H141939   2.315   5.814   4.214  0.0638  0.9986  0.1687
 6816TIP3    H241940   2.324   5.707   4.321 -1.1877 -0.3338 -1.0174
 6817TIP3   OH241941   0.314   3.414  10.942  0.0484 -0.4288  0.0980
 6817TIP3    H141942   0.293   3.506  10.960  0.4949 -0.1854 -0.5619
 6817TIP3    H241943   0.404   3.403  10.972 -0.4619 -1.0405  1.4611
 6818TIP3   OH241944   0.886   5.863  14.225  0.1459 -0.4839 -0.0349
 6818TIP3    H141945   0.862   5.914  14.303  0.8028  0.1536 -0.2347
 6818TIP3    H241946   0.804   5.825  14.195 -0.0132 -1.2888  1.3417
 6819TIP3   OH241947   0.226   6.787   4.997  0.0573 -0.1214 -0.2755
 6819TIP3    H141948   0.146   6.740   4.975 -1.1656  1.5175  0.4940
 6819TIP3    H241949   0.204   6.880   4.984  1.9387  0.3538 -0.3732
 6820TIP3   OH241950   6.014   1.822  15.058 -0.2775  0.0492 -0.9117
 6820TIP3    H141951   6.046   1.752  15.115 -0.2309  0.4210 -0.4800
 6820TIP3    H241952   6.034   1.792  14.969  0.7513  0.0231 -0.6803
 6821TIP3   OH241953   3.920   1.417  13.479  0.0669 -0.9284  0.0319
 6821TIP3    H141954   4.005   1.409  13.436 -0.6743 -0.6820 -1.5645
 6821TIP3    H241955   3.892   1.326  13.494  0.5584 -1.0103  0.4715
 6822TIP3   OH241956   6.183   6.589  12.114 -0.0839  0.1963 -0.0616
 6822TIP3    H141957   6.243   6.518  12.089 -0.6707 -0.4650  0.3795
 6822TIP3    H241958   6.139   6.613  12.032 -0.2693 -0.3204 -0.1165
 6823TIP3   OH241959   2.973   1.540  11.371  0.1613 -0.3252 -0.4017
 6823TIP3    H141960   2.916   1.606  11.332  0.6244 -1.0445 -2.4257
 6823TIP3    H241961   3.009   1.582  11.449 -0.4281  1.3891 -1.0197
 6824TIP3   OH241962   1.024   4.355  11.108  0.1199 -0.6357  0.3756
 6824TIP3    H141963   1.035   4.372  11.015 -2.7919  0.6011  0.1526
 6824TIP3    H241964   1.021   4.260  11.115  1.0664 -0.7653 -0.6420
 6825TIP3   OH241965   2.912   3.725  12.812 -0.2019 -0.3018  0.3347
 6825TIP3    H141966   2.960   3.650  12.847 -0.4641 -0.9812 -0.7178
 6825TIP3    H241967   2.891   3.700  12.722  0.6570  1.4608 -0.4101
 6826TIP3   OH241968   6.649   2.345  14.531  0.0392  0.1570  0.0441
 6826TIP3    H141969   6.718   2.289  14.567 -1.2029 -0.2960  1.8849
 6826TIP3    H241970   6.582   2.347  14.599 -2.2277 -0.2187 -2.0172
 6827TIP3   OH241971   4.244   2.509  12.234  0.0065  0.9142 -0.0857
 6827TIP3    H141972   4.284   2.501  12.320 -1.9387  0.9937  0.8743
 6827TIP3    H241973   4.282   2.438  12.183  2.9608  2.2438  0.0377
 6828TIP3   OH241974   6.378   0.471   6.459 -0.4090 -0.3155  0.1707
 6828TIP3    H141975   6.458   0.426   6.433 -0.4460 -0.6306  0.5890
 6828TIP3    H241976   6.347   0.423   6.537 -0.6763  0.1702  0.3714
 6829TIP3   OH241977   2.429   2.246   3.725 -0.0446 -0.6501  0.6855
 6829TIP3    H141978   2.519   2.268   3.700 -0.1916  2.9912  2.7165
 6829TIP3    H241979   2.439   2.170   3.783  2.1011  0.9721  2.6408
 6830TIP3   OH241980   5.589   1.597  13.689 -0.1543  0.4785 -0.1128
 6830TIP3    H141981   5.679   1.593  13.657  0.0887  0.8849  0.5111
 6830TIP3    H241982   5.553   1.677  13.651  0.1289  0.9516  0.5905
 6831TIP3   OH241983   4.247   0.442  13.175 -0.2610 -0.2728  0.1560
 6831TIP3    H141984   4.329   0.483  13.145  0.8474 -1.4866  1.3761
 6831TIP3    H241985   4.200   0.511  13.220 -0.4280  0.7185 -1.4437
 6832TIP3   OH241986   0.465   1.629   4.563  0.0288  0.3552 -0.0082
 6832TIP3    H141987   0.424   1.712   4.588  0.4618  0.3043  0.9043
 6832TIP3    H241988   0.540   1.655   4.509 -0.5106  0.4951 -0.7073
 6833TIP3   OH241989   2.795   1.975   5.235  0.4269 -0.3216 -0.7141
 6833TIP3    H141990   2.812   1.932   5.319 -0.7126  1.1538  0.3121
 6833TIP3    H241991   2.876   2.022   5.216  0.3913  0.0762  0.0448
 6834TIP3   OH241992   3.155   0.193   4.425  0.2954 -0.0032 -0.1072
 6834TIP3    H141993   3.227   0.143   4.464  1.8905 -0.0316 -2.8105
 6834TIP3    H241994   3.088   0.127   4.406  0.7425 -0.4604 -0.1217
 6835TIP3   OH241995   1.437   1.234   4.983  0.1046  1.3188 -0.6850
 6835TIP3    H141996   1.516   1.227   4.929 -1.1504 -0.0032 -2.4650
 6835TIP3    H241997   1.389   1.308   4.946 -1.6045 -0.6745 -2.6599
 6836TIP3   OH241998   2.520   3.067   4.183  0.0518 -0.1058  0.5001
 6836TIP3    H141999   2.548   3.032   4.268 -0.7012  1.9416  1.6710
 6836TIP3    H242000   2.590   3.127   4.158 -1.1296  1.6387  1.2376
 6837TIP3   OH242001   5.479   0.118  10.622 -0.0021  0.2940  0.4481
 6837TIP3    H142002   5.546   0.069  10.669 -0.6344 -0.2577  0.7935
 6837TIP3    H242003   5.514   0.207  10.616  0.8917 -0.0546  0.3456
 6838TIP3   OH242004   3.517   1.862   3.311  0.0021 -0.5886 -0.5253
 6838TIP3    H142005   3.435   1.823   3.340  0.6672 -0.5757  1.5087
 6838TIP3    H242006   3.513   1.952   3.344  1.1139 -0.7938  0.1968
 6839TIP3   OH242007   3.798   2.918   4.150  0.2041 -0.2044  0.1920
 6839TIP3    H142008   3.824   2.849   4.211 -0.8943  0.3582  1.3426
 6839TIP3    H242009   3.702   2.918   4.153  0.1770  1.2138  0.0416
 6840TIP3   OH242010   1.970   4.434  13.252 -0.6265 -0.6184  0.5374
 6840TIP3    H142011   2.043   4.465  13.305 -2.6019  0.7423  2.6531
 6840TIP3    H242012   1.937   4.512  13.208 -0.2694 -1.3916 -1.2329
 6841TIP3   OH242013   6.779   6.525   1.028  0.6324 -0.1554 -0.7095
 6841TIP3    H142014   6.833   6.524   0.949  1.7040  2.3182 -0.1085
 6841TIP3    H242015   6.819   6.459   1.085  2.0805  0.5054 -0.8988
 6842TIP3   OH242016   5.456   1.392  11.968  0.0178  0.6788  0.3115
 6842TIP3    H142017   5.420   1.323  11.912 -0.2691  0.7897  0.3533
 6842TIP3    H242018   5.488   1.346  12.046 -0.5449  0.6301  0.5212
 6843TIP3   OH242019   5.609   4.641   2.666 -0.6737  0.4101  0.2931
 6843TIP3    H142020   5.542   4.700   2.698 -1.1067 -1.3258  2.9337
 6843TIP3    H242021   5.685   4.697   2.649 -1.2647  1.8160  2.0334
 6844TIP3   OH242022   2.484   4.659   3.797 -0.0659 -0.1624 -0.1274
 6844TIP3    H142023   2.402   4.625   3.761 -0.3152  0.3606 -0.0713
 6844TIP3    H242024   2.459   4.743   3.836  0.3840 -0.2887  0.4382
 6845TIP3   OH242025   3.831   0.793   4.284 -0.3963 -0.2214  0.1192
 6845TIP3    H142026   3.886   0.797   4.206  0.3803 -0.5950  0.6404
 6845TIP3    H242027   3.744   0.818   4.253 -0.7355 -3.0405 -1.4583
 6846TIP3   OH242028   0.986   3.299   1.312 -0.4499 -0.4786  0.0275
 6846TIP3    H142029   1.068   3.262   1.278 -1.0308  0.2193 -2.2399
 6846TIP3    H242030   1.011   3.388   1.341  0.0306 -1.0579  1.5309
 6847TIP3   OH242031   5.154   1.339   2.018  0.2340 -0.5532 -0.1894
 6847TIP3    H142032   5.209   1.300   2.086  0.8936 -0.0300 -0.4182
 6847TIP3    H242033   5.065   1.315   2.043  0.1333  2.1160  2.5650
 6848TIP3   OH242034   0.544   0.123  13.540 -0.3906  0.0434 -0.6565
 6848TIP3    H142035   0.569   0.035  13.510  2.5519  0.4607  0.1983
 6848TIP3    H242036   0.627   0.170  13.545 -1.4044  1.7656  2.3670
 6849TIP3   OH242037   3.139   1.383  13.481 -0.2198  0.6127 -0.2948
 6849TIP3    H142038   3.196   1.371  13.405 -0.7643  0.8045 -0.7354
 6849TIP3    H242039   3.178   1.328  13.549 -1.1433 -1.6340 -1.4580
 6850TIP3   OH242040   0.841   1.830   0.154  0.6061 -0.0271  0.2118
 6850TIP3    H142041   0.891   1.834   0.235  0.8318 -2.8157  0.3054
 6850TIP3    H242042   0.762   1.780   0.177  0.0702  0.2081 -1.0244
 6851TIP3   OH242043   4.653   3.462  13.883  0.1972 -0.0484  0.1543
 6851TIP3    H142044   4.707   3.398  13.837  1.1091  0.5635  0.3701
 6851TIP3    H242045   4.576   3.472  13.827  0.0157 -1.3445  0.1205
 6852TIP3   OH242046   3.383   1.058  12.201  0.2576 -0.3383  0.7882
 6852TIP3    H142047   3.382   1.083  12.293 -2.3332  0.1498  0.7045
 6852TIP3    H242048   3.401   1.139  12.154 -1.2693  0.0183  0.7841
 6853TIP3   OH242049   2.121   6.465   1.243 -0.2272 -0.4103  0.0994
 6853TIP3    H142050   2.115   6.379   1.284 -0.3053 -1.8407 -2.6791
 6853TIP3    H242051   2.214   6.487   1.247  0.0287 -1.3514 -0.5389
 6854TIP3   OH242052   0.316   0.261   3.360 -0.6354 -0.5610  0.5560
 6854TIP3    H142053   0.341   0.353   3.373 -0.4455 -0.3118 -1.3113
 6854TIP3    H242054   0.230   0.266   3.317 -1.1838 -1.3000  1.5269
 6855TIP3   OH242055   6.290   2.081  14.518 -0.6486 -0.6842 -0.9326
 6855TIP3    H142056   6.357   2.020  14.546 -1.3272 -1.0160  0.0105
 6855TIP3    H242057   6.264   2.050  14.431  0.8211 -0.1935 -1.5720
 6856TIP3   OH242058   0.701   4.023  12.447 -0.1567  0.0233 -0.0087
 6856TIP3    H142059   0.794   4.044  12.440 -0.1134  0.5475  1.6313
 6856TIP3    H242060   0.699   3.938  12.493 -0.4792  0.3465  0.5940
 6857TIP3   OH242061   4.652   1.687   4.283  0.0650 -0.2746  0.2379
 6857TIP3    H142062   4.627   1.713   4.195  0.5578 -2.4404 -0.6126
 6857TIP3    H242063   4.711   1.756   4.314 -0.1533  0.5348 -1.0938
 6858TIP3   OH242064   5.243   3.609   1.926 -0.7395  0.0656 -0.2929
 6858TIP3    H142065   5.152   3.634   1.938 -0.3716  1.6668 -0.6774
 6858TIP3    H242066   5.289   3.648   2.001 -0.8245 -3.8440  2.0702
 6859TIP3   OH242067   4.810   4.218  14.567  0.4997 -0.5050  0.3289
 6859TIP3    H142068   4.765   4.227  14.652 -0.4566 -0.6050 -0.1544
 6859TIP3    H242069   4.744   4.244  14.503  1.2017 -0.4909 -0.3959
 6860TIP3   OH242070   3.045   0.816   0.331 -0.0501  0.0502 -0.1558
 6860TIP3    H142071   3.130   0.791   0.367 -0.1213 -0.9436 -0.6487
 6860TIP3    H242072   3.004   0.868   0.400  0.0141 -1.4030  1.0289
 6861TIP3   OH242073   1.050   3.194   0.260 -0.1590  0.3898  0.5439
 6861TIP3    H142074   1.033   3.275   0.213  0.4608  0.3674  0.2747
 6861TIP3    H242075   1.129   3.159   0.220  0.1897  0.2033  1.3809
 6862TIP3   OH242076   2.737   1.302  14.861  0.1733  0.1815 -0.0779
 6862TIP3    H142077   2.827   1.272  14.851 -0.0219 -0.1085 -1.0633
 6862TIP3    H242078   2.730   1.328  14.953  0.9955 -0.6832  0.2445
 6863TIP3   OH242079   3.039   5.659   1.073 -0.1692 -0.3296  0.1057
 6863TIP3    H142080   3.112   5.633   1.016 -0.9433 -1.7310 -0.3200
 6863TIP3    H242081   3.077   5.668   1.160  0.5878 -0.6696 -0.1836
 6864TIP3   OH242082   1.193   4.039  10.427 -0.0542 -0.9253  0.3322
 6864TIP3    H142083   1.134   4.042  10.502 -0.9407  0.4671 -0.3921
 6864TIP3    H242084   1.239   4.123  10.428  0.2987 -1.0959 -0.3995
 6865TIP3   OH242085   5.191   5.022  10.945  0.2094 -0.2050 -0.2712
 6865TIP3    H142086   5.151   5.083  11.007  0.7302 -0.9997  0.8912
 6865TIP3    H242087   5.282   5.052  10.939  1.1757 -2.2439  2.2738
 6866TIP3   OH242088   5.433   0.024  11.153 -0.0207 -0.1958  0.0303
 6866TIP3    H142089   5.358  -0.019  11.113 -0.9002  0.4152  0.9800
 6866TIP3    H242090   5.506   0.006  11.093 -0.7727 -1.3459 -0.5727
 6867TIP3   OH242091   3.390   1.931  15.025  0.3723  0.4008 -0.0371
 6867TIP3    H142092   3.359   1.920  15.115  2.0833  1.7681  0.7691
 6867TIP3    H242093   3.398   2.025  15.013  0.7066  0.2219 -1.4399
 6868TIP3   OH242094   3.586   2.834   1.485  0.1919 -0.3156  0.0629
 6868TIP3    H142095   3.562   2.927   1.483  2.8961  0.5067  0.8504
 6868TIP3    H242096   3.504   2.788   1.499 -1.1732  1.9900  0.1790
 6869TIP3   OH242097   3.120   1.668   3.963 -0.1314  0.0233 -0.0735
 6869TIP3    H142098   3.211   1.675   3.935  0.2560  0.4288  1.1894
 6869TIP3    H242099   3.124   1.619   4.046 -0.9665  0.7120  0.3945
 6870TIP3   OH242100   2.586   3.518  15.078 -0.1612 -0.5850  0.0203
 6870TIP3    H142101   2.582   3.426  15.052 -1.8448 -0.4102 -0.4819
 6870TIP3    H242102   2.498   3.538  15.109  0.2673  0.7723  0.4583
 6871TIP3   OH242103   0.165   4.765  15.515  0.0564 -0.2109 -0.2771
 6871TIP3    H142104   0.112   4.687  15.498  0.5720 -0.7008  0.3403
 6871TIP3    H242105   0.215   4.744  15.593  1.4306  0.0976 -1.0354
 6872TIP3   OH242106   4.840   0.354  11.571 -0.5192  0.0321 -0.7808
 6872TIP3    H142107   4.753   0.368  11.532 -1.7547  0.1373  1.7886
 6872TIP3    H242108   4.873   0.443  11.586 -0.2212 -0.0059 -1.1981
 6873TIP3   OH242109   5.911   1.340   1.127 -0.0504  0.4446  0.2050
 6873TIP3    H142110   5.923   1.313   1.036 -2.3170 -0.4806  0.1185
 6873TIP3    H242111   5.891   1.434   1.121 -0.1809  0.3912 -0.2654
 6874TIP3   OH242112   0.601   1.263   4.985 -0.2772 -0.4216  0.3806
 6874TIP3    H142113   0.519   1.281   5.032 -1.4576  0.5226 -1.8711
 6874TIP3    H242114   0.663   1.327   5.020 -1.3391  0.7720  0.1543
 6875TIP3   OH242115   5.242   4.156  13.615 -0.6114 -0.2682 -0.2251
 6875TIP3    H142116   5.277   4.223  13.556 -0.3868  0.0198  0.2317
 6875TIP3    H242117   5.188   4.204  13.677 -2.2373 -0.7541 -1.1898
 6876TIP3   OH242118   5.082   4.763  13.987 -0.3120 -0.1294  0.4227
 6876TIP3    H142119   5.174   4.786  13.978 -0.5403  0.0846 -3.6709
 6876TIP3    H242120   5.036   4.847  13.992 -0.3863 -0.0286 -1.1841
 6877TIP3   OH242121   4.056   4.232  11.511 -0.2512  0.3821  0.2120
 6877TIP3    H142122   4.085   4.323  11.505 -0.9556  0.5172 -1.7047
 6877TIP3    H242123   4.133   4.181  11.488 -0.8734  0.6852 -3.0131
 6878TIP3   OH242124   5.020   3.347  15.570  0.0226 -0.0116  0.0275
 6878TIP3    H142125   5.062   3.352  15.655  0.6524  0.4480 -0.2999
 6878TIP3    H242126   5.088   3.316  15.511 -0.4745 -0.5650 -0.2716
 6879TIP3   OH242127   1.260   3.128  11.335 -0.0480  0.7049  0.1657
 6879TIP3    H142128   1.314   3.053  11.311 -1.5742  0.1382 -1.6494
 6879TIP3    H242129   1.323   3.192  11.369  1.5354 -0.5883 -0.2208
 6880TIP3   OH242130   5.229   5.018  16.157 -0.4028  0.1586 -0.6697
 6880TIP3    H142131   5.183   4.935  16.172 -1.3818  0.9696  1.1297
 6880TIP3    H242132   5.159   5.084  16.156  0.5401  1.2231  0.3517
 6881TIP3   OH242133   4.916   2.923  10.532  0.2910 -0.0370 -0.1392
 6881TIP3    H142134   4.870   2.971  10.600 -0.8400 -1.1441 -0.1049
 6881TIP3    H242135   4.945   2.991  10.470 -1.3340  0.6983 -0.1361
 6882TIP3   OH242136   0.178   0.936   4.710  0.3104  0.3580 -0.1619
 6882TIP3    H142137   0.242   0.975   4.650  0.2384 -1.7688 -1.7487
 6882TIP3    H242138   0.193   0.841   4.703 -0.0708 -0.0270  2.8513
 6883TIP3   OH242139   0.268   5.052  12.079 -0.1803 -0.2087  0.0250
 6883TIP3    H142140   0.253   5.137  12.039  0.6881 -0.4255 -0.8009
 6883TIP3    H242141   0.233   5.061  12.168 -1.0198  0.6731 -0.3729
 6884TIP3   OH242142   2.009   1.003  15.343  0.0685  0.3698  0.2269
 6884TIP3    H142143   2.025   1.028  15.251  0.8538 -0.0603  0.2366
 6884TIP3    H242144   1.914   0.993  15.348  0.0317  0.1687 -0.6036
 6885TIP3   OH242145   3.137   4.514   3.275 -0.3345  0.5695  0.3823
 6885TIP3    H142146   3.081   4.507   3.353  0.3182  0.3001  0.8377
 6885TIP3    H242147   3.095   4.457   3.211 -1.4108  1.5396  0.2057
 6886TIP3   OH242148   5.373   0.529  15.474  0.0316  0.1957 -0.3469
 6886TIP3    H142149   5.464   0.506  15.457 -0.3081  0.4177 -2.8677
 6886TIP3    H242150   5.364   0.618  15.441 -1.0709  0.2255 -0.0116
 6887TIP3   OH242151   6.280   4.484  13.319  0.1621  0.0563  0.1537
 6887TIP3    H142152   6.298   4.572  13.287 -1.8510 -0.5538 -3.1342
 6887TIP3    H242153   6.191   4.465  13.289 -0.4426 -2.2507  2.9087
 6888TIP3   OH242154   4.667   3.214   0.287  0.3022 -0.5853  0.3652
 6888TIP3    H142155   4.732   3.269   0.244 -0.0013 -1.0771 -0.7603
 6888TIP3    H242156   4.714   3.135   0.311  0.3033 -0.6105  0.2798
 6889TIP3   OH242157   1.399   2.572  16.355  0.3146  0.3179 -0.3666
 6889TIP3    H142158   1.488   2.542  16.341  0.6701  0.8872  0.6019
 6889TIP3    H242159   1.344   2.496  16.332  1.0061  0.1133 -1.3912
 6890TIP3   OH242160   1.023   3.390   4.833 -0.7376  0.3400 -0.4507
 6890TIP3    H142161   0.983   3.362   4.915 -0.9724  0.2736 -0.5874
 6890TIP3    H242162   1.016   3.485   4.834 -2.1280  0.2552 -1.0968
 6891TIP3   OH242163   2.755   6.763  16.642  0.2477 -0.2340  0.0659
 6891TIP3    H142164   2.702   6.842  16.639  0.6532  0.0204 -0.9240
 6891TIP3    H242165   2.844   6.793  16.662  0.3992 -0.4309 -0.2875
 6892TIP3   OH242166   0.294   1.138  10.907 -0.0524 -0.3224 -0.2102
 6892TIP3    H142167   0.282   1.062  10.851  0.4863  0.0146 -0.7951
 6892TIP3    H242168   0.372   1.182  10.872  1.3750 -1.0402  1.8425
 6893TIP3   OH242169   6.300   0.077   5.801  0.6763  0.1440  0.4036
 6893TIP3    H142170   6.318  -0.016   5.815  0.6053 -0.1920 -1.4443
 6893TIP3    H242171   6.227   0.078   5.739 -1.2336  1.4697  2.5447
 6894TIP3   OH242172   3.551   3.441  15.376 -0.3127 -0.1713 -0.0323
 6894TIP3    H142173   3.501   3.438  15.294 -1.8723  1.8771  0.7725
 6894TIP3    H242174   3.571   3.533  15.389  1.3507 -0.6489  1.0959
 6895TIP3   OH242175   0.790   6.178   1.032 -0.1783 -0.6216  0.0078
 6895TIP3    H142176   0.724   6.141   1.091 -0.4511  0.3049  0.3110
 6895TIP3    H242177   0.838   6.103   0.999 -0.6850 -1.2330  0.6302
 6896TIP3   OH242178   0.378   2.198   6.129 -0.2973  0.0484  0.1510
 6896TIP3    H142179   0.411   2.271   6.077  0.8451  1.2829  2.4534
 6896TIP3    H242180   0.306   2.235   6.180 -0.0499 -0.5259  0.9493
 6897TIP3   OH242181   5.398   1.308   0.123 -0.1403  0.0354 -0.1571
 6897TIP3    H142182   5.327   1.263   0.170 -0.7808  0.0296 -1.1098
 6897TIP3    H242183   5.355   1.380   0.079  0.1126 -1.0085 -2.2124
 6898TIP3   OH242184   3.156   0.982  14.686 -0.0059 -0.6575 -0.3014
 6898TIP3    H142185   3.115   1.064  14.661  2.0528  0.7593  0.6361
 6898TIP3    H242186   3.152   0.928  14.607  0.1056  0.9997 -1.4883
 6899TIP3   OH242187   5.645   1.476   0.550  0.1208 -0.3307 -0.4920
 6899TIP3    H142188   5.584   1.405   0.530 -0.9675  0.3480  0.2970
 6899TIP3    H242189   5.601   1.555   0.519  1.9241 -0.0738 -2.6870
 6900TIP3   OH242190   6.027   2.364   3.651  0.1085  0.6469 -0.1241
 6900TIP3    H142191   6.110   2.316   3.656 -0.1329  0.0304 -1.4222
 6900TIP3    H242192   6.046   2.449   3.691  1.9265  1.2220 -2.0191
 6901TIP3   OH242193   3.153   2.696   5.744 -0.3049  0.7265 -0.2758
 6901TIP3    H142194   3.195   2.766   5.794 -0.3721  0.1740  0.5656
 6901TIP3    H242195   3.116   2.637   5.810 -0.6232  0.1193 -0.9768
 6902TIP3   OH242196   2.867   0.818   0.570 -0.3553  0.0210  0.3571
 6902TIP3    H142197   2.875   0.822   0.665 -0.5317  1.9495  0.3273
 6902TIP3    H242198   2.872   0.725   0.550  2.0953 -0.3197  2.0432
 6903TIP3   OH242199   6.527   2.119   3.870  0.1160 -0.1545  0.1882
 6903TIP3    H142200   6.608   2.117   3.819 -0.4472  0.0273 -0.7451
 6903TIP3    H242201   6.496   2.209   3.861 -0.5599 -0.4127 -0.0641
 6904TIP3   OH242202   4.717   1.276  17.119 -0.5235 -0.1524  0.3198
 6904TIP3    H142203   4.682   1.228  17.044  0.7741 -0.5188 -0.0760
 6904TIP3    H242204   4.808   1.294  17.096 -0.6312  1.4248  0.9990
 6905TIP3   OH242205   3.448   4.767  16.789 -0.2638 -0.6228 -0.1747
 6905TIP3    H142206   3.542   4.772  16.775 -0.2968  0.7602 -0.0586
 6905TIP3    H242207   3.421   4.686  16.745  0.5719  0.3649 -2.6721
 6906TIP3   OH242208   1.839   2.780   4.708 -0.1989  0.4414  0.5415
 6906TIP3    H142209   1.757   2.829   4.714 -1.1519 -0.6828 -1.9912
 6906TIP3    H242210   1.901   2.830   4.760 -2.0468  2.2925  1.0716
 6907TIP3   OH242211   2.319   3.970  15.771  0.2669  0.2068  0.0989
 6907TIP3    H142212   2.296   3.893  15.825  1.3535 -0.7717 -0.7771
 6907TIP3    H242213   2.287   3.948  15.684  1.9609  0.0297 -0.5104
 6908TIP3   OH242214   3.761   2.092  11.510  0.1028 -0.3763  0.1254
 6908TIP3    H142215   3.810   2.166  11.472 -0.5631  0.2045  0.3728
 6908TIP3    H242216   3.671   2.124  11.516 -0.1377 -1.1120  0.5052
 6909TIP3   OH242217   5.947   0.586  15.408  0.1374  0.6205  0.6699
 6909TIP3    H142218   5.904   0.611  15.326 -1.3021 -3.1540  0.0809
 6909TIP3    H242219   6.039   0.577  15.386 -0.1522  0.2181 -0.4269
 6910TIP3   OH242220   1.827   2.944  11.305 -0.1318  0.1458  0.1100
 6910TIP3    H142221   1.881   2.998  11.364 -1.4448  0.6323  0.9302
 6910TIP3    H242222   1.889   2.889  11.259  0.8918 -1.7716  3.4585
 6911TIP3   OH242223   1.398   4.251   5.467 -0.5474  0.0727  0.6351
 6911TIP3    H142224   1.407   4.273   5.375  1.5632 -0.3265  0.6888
 6911TIP3    H242225   1.304   4.261   5.486 -1.1751 -0.7731 -1.7580
 6912TIP3   OH242226   4.216   1.637  15.280 -0.0725  0.2607  0.2981
 6912TIP3    H142227   4.238   1.692  15.356  0.3291 -0.8526  1.0223
 6912TIP3    H242228   4.299   1.595  15.256 -0.5823 -0.9270  0.5240
 6913TIP3   OH242229   1.057   5.593   3.202  0.1431  0.6408  0.6381
 6913TIP3    H142230   1.116   5.520   3.188  0.8354  1.3887 -0.4824
 6913TIP3    H242231   0.994   5.561   3.267 -0.0276 -1.2089 -0.3644
 6914TIP3   OH242232   0.888   5.611   1.135  0.2251 -0.5636 -0.0406
 6914TIP3    H142233   0.890   5.706   1.132 -0.4283 -0.5695 -0.9874
 6914TIP3    H242234   0.970   5.584   1.092 -0.1976 -0.4358 -0.9350
 6915TIP3   OH242235   3.007   5.540   6.299 -0.1749  0.1648 -0.8113
 6915TIP3    H142236   2.928   5.487   6.287  0.5916 -1.3411  0.4521
 6915TIP3    H242237   3.058   5.493   6.365  2.0699  0.7688 -2.0034
 6916TIP3   OH242238   0.913   3.157   5.565 -0.4402  0.4822  0.1111
 6916TIP3    H142239   0.969   3.116   5.631 -0.9131 -0.9838 -0.3606
 6916TIP3    H242240   0.974   3.205   5.509  0.6199 -2.2210 -1.2323
 6917TIP3   OH242241   0.086   2.073   0.647 -0.0397  0.1520  0.0993
 6917TIP3    H142242   0.067   2.119   0.730  1.4547 -0.0703  0.6025
 6917TIP3    H242243   0.147   2.132   0.602 -0.1890 -0.1254 -0.4618
 6918TIP3   OH242244   2.029   0.352  12.856  0.5504 -0.0148 -0.3371
 6918TIP3    H142245   2.079   0.277  12.826 -0.7231 -1.6867  1.4474
 6918TIP3    H242246   2.094   0.410  12.897  1.3594 -0.8637 -0.3976
 6919TIP3   OH242247   6.342   2.109  12.962 -0.4165 -0.1078  0.6752
 6919TIP3    H142248   6.256   2.087  12.926 -0.3700  0.7089  0.0236
 6919TIP3    H242249   6.399   2.036  12.936 -0.1867  0.8302 -1.7089
 6920TIP3   OH242250   1.161   1.211  16.292  0.0338 -0.0479 -0.1434
 6920TIP3    H142251   1.250   1.175  16.287 -0.4921 -1.2278 -2.5196
 6920TIP3    H242252   1.166   1.295  16.245 -0.0421 -0.0066 -0.0769
 6921TIP3   OH242253   0.862   5.207  16.344 -0.2759 -0.3408  0.0354
 6921TIP3    H142254   0.891   5.221  16.254  1.2770  1.9064  0.7975
 6921TIP3    H242255   0.767   5.223  16.341 -0.1857  0.0704 -1.1488
 6922TIP3   OH242256   5.875   3.229  11.014  0.3465 -0.4413 -0.5052
 6922TIP3    H142257   5.820   3.308  11.020  0.8230 -0.0978 -0.6095
 6922TIP3    H242258   5.844   3.186  10.934  1.0809  0.4274 -1.2966
 6923TIP3   OH242259   1.469   2.759  14.469 -0.6111  0.1547 -0.3507
 6923TIP3    H142260   1.556   2.798  14.456 -0.9356  0.9563 -0.1404
 6923TIP3    H242261   1.474   2.676  14.422 -0.4914  1.2318 -2.3837
 6924TIP3   OH242262   2.551   3.520  14.668  0.2327 -0.1720 -0.4057
 6924TIP3    H142263   2.514   3.554  14.586 -0.6556 -1.8491 -0.7459
 6924TIP3    H242264   2.483   3.536  14.734  1.4238  2.2739  0.3312
 6925TIP3   OH242265   4.279   2.780  12.208 -0.1323 -0.1485 -0.6190
 6925TIP3    H142266   4.323   2.806  12.289  0.6186 -0.7688 -0.8166
 6925TIP3    H242267   4.271   2.685  12.214  0.4573 -0.2719 -1.5232
 6926TIP3   OH242268   3.753   4.926   2.213 -0.4169  0.4095  0.6641
 6926TIP3    H142269   3.756   4.967   2.299  0.5384 -0.4003  1.0325
 6926TIP3    H242270   3.786   4.837   2.227 -3.4008 -0.9172  0.0876
 6927TIP3   OH242271   2.038   2.546  14.349 -0.3421  0.6103  0.0873
 6927TIP3    H142272   2.039   2.633  14.310  1.1296  1.1093  1.1107
 6927TIP3    H242273   2.021   2.562  14.442 -2.8828 -0.4625 -0.1295
 6928TIP3   OH242274   0.269   0.133   3.868  0.2050 -0.0944 -0.1709
 6928TIP3    H142275   0.261   0.219   3.828  1.1717 -0.3262 -0.9196
 6928TIP3    H242276   0.276   0.150   3.962 -0.0902  0.5980 -0.2666
 6929TIP3   OH242277   6.350   1.166   1.116 -0.5329 -0.3899  0.2652
 6929TIP3    H142278   6.352   1.094   1.179 -1.3436 -1.4672 -0.8791
 6929TIP3    H242279   6.259   1.172   1.089  0.1356 -1.9266 -2.8843
 6930TIP3   OH242280   0.379   6.517   2.615 -0.3929  0.4869 -0.4402
 6930TIP3    H142281   0.410   6.577   2.683 -3.0996  1.4031  0.1486
 6930TIP3    H242282   0.291   6.492   2.644  0.4865 -3.7508 -0.7507
 6931TIP3   OH242283   5.578   6.677  14.033  0.5397  0.2636 -0.3423
 6931TIP3    H142284   5.569   6.744  14.101  2.2122  0.2479 -0.0633
 6931TIP3    H242285   5.561   6.594  14.078 -1.6053  0.4615 -0.7025
 6932TIP3   OH242286   5.507   6.182   4.483 -0.2791 -0.6298 -0.6688
 6932TIP3    H142287   5.540   6.147   4.565 -2.4592  0.6813  0.8711
 6932TIP3    H242288   5.412   6.177   4.491 -0.6880  2.9330 -1.4782
 6933TIP3   OH242289   5.827   0.598  12.329  1.1327  0.1775 -0.2110
 6933TIP3    H142290   5.867   0.511  12.330  0.8138 -0.0734  2.9602
 6933TIP3    H242291   5.738   0.584  12.362  1.1281  1.6919  0.5120
 6934TIP3   OH242292   3.696   3.260   4.507  0.3001  0.4445  0.2592
 6934TIP3    H142293   3.738   3.214   4.434  1.6065  1.2479  0.4649
 6934TIP3    H242294   3.667   3.191   4.566  0.4150 -0.1661 -0.3892
 6935TIP3   OH242295   5.777   3.289   5.245  0.5846  0.0515  0.3169
 6935TIP3    H142296   5.812   3.232   5.313 -0.7089  0.7294  1.5811
 6935TIP3    H242297   5.782   3.377   5.282 -0.0006  0.4501 -0.5171
 6936TIP3   OH242298   6.193   1.056  13.803 -0.2657  0.1394 -0.4367
 6936TIP3    H142299   6.251   1.036  13.730 -0.8856  0.0415 -0.9080
 6936TIP3    H242300   6.163   0.971  13.835 -0.7288  0.2112 -0.6718
 6937TIP3   OH242301   2.892   5.864   3.044  1.2191  0.0308  0.1012
 6937TIP3    H142302   2.871   5.826   2.958 -0.1259  0.0369  0.4077
 6937TIP3    H242303   2.949   5.938   3.024  1.7023 -0.5384 -0.7068
 6938TIP3   OH242304   3.496   0.090   5.610 -0.2832 -0.2454 -0.2341
 6938TIP3    H142305   3.577   0.128   5.644 -0.1509 -0.4696 -0.2977
 6938TIP3    H242306   3.426   0.146   5.645 -0.0702  0.2816 -0.6303
 6939TIP3   OH242307   4.129   1.892   1.301 -0.0217  0.3242  0.4277
 6939TIP3    H142308   4.194   1.958   1.324 -0.4130  0.5753  0.8222
 6939TIP3    H242309   4.079   1.877   1.381  0.1874 -0.6040  0.3995
 6940TIP3   OH242310   5.798   0.870   4.443 -0.3362  0.1154  0.2267
 6940TIP3    H142311   5.815   0.777   4.460  0.8890  0.2304 -0.2653
 6940TIP3    H242312   5.846   0.888   4.362 -2.4728  0.6357 -0.9876
 6941TIP3   OH242313   1.899   6.590  16.561 -0.3217 -0.1410 -0.4501
 6941TIP3    H142314   1.888   6.680  16.529 -1.8967 -0.0448  0.2452
 6941TIP3    H242315   1.883   6.536  16.483 -2.2790  0.1428 -0.3061
 6942TIP3   OH242316   0.051   5.580  12.607 -0.1771  0.0027 -0.2555
 6942TIP3    H142317   0.001   5.658  12.631  0.7968  0.5946 -0.1052
 6942TIP3    H242318   0.086   5.600  12.520  0.8712  0.1483  0.1833
 6943TIP3   OH242319   5.451   1.742   0.188 -0.3670  0.0635 -0.1060
 6943TIP3    H142320   5.522   1.782   0.137  0.2588 -0.2687  0.4817
 6943TIP3    H242321   5.376   1.799   0.173 -0.0757  0.2182 -1.0402
 6944TIP3   OH242322   3.484   2.464   5.384 -0.1278  0.5511  0.1621
 6944TIP3    H142323   3.408   2.449   5.441  0.1931 -0.5595  0.3276
 6944TIP3    H242324   3.535   2.383   5.391  1.3418  1.4782  0.4633
 6945TIP3   OH242325   2.565   6.506  14.302  0.2778  0.2834 -0.1556
 6945TIP3    H142326   2.606   6.466  14.226  0.0422 -0.7238  0.2310
 6945TIP3    H242327   2.492   6.448  14.323  0.1147  0.7523  0.6134
 6946TIP3   OH242328   3.415   4.823   0.466  0.5688 -0.1952 -0.7763
 6946TIP3    H142329   3.420   4.912   0.502 -0.1344 -0.2026 -0.6490
 6946TIP3    H242330   3.504   4.790   0.471  0.5003 -0.2045  0.9600
 6947TIP3   OH242331   5.413   4.758   5.295 -0.0684 -0.1136  0.5717
 6947TIP3    H142332   5.490   4.767   5.239 -0.4431  0.6227  0.1506
 6947TIP3    H242333   5.358   4.693   5.250 -0.5560  0.7748 -0.1608
 6948TIP3   OH242334   1.053   5.720  12.514  0.2846 -0.1478  0.6846
 6948TIP3    H142335   0.983   5.702  12.577  0.9821 -0.7904  1.3060
 6948TIP3    H242336   1.112   5.645  12.523  0.7839  0.1346 -0.1983
 6949TIP3   OH242337   5.748   1.353   2.354 -0.2597 -0.8581 -0.0842
 6949TIP3    H142338   5.777   1.443   2.337  0.6296 -1.4727 -2.1071
 6949TIP3    H242339   5.748   1.346   2.449  2.0691  0.5494  0.1103
 6950TIP3   OH242340   5.595   6.711  12.954 -0.0253 -0.1531  0.3839
 6950TIP3    H142341   5.542   6.635  12.979  3.4952 -2.2667  2.3146
 6950TIP3    H242342   5.546   6.787  12.986 -1.8561 -1.9240  2.0503
 6951TIP3   OH242343   0.140   2.624  11.397 -0.4411 -0.2064 -0.0520
 6951TIP3    H142344   0.156   2.531  11.407  0.7849 -0.0017  0.0080
 6951TIP3    H242345   0.219   2.658  11.355 -0.3399  1.0083  1.0632
 6952TIP3   OH242346   1.198   4.215  16.402 -0.0176  0.0729  0.0693
 6952TIP3    H142347   1.289   4.213  16.375  0.1697  0.0816  0.6955
 6952TIP3    H242348   1.200   4.244  16.493 -0.6948  0.7824 -0.1301
 6953TIP3   OH242349   4.615   3.019  13.862 -0.5707 -0.2151 -0.6816
 6953TIP3    H142350   4.595   2.990  13.951 -1.6423  0.3964 -0.7087
 6953TIP3    H242351   4.600   3.114  13.864  2.2538  0.3156 -0.7479
 6954TIP3   OH242352   3.744   4.419  17.037 -0.4641 -0.1667  0.0665
 6954TIP3    H142353   3.765   4.429  16.945 -0.9786 -0.9623 -0.1476
 6954TIP3    H242354   3.802   4.480  17.082 -1.0510  1.1303 -0.8736
 6955TIP3   OH242355   2.924   5.556   5.658 -0.0755 -0.0384  0.4227
 6955TIP3    H142356   2.842   5.586   5.619 -0.3727 -0.6433  0.5705
 6955TIP3    H242357   2.943   5.620   5.726 -0.9608 -0.4328  1.0661
 6956TIP3   OH242358   6.112   4.649   3.149  0.2308  0.5335 -0.4102
 6956TIP3    H142359   6.032   4.678   3.191  0.2253  0.1133 -0.1182
 6956TIP3    H242360   6.182   4.698   3.192  0.1716  0.5514 -0.3353
 6957TIP3   OH242361   4.268   0.358  17.136  0.1655 -0.0316  0.2287
 6957TIP3    H142362   4.269   0.427  17.201  2.0479  1.7884 -1.5679
 6957TIP3    H242363   4.346   0.306  17.155 -0.8147 -1.2512  1.0847
 6958TIP3   OH242364   4.251   0.534   5.159 -0.0821 -0.0824  0.1319
 6958TIP3    H142365   4.173   0.495   5.120 -0.8058  1.1853  0.2536
 6958TIP3    H242366   4.230   0.540   5.253  0.2319  0.1120  0.1915
 6959TIP3   OH242367   5.021   3.523   0.722  0.3820 -0.7153  0.1377
 6959TIP3    H142368   5.055   3.604   0.759  0.3256 -1.1233  1.1048
 6959TIP3    H242369   5.030   3.459   0.792 -0.0094 -1.4337 -0.4579
 6960TIP3   OH242370   4.986   1.828  16.568 -0.2237  0.0069  0.2396
 6960TIP3    H142371   5.072   1.820  16.610 -0.2759 -1.6974  0.1121
 6960TIP3    H242372   4.974   1.922  16.555  1.2287  0.3401  1.0628
 6961TIP3   OH242373   0.218   3.749  13.337 -0.1208 -0.5595 -0.0572
 6961TIP3    H142374   0.278   3.805  13.385  2.0989 -1.0978 -2.0339
 6961TIP3    H242375   0.148   3.807  13.307 -0.2897  0.2070  1.7410
 6962TIP3   OH242376   5.917   3.165  13.327 -0.1240 -0.6249  0.0859
 6962TIP3    H142377   6.003   3.125  13.343  0.4855  0.6315  0.0522
 6962TIP3    H242378   5.884   3.121  13.248 -1.2491 -3.8206  2.1275
 6963TIP3   OH242379   1.064   5.933   5.845 -0.0199  0.2586  0.1408
 6963TIP3    H142380   1.012   5.854   5.862  0.0458  0.6194  2.4167
 6963TIP3    H242381   1.080   5.970   5.932 -0.0248  2.7781 -0.8315
 6964TIP3   OH242382   2.488   1.522  17.029  0.0815 -0.3945 -0.0359
 6964TIP3    H142383   2.465   1.615  17.034 -0.4641 -0.5095  4.4886
 6964TIP3    H242384   2.580   1.521  17.002  0.2670  1.5220  0.4028
 6965TIP3   OH242385   1.126   4.409   1.380 -0.6372 -0.6766  0.0226
 6965TIP3    H142386   1.043   4.366   1.398 -1.3683 -0.1030 -1.7451
 6965TIP3    H242387   1.159   4.367   1.301 -0.4221  0.6646 -0.6350
 6966TIP3   OH242388   3.306   5.576  13.665  0.2464  0.2200  0.8685
 6966TIP3    H142389   3.374   5.640  13.687 -0.2053  0.9649  0.1895
 6966TIP3    H242390   3.231   5.602  13.718 -0.4789  1.3234 -0.6138
 6967TIP3   OH242391   3.376   2.399  14.163  0.5178  0.8711 -0.2533
 6967TIP3    H142392   3.308   2.427  14.102  0.8938 -0.5502 -1.3892
 6967TIP3    H242393   3.333   2.336  14.220  0.0036  2.6637  1.4459
 6968TIP3   OH242394   5.834   0.275  15.174  0.7123 -0.0857  0.1484
 6968TIP3    H142395   5.918   0.288  15.129  1.1992  3.1884  1.7452
 6968TIP3    H242396   5.773   0.253  15.104  2.2936  0.4855 -1.4995
 6969TIP3   OH242397   6.384   2.840   0.658  0.2650  0.1350 -0.4486
 6969TIP3    H142398   6.433   2.762   0.633 -3.1530 -2.4369  0.0565
 6969TIP3    H242399   6.439   2.913   0.630  4.0705 -2.3538 -0.2299
 6970TIP3   OH242400   4.862   4.766  16.322 -0.7428 -0.0657 -0.3013
 6970TIP3    H142401   4.943   4.767  16.373  1.2453  0.0794 -3.2124
 6970TIP3    H242402   4.826   4.678  16.335 -0.3910  0.0028  1.3641
 6971TIP3   OH242403   4.002   2.655   0.347  0.2647 -0.0872  0.5478
 6971TIP3    H142404   3.975   2.632   0.436  1.9450 -2.2674  0.5873
 6971TIP3    H242405   4.095   2.677   0.355  1.4184 -3.5966 -0.9981
 6972TIP3   OH242406   3.170   4.553   5.893 -0.6667 -0.8991  0.1366
 6972TIP3    H142407   3.144   4.570   5.983 -0.2380  1.7930 -0.1723
 6972TIP3    H242408   3.087   4.555   5.844 -0.8435 -1.8899  0.3618
 6973TIP3   OH242409   6.300   4.869  13.401  0.6599 -0.0600 -0.8521
 6973TIP3    H142410   6.372   4.821  13.442  0.6659  1.0081  0.4912
 6973TIP3    H242411   6.335   4.896  13.316  1.1917 -1.0743 -0.9756
 6974TIP3   OH242412   3.382   4.747   5.871  0.2116 -0.0134 -0.2003
 6974TIP3    H142413   3.458   4.737   5.928  0.6217 -0.8679 -0.8754
 6974TIP3    H242414   3.320   4.681   5.902 -0.0015  0.2543 -0.0542
 6975TIP3   OH242415   0.363   6.229  16.246  0.5787  0.1293 -0.1695
 6975TIP3    H142416   0.293   6.289  16.271  0.8484  0.6107 -0.5611
 6975TIP3    H242417   0.327   6.181  16.171 -0.0011 -0.8945  0.7161
 6976TIP3   OH242418   4.812   6.161  13.134 -0.1669  0.2220 -0.0103
 6976TIP3    H142419   4.893   6.192  13.176  0.8103 -0.1795 -1.5194
 6976TIP3    H242420   4.771   6.104  13.199  1.1514 -0.1660  0.5051
 6977TIP3   OH242421   2.720   0.224  16.822 -0.4368 -0.4891  0.2129
 6977TIP3    H142422   2.728   0.148  16.880  0.3766 -1.0103 -0.5476
 6977TIP3    H242423   2.653   0.199  16.758 -2.3703  0.6333  1.7022
 6978TIP3   OH242424   5.510   5.908  14.956  0.3970 -0.0888 -0.4436
 6978TIP3    H142425   5.472   5.891  15.042 -0.3477  1.9288 -0.3317
 6978TIP3    H242426   5.444   5.879  14.894 -1.3114  2.9699 -0.2511
 6979TIP3   OH242427   3.510   6.119   2.988 -0.2645  0.4832 -0.4193
 6979TIP3    H142428   3.575   6.189   2.987  0.8581 -0.4377  1.7136
 6979TIP3    H242429   3.561   6.038   2.991 -1.4386 -0.2664  1.4424
 6980TIP3   OH242430   0.367   0.716  10.639  0.0705  0.0903  0.3301
 6980TIP3    H142431   0.451   0.720  10.593  0.0683 -2.3074 -0.0068
 6980TIP3    H242432   0.382   0.655  10.711 -1.3315 -0.2135  0.3935
 6981TIP3   OH242433   0.641   4.675  15.668 -0.0737 -0.4662 -0.5281
 6981TIP3    H142434   0.724   4.719  15.683 -0.4613  0.9867 -2.3010
 6981TIP3    H242435   0.665   4.590  15.630  0.6192  0.5985 -2.5877
 6982TIP3   OH242436   0.338   0.598   1.130  0.6981 -0.1114  0.0621
 6982TIP3    H142437   0.348   0.514   1.174  0.9909 -0.0906  0.0317
 6982TIP3    H242438   0.423   0.616   1.090 -0.3716 -1.6393 -3.2327
 6983TIP3   OH242439   1.375   3.050  14.304  0.3028  0.4595 -0.5585
 6983TIP3    H142440   1.442   3.101  14.351 -0.2552  1.0291 -0.3611
 6983TIP3    H242441   1.360   2.973  14.360 -1.0429  1.5928  0.7485
 6984TIP3   OH242442   2.107   6.414  13.962 -0.4485 -0.1761  0.4358
 6984TIP3    H142443   2.148   6.500  13.962  1.3357 -0.9596  1.7594
 6984TIP3    H242444   2.052   6.414  13.883  0.4297  1.7243 -0.2457
 6985TIP3   OH242445   2.162   2.806   4.012  0.3131  0.1634  0.2078
 6985TIP3    H142446   2.082   2.827   4.060 -0.1970 -1.4769  0.1246
 6985TIP3    H242447   2.232   2.817   4.076  0.1092  1.9607  0.1868
 6986TIP3   OH242448   1.451   4.913  13.882 -0.6728  0.4581  1.1661
 6986TIP3    H142449   1.446   4.934  13.789  1.3294  1.9245  1.3272
 6986TIP3    H242450   1.390   4.974  13.924  0.0398  1.3031  0.9943
 6987TIP3   OH242451   0.613   6.464  12.963  0.4875 -0.2535  0.1185
 6987TIP3    H142452   0.643   6.530  12.901  2.2096 -1.5127 -0.4886
 6987TIP3    H242453   0.582   6.514  13.039 -0.7341  1.2829 -1.3222
 6988TIP3   OH242454   1.170   1.712   1.964 -0.0861 -0.0688 -0.0039
 6988TIP3    H142455   1.185   1.677   2.052 -0.9063 -0.0081  0.1682
 6988TIP3    H242456   1.148   1.635   1.912 -2.0661  0.1554  0.4136
 6989TIP3   OH242457   6.218   3.047  10.170 -0.1944 -0.3112  0.3291
 6989TIP3    H142458   6.144   3.082  10.221 -0.2088 -2.1632  1.7240
 6989TIP3    H242459   6.277   3.012  10.237  0.2586 -1.9818 -0.9044
 6990TIP3   OH242460   4.604   1.193   5.382 -0.4468 -0.3722 -0.1548
 6990TIP3    H142461   4.665   1.203   5.456  0.8932 -1.9540 -0.9908
 6990TIP3    H242462   4.546   1.122   5.410 -0.2077 -0.6779 -0.4239
 6991TIP3   OH242463   5.668   6.420  10.561 -0.3772 -0.4438 -0.2373
 6991TIP3    H142464   5.750   6.389  10.524 -0.3216  0.7998 -1.2049
 6991TIP3    H242465   5.666   6.514  10.542 -2.5634 -0.6369 -1.3230
 6992TIP3   OH242466   5.624   6.371   0.175  0.3821  0.2304 -0.3856
 6992TIP3    H142467   5.693   6.304   0.176  1.0085  0.8525  0.6098
 6992TIP3    H242468   5.664   6.446   0.219 -0.1835  1.3918 -1.7597
 6993TIP3   OH242469   4.785   1.379  15.610  0.4452  1.0222 -0.3875
 6993TIP3    H142470   4.859   1.334  15.569 -0.2907  1.6832 -2.5402
 6993TIP3    H242471   4.730   1.308  15.644  0.9456  0.4458 -0.7516
 6994TIP3   OH242472   3.957   4.183   2.846 -0.3430  0.5240  0.1354
 6994TIP3    H142473   4.006   4.257   2.884 -0.0568  0.2610  0.2806
 6994TIP3    H242474   3.880   4.174   2.902  0.1824  0.0040  0.7818
 6995TIP3   OH242475   3.817   5.045   4.209 -0.0849 -0.3518 -0.0429
 6995TIP3    H142476   3.813   5.042   4.304  0.4944  1.5679  0.0779
 6995TIP3    H242477   3.907   5.019   4.188  0.2615  0.7116  0.0555
 6996TIP3   OH242478   5.393   3.943   5.507  0.1002  0.0528  0.2668
 6996TIP3    H142479   5.487   3.933   5.492 -0.1171 -0.8377 -0.6032
 6996TIP3    H242480   5.387   4.013   5.571  1.3356  0.5040 -0.0712
 6997TIP3   OH242481   4.613   2.751   3.347 -0.2626  0.6083 -0.3537
 6997TIP3    H142482   4.563   2.683   3.303 -0.5420  1.6930 -1.7680
 6997TIP3    H242483   4.705   2.725   3.334 -0.3923 -0.3085  0.4832
 6998TIP3   OH242484   1.532   6.317  15.940 -0.4568 -0.2571 -0.6888
 6998TIP3    H142485   1.439   6.308  15.959 -0.4968  0.3275 -0.5952
 6998TIP3    H242486   1.572   6.238  15.977 -0.3426  1.3234  2.9814
 6999TIP3   OH242487   6.829   0.151   4.542 -0.5110 -0.1162 -0.0926
 6999TIP3    H142488   6.746   0.111   4.568 -0.8017  1.6489  1.9809
 6999TIP3    H242489   6.806   0.240   4.516  0.4187 -0.4453 -2.2834
 7000TIP3   OH242490   1.966   2.427  15.625 -0.0755 -0.0460 -0.0087
 7000TIP3    H142491   1.898   2.391  15.683  0.9227  0.3513  1.4785
 7000TIP3    H242492   2.037   2.362  15.630 -0.3842 -0.5499 -1.6874
 7001TIP3   OH242493   4.012   5.008   2.055  0.2307 -0.2675  0.6581
 7001TIP3    H142494   3.925   4.982   2.085 -0.7127  1.3109 -0.5372
 7001TIP3    H242495   4.026   4.958   1.974  0.3309 -0.3300  0.7136
 7002TIP3   OH242496   3.180   1.889   4.640 -0.1501  0.1723  0.4020
 7002TIP3    H142497   3.199   1.974   4.679  1.3529 -0.0283  0.1484
 7002TIP3    H242498   3.265   1.846   4.633 -0.8477 -1.2269  0.2222
 7003TIP3   OH242499   2.680   3.423   0.583 -0.1112  0.5997 -0.4436
 7003TIP3    H142500   2.707   3.367   0.657 -1.9299  0.7466  0.3734
 7003TIP3    H242501   2.751   3.414   0.520  0.4931 -1.2428  0.4187
 7004TIP3   OH242502   3.517   5.061  14.812 -0.0071 -0.0100 -1.0361
 7004TIP3    H142503   3.460   5.017  14.749  0.0891 -0.7943 -0.5911
 7004TIP3    H242504   3.467   5.063  14.893  0.5976 -0.7490 -0.6283
 7005TIP3   OH242505   0.036   3.509  15.720  0.0445 -0.6137 -0.2999
 7005TIP3    H142506   0.066   3.472  15.803 -2.0734 -1.0452  0.3295
 7005TIP3    H242507   0.014   3.433  15.666 -0.6436 -0.3373 -0.4252
 7006TIP3   OH242508   3.340   0.254  11.610 -0.4721  0.0565 -0.4102
 7006TIP3    H142509   3.320   0.280  11.520 -0.5564 -1.7193 -0.9453
 7006TIP3    H242510   3.430   0.220  11.606  0.1107  1.4208  0.5184
 7007TIP3   OH242511   1.362   5.262  11.823 -0.0534 -0.3649  0.3190
 7007TIP3    H142512   1.433   5.209  11.787  0.4876 -0.0472  0.8950
 7007TIP3    H242513   1.333   5.316  11.749 -0.5903 -1.4261 -0.2627
 7008TIP3   OH242514   2.968   2.770   3.485  0.1474 -0.3576 -0.2101
 7008TIP3    H142515   2.935   2.697   3.537  1.3622 -0.6793  0.1401
 7008TIP3    H242516   2.902   2.838   3.495  0.1124 -0.5836  1.3686
 7009TIP3   OH242517   0.360   6.561   0.523  0.2891 -0.3929 -0.3816
 7009TIP3    H142518   0.301   6.506   0.575 -0.3770 -0.8758 -1.6203
 7009TIP3    H242519   0.404   6.500   0.464  1.4454  0.0776 -0.0362
 7010TIP3   OH242520   6.246   3.469   3.946 -0.3367 -0.5490  0.1600
 7010TIP3    H142521   6.326   3.426   3.977 -0.2029  0.5880  1.5061
 7010TIP3    H242522   6.178   3.438   4.006 -1.0092 -1.7451 -1.1631
 7011TIP3   OH242523   3.502   1.650  14.641  0.2060 -0.2137  0.2992
 7011TIP3    H142524   3.414   1.668  14.609  0.3978  0.5208  0.1478
 7011TIP3    H242525   3.545   1.736  14.641  0.8252 -0.5163  0.6521
 7012TIP3   OH242526   1.612   5.190   0.724  0.6018  0.1914 -0.0435
 7012TIP3    H142527   1.670   5.131   0.771  1.3561  0.0388 -1.1230
 7012TIP3    H242528   1.663   5.220   0.649 -1.0617 -0.8868 -1.7209
 7013TIP3   OH242529   2.466   3.327  12.690  0.3272  0.0089 -0.6107
 7013TIP3    H142530   2.471   3.384  12.767  0.1089 -1.8826  0.8836
 7013TIP3    H242531   2.540   3.354  12.635  0.4164  1.4868  0.1948
 7014TIP3   OH242532   3.598   6.141   4.348  0.3679  0.3259 -0.3065
 7014TIP3    H142533   3.679   6.162   4.395 -0.3234 -0.1871  1.2001
 7014TIP3    H242534   3.589   6.046   4.360 -0.8610  0.4984  0.2741
 7015TIP3   OH242535   3.198   0.222  10.451 -0.0436 -0.6079 -0.4035
 7015TIP3    H142536   3.207   0.317  10.460 -0.0410 -0.6324 -0.1221
 7015TIP3    H242537   3.286   0.187  10.461 -0.1608 -0.7019  0.3800
 7016TIP3   OH242538   5.965   6.688   2.679 -0.0287  0.1310 -0.4053
 7016TIP3    H142539   5.872   6.706   2.692 -0.2410 -1.7855  1.2607
 7016TIP3    H242540   6.004   6.698   2.766  0.8320 -1.5104 -0.5583
 7017TIP3   OH242541   3.800   3.021  17.053 -0.4566  0.1378  0.2667
 7017TIP3    H142542   3.779   2.993  17.142  1.2994  0.8018  0.9363
 7017TIP3    H242543   3.857   2.952  17.019 -2.1181 -0.7547 -0.8613
 7018TIP3   OH242544   6.274   1.232  14.362 -0.3731 -0.3273 -0.4727
 7018TIP3    H142545   6.272   1.273  14.275  0.4512 -1.3270 -0.9826
 7018TIP3    H242546   6.319   1.296  14.417 -1.1612  0.4435 -0.6990
 7019TIP3   OH242547   1.379   0.042   2.523 -0.3667  0.4651 -0.4462
 7019TIP3    H142548   1.309   0.026   2.587 -1.6959 -0.6988 -2.0738
 7019TIP3    H242549   1.385  -0.041   2.474  2.2812  0.4963 -0.2838
 7020TIP3   OH242550   3.408   0.487   6.015 -0.4577 -0.1381 -0.4041
 7020TIP3    H142551   3.471   0.516   5.949 -0.6869 -0.7992 -0.9290
 7020TIP3    H242552   3.427   0.539   6.092  0.4220 -0.0015 -0.7114
 7021TIP3   OH242553   4.713   3.941   2.113 -1.0278 -0.2494 -0.5324
 7021TIP3    H142554   4.801   3.971   2.136 -1.3919  1.9300 -1.7642
 7021TIP3    H242555   4.671   3.922   2.197  0.0036  0.5029  0.1737
 7022TIP3   OH242556   3.809   2.951   4.917  0.1142 -0.5216 -0.6548
 7022TIP3    H142557   3.847   2.882   4.970 -1.6789 -0.8000  0.3578
 7022TIP3    H242558   3.748   2.905   4.859  0.1494  0.0472 -1.1495
 7023TIP3   OH242559   5.372   6.517  13.033 -0.4288 -0.1252  0.0669
 7023TIP3    H142560   5.278   6.521  13.014 -0.7996  0.0842  1.7700
 7023TIP3    H242561   5.392   6.423  13.036 -0.4803 -0.1660 -0.7093
 7024TIP3   OH242562   3.628   0.511  14.958 -0.0268 -0.1626 -0.3255
 7024TIP3    H142563   3.670   0.569  15.022  0.0648  1.1031 -1.4737
 7024TIP3    H242564   3.564   0.567  14.914 -0.2190 -1.0580 -1.2081
 7025TIP3   OH242565   1.263   6.233   4.063  0.2680  0.3211  0.1003
 7025TIP3    H142566   1.278   6.267   4.151 -1.2350 -1.2722  1.0459
 7025TIP3    H242567   1.174   6.197   4.066  0.2459  0.0424 -2.0222
 7026TIP3   OH242568   4.665   0.272  16.127 -0.6689  0.3427  0.4201
 7026TIP3    H142569   4.586   0.251  16.177 -0.6279  0.6069  0.5964
 7026TIP3    H242570   4.662   0.367  16.115 -0.6320  0.2922 -0.0055
 7027TIP3   OH242571   3.817   3.846  16.733  0.0332 -0.5563 -0.2391
 7027TIP3    H142572   3.842   3.914  16.671 -1.5941 -1.5111 -2.0301
 7027TIP3    H242573   3.845   3.880  16.818  1.4927  1.2073 -1.3578
 7028TIP3   OH242574   3.683   6.634  16.370 -0.6674  0.2710 -0.1562
 7028TIP3    H142575   3.687   6.727  16.348 -1.5009  0.3851  0.1533
 7028TIP3    H242576   3.590   6.614  16.377 -0.4795 -0.0626  2.0278
 7029TIP3   OH242577   3.083   0.295   5.052 -0.6759  0.0947  0.0896
 7029TIP3    H142578   3.061   0.325   4.964  0.8327  1.0990  0.0242
 7029TIP3    H242579   3.078   0.200   5.046 -2.6646  0.1808 -0.4892
 7030TIP3   OH242580   2.910   5.884   5.820 -0.2516 -0.2636  0.3287
 7030TIP3    H142581   2.981   5.820   5.818  0.4576  0.5270 -0.9321
 7030TIP3    H242582   2.949   5.964   5.786 -1.5735  0.3719  0.2483
 7031TIP3   OH242583   4.254   2.740   0.385  0.0744 -0.1612 -0.2090
 7031TIP3    H142584   4.296   2.765   0.467  2.5265  1.2637 -1.7720
 7031TIP3    H242585   4.307   2.782   0.317 -2.5601 -0.2751 -2.4976
 7032TIP3   OH242586   2.986   6.260  14.214  0.1816 -0.2257  0.1364
 7032TIP3    H142587   2.974   6.210  14.134  0.3385  1.2875 -0.8615
 7032TIP3    H242588   2.939   6.210  14.281 -1.8128 -0.3923 -1.3178
 7033TIP3   OH242589   6.693   1.237  16.589  0.4149 -0.1590 -0.4030
 7033TIP3    H142590   6.766   1.260  16.531  0.0925  0.6493 -0.5071
 7033TIP3    H242591   6.615   1.265  16.541  0.1751  1.1533  0.6814
 7034TIP3   OH242592   2.854   6.788   2.744  0.1346 -0.5304  0.5297
 7034TIP3    H142593   2.928   6.727   2.737 -0.4087 -1.1944  0.4268
 7034TIP3    H242594   2.826   6.782   2.836  1.5598  1.3617  1.1380
 7035TIP3   OH242595   6.126   5.097  13.499 -0.2029  0.0233  0.3698
 7035TIP3    H142596   6.191   5.028  13.485  0.0964 -0.5500  3.7096
 7035TIP3    H242597   6.119   5.104  13.594 -2.0102  2.9717  0.1501
 7036TIP3   OH242598   6.143   0.187  15.446 -0.4484  0.1798 -0.2576
 7036TIP3    H142599   6.154   0.128  15.371 -2.9499  0.5388 -1.0036
 7036TIP3    H242600   6.193   0.265  15.422  2.3561 -1.2607  0.4534
 7037TIP3   OH242601   6.834   1.912  13.817  0.3600  0.0830 -0.1859
 7037TIP3    H142602   6.912   1.955  13.782 -0.2667  0.7054 -0.8635
 7037TIP3    H242603   6.841   1.821  13.787 -0.1960  0.6159 -2.0481
 7038TIP3   OH242604   0.276   4.109  10.549  0.0569  0.4154  0.1656
 7038TIP3    H142605   0.201   4.096  10.493 -0.4976 -0.1470  1.0146
 7038TIP3    H242606   0.239   4.127  10.636  0.8893  0.7639  0.4684
 7039TIP3   OH242607   5.015   1.541  12.603  0.1522  0.5938 -0.6740
 7039TIP3    H142608   4.931   1.496  12.607  0.3855  0.2164  0.0943
 7039TIP3    H242609   5.017   1.596  12.681  0.3183  1.1549 -1.0639
 7040TIP3   OH242610   5.434   2.398   3.664  0.4928 -0.0189  0.5838
 7040TIP3    H142611   5.343   2.428   3.665 -0.7671 -2.8372 -3.4913
 7040TIP3    H242612   5.485   2.477   3.644 -1.3324  1.2355  0.6495
 7041TIP3   OH242613   3.954   5.652  16.328 -0.0861  0.7644 -0.5132
 7041TIP3    H142614   3.966   5.573  16.380  1.1213 -0.0456 -1.9285
 7041TIP3    H242615   4.043   5.688  16.319 -0.5324  1.9214 -0.4338
 7042TIP3   OH242616   6.812   5.219  14.106 -0.2984 -0.2666  0.3016
 7042TIP3    H142617   6.802   5.238  14.012  0.2419 -0.1842  0.2565
 7042TIP3    H242618   6.813   5.306  14.147  0.5915 -0.2570  0.2640
 7043TIP3   OH242619   6.446   5.973   0.780  0.0894 -0.4338  0.0922
 7043TIP3    H142620   6.449   6.032   0.705  1.2198 -0.0416  0.4168
 7043TIP3    H242621   6.461   5.886   0.743 -1.5714 -0.5418 -0.3895
 7044TIP3   OH242622   3.504   1.511  11.649  0.7992 -0.0485 -0.1601
 7044TIP3    H142623   3.421   1.491  11.606  0.9170  1.4227 -1.1544
 7044TIP3    H242624   3.527   1.432  11.697 -0.3756 -1.0342 -1.1798
 7045TIP3   OH242625   0.098   1.106  14.936 -0.0562 -0.3063 -0.4336
 7045TIP3    H142626   0.143   1.112  14.852  0.6431  1.3697  0.0400
 7045TIP3    H242627   0.006   1.093  14.912 -0.2097  2.2955 -1.5325
 7046TIP3   OH242628   2.706   1.300   6.312 -0.2361 -0.2082 -0.0246
 7046TIP3    H142629   2.644   1.332   6.247  0.2251  1.7347  0.4294
 7046TIP3    H242630   2.765   1.373   6.327  1.7284 -1.7454  0.1229
 7047TIP3   OH242631   4.193   6.651   1.583  0.3438  0.4379  0.1797
 7047TIP3    H142632   4.284   6.636   1.557  1.0391  3.4419  0.5052
 7047TIP3    H242633   4.165   6.726   1.530 -1.0013  1.2941  1.9881
 7048TIP3   OH242634   2.374   0.241   0.544 -0.2783  0.4046  0.5777
 7048TIP3    H142635   2.417   0.163   0.510 -4.8153 -0.1848 -5.3236
 7048TIP3    H242636   2.311   0.207   0.608 -3.2556 -1.4575 -2.9669
 7049TIP3   OH242637   3.348   6.549  13.755  0.3701 -0.7204 -0.2243
 7049TIP3    H142638   3.426   6.603  13.765 -0.7015  1.0711 -0.9534
 7049TIP3    H242639   3.371   6.485  13.688  1.5824 -1.0044  0.4370
 7050TIP3   OH242640   1.779   5.583  12.291 -0.4395  0.0900 -0.0610
 7050TIP3    H142641   1.851   5.555  12.235 -0.8070 -2.0080  0.4109
 7050TIP3    H242642   1.770   5.513  12.356 -2.3968  0.6470  0.3584
 7051TIP3   OH242643   5.598   0.231  13.539  0.8160  0.5851  0.2834
 7051TIP3    H142644   5.541   0.307  13.538  1.0907  0.9402 -3.2998
 7051TIP3    H242645   5.559   0.171  13.475  0.9050 -2.1316  2.5755
 7052TIP3   OH242646   1.261   4.449   4.665  0.4251 -0.2178  0.6179
 7052TIP3    H142647   1.178   4.496   4.673  1.1354  1.2215  0.0208
 7052TIP3    H242648   1.278   4.447   4.571  1.4529  0.2418  0.7804
 7053TIP3   OH242649   3.238   2.340   3.761 -0.0787  0.3489 -0.0433
 7053TIP3    H142650   3.319   2.348   3.811 -0.0967  0.2776 -0.0023
 7053TIP3    H242651   3.264   2.294   3.681  0.1256  1.2514 -0.5152
 7054TIP3   OH242652   4.851   3.189  11.921  0.2375  0.6843 -0.6187
 7054TIP3    H142653   4.854   3.095  11.901 -0.6279  0.5825 -0.3056
 7054TIP3    H242654   4.868   3.195  12.015 -2.9633  0.5202  0.0907
 7055TIP3   OH242655   6.450   3.244  14.202 -0.0841  0.2350 -0.3231
 7055TIP3    H142656   6.504   3.194  14.141 -1.9238 -0.8616 -1.1618
 7055TIP3    H242657   6.451   3.192  14.282 -0.8947 -0.4926 -0.7596
 7056TIP3   OH242658   3.057   2.369  14.418  0.2360 -0.1101  0.0364
 7056TIP3    H142659   3.058   2.276  14.394 -0.3883 -0.5760  1.6341
 7056TIP3    H242660   3.100   2.371  14.504 -1.6702  0.7282  1.0292
 7057TIP3   OH242661   0.263   3.976  13.941 -0.1658 -0.1546 -0.2981
 7057TIP3    H142662   0.240   3.952  14.031  0.0993 -1.3606 -0.5312
 7057TIP3    H242663   0.180   4.006  13.903  0.1357  2.7280  0.9941
 7058TIP3   OH242664   3.771   4.151  14.060  0.4186  0.1965  0.4689
 7058TIP3    H142665   3.679   4.127  14.049  0.8289 -2.5516  2.0924
 7058TIP3    H242666   3.782   4.230  14.007 -2.0182 -1.2909 -2.5726
 7059TIP3   OH242667   6.076   1.403  12.639 -0.4190 -0.2601 -0.4135
 7059TIP3    H142668   6.028   1.451  12.706 -0.8723  0.0799 -0.9662
 7059TIP3    H242669   6.106   1.323  12.682 -1.5466 -0.5139 -0.0653
 7060TIP3   OH242670   2.503   3.988   0.748  0.1177 -0.0743 -0.1132
 7060TIP3    H142671   2.535   3.900   0.731 -1.5291 -0.2938 -2.7227
 7060TIP3    H242672   2.528   4.038   0.671 -0.9711  1.1127  0.2626
 7061TIP3   OH242673   4.670   1.014  12.582  0.0957  0.4924 -0.2502
 7061TIP3    H142674   4.604   1.075  12.614 -2.3140 -1.0214 -1.9715
 7061TIP3    H242675   4.709   1.058  12.506  0.7369  1.1751  0.4576
 7062TIP3   OH242676   2.089   4.197  15.626 -0.2550 -0.1058  0.6343
 7062TIP3    H142677   2.142   4.157  15.695  0.2348 -1.5179 -0.5047
 7062TIP3    H242678   2.136   4.176  15.545 -2.3480 -1.1539 -0.3918
 7063TIP3   OH242679   1.920   1.813   2.633  0.6550 -0.0860 -0.1316
 7063TIP3    H142680   2.009   1.785   2.612  0.7897  1.4486 -1.9458
 7063TIP3    H242681   1.920   1.824   2.728  2.4493 -0.0435 -0.0956
 7064TIP3   OH242682   0.640   6.078   3.612 -0.3843 -0.1834 -0.0242
 7064TIP3    H142683   0.669   5.987   3.610  0.2843 -0.0051  0.8159
 7064TIP3    H242684   0.587   6.084   3.692 -1.2100 -0.0588 -0.5756
 7065TIP3   OH242685   6.531   0.111   2.748 -0.0155  0.2489 -0.2722
 7065TIP3    H142686   6.565   0.148   2.667 -0.3181 -0.2622 -0.6405
 7065TIP3    H242687   6.544   0.016   2.739  1.3635  0.2927  0.9424
 7066TIP3   OH242688   6.811   0.571   3.318 -0.0115 -0.5989 -0.2261
 7066TIP3    H142689   6.820   0.484   3.280  0.0633 -0.0920 -1.4235
 7066TIP3    H242690   6.722   0.598   3.295 -0.1136 -0.4469  0.3317
 7067TIP3   OH242691   2.215   0.418   2.937 -0.0009  0.2215  0.4631
 7067TIP3    H142692   2.277   0.346   2.932  0.4766  0.6612 -0.1409
 7067TIP3    H242693   2.242   0.478   2.867 -2.8138 -0.9486 -1.8064
 7068TIP3   OH242694   2.862   4.256   2.411 -0.0234  0.3668  0.3575
 7068TIP3    H142695   2.800   4.189   2.384  0.2240  0.5721 -0.7553
 7068TIP3    H242696   2.830   4.336   2.370  0.6303  0.5975  0.2860
 7069TIP3   OH242697   5.680   1.229   3.496 -0.3292  0.0744  0.1204
 7069TIP3    H142698   5.668   1.137   3.523  0.1109  0.4019  1.5165
 7069TIP3    H242699   5.773   1.245   3.510  0.7081 -0.5647 -4.4979
 7070TIP3   OH242700   5.235   5.443   0.320  0.1850 -0.0949  0.0176
 7070TIP3    H142701   5.259   5.408   0.234  0.2935 -0.4083  0.1765
 7070TIP3    H242702   5.312   5.493   0.348  1.3337 -2.3822  1.2324
 7071TIP3   OH242703   4.664   4.245   4.132  0.2611  0.1334 -0.0557
 7071TIP3    H142704   4.662   4.298   4.212 -3.3537 -0.0086  0.1305
 7071TIP3    H242705   4.645   4.308   4.062 -1.5741 -0.4047 -0.1174
 7072TIP3   OH242706   5.968   4.074   0.490 -0.1861  0.2050 -0.0387
 7072TIP3    H142707   6.000   4.037   0.408 -0.8860 -0.0426 -0.2039
 7072TIP3    H242708   5.891   4.022   0.512  0.1916  0.0459  0.9599
 7073TIP3   OH242709   2.259   2.185  13.390 -0.0080 -0.1269  0.3002
 7073TIP3    H142710   2.227   2.233  13.313 -0.3555  0.0474  0.5503
 7073TIP3    H242711   2.258   2.250  13.461  0.8106 -0.1468  0.3377
 7074TIP3   OH242712   3.741   0.061  13.016 -0.2904 -0.0725  0.6988
 7074TIP3    H142713   3.700   0.134  13.063 -1.7448  1.0082 -2.0028
 7074TIP3    H242714   3.794   0.103  12.948  1.3791 -1.5491  1.0187
 7075TIP3   OH242715   3.866   4.925   0.679 -0.1382 -0.4611  0.0354
 7075TIP3    H142716   3.948   4.900   0.721  0.8298  1.1593 -0.7965
 7075TIP3    H242717   3.845   5.011   0.716 -1.6219 -0.9640  0.4261
 7076TIP3   OH242718   4.585   0.756   4.213  0.2312  0.0763 -0.5870
 7076TIP3    H142719   4.680   0.757   4.227  0.0791 -1.8390  1.0761
 7076TIP3    H242720   4.554   0.837   4.254  0.9677 -0.2879  0.7637
 7077TIP3   OH242721   3.169   1.005  15.009 -0.0822  0.4907 -0.3313
 7077TIP3    H142722   3.093   0.990  14.952 -1.6085 -0.7217  1.8810
 7077TIP3    H242723   3.131   1.041  15.089  1.9309  1.6014  0.1708
 7078TIP3   OH242724   4.992   2.620   0.658  0.5791 -0.1001 -0.2318
 7078TIP3    H142725   4.959   2.536   0.627  1.4785 -0.4605 -0.2296
 7078TIP3    H242726   5.036   2.658   0.582 -3.1802  2.2588 -1.5652
 7079TIP3   OH242727   4.068   2.674  15.134  0.1207 -0.2844 -0.1419
 7079TIP3    H142728   4.015   2.689  15.213  0.5914 -0.9080  0.3062
 7079TIP3    H242729   4.112   2.591  15.151  2.2702  0.8347  0.0711
 7080TIP3   OH242730   3.847   6.591   5.879  0.5624  0.5417  0.1299
 7080TIP3    H142731   3.910   6.565   5.813 -0.0897  0.7076 -0.5780
 7080TIP3    H242732   3.765   6.603   5.830  0.0809  0.7102  0.9585
 7081TIP3   OH242733   3.255   5.402   5.801 -0.6333  0.3311 -0.1347
 7081TIP3    H142734   3.268   5.429   5.711 -0.4674 -0.4673 -0.3609
 7081TIP3    H242735   3.199   5.469   5.839 -0.5055  0.7967 -0.7628
 7082TIP3   OH242736   6.475   2.323   2.979 -0.5278  0.4048  0.4534
 7082TIP3    H142737   6.477   2.319   2.884  1.0985 -1.1503  0.5258
 7082TIP3    H242738   6.390   2.362   2.999 -1.2075  0.0808 -1.6073
 7083TIP3   OH242739   6.178   2.760   4.890  0.3825 -0.6421 -0.4131
 7083TIP3    H142740   6.151   2.852   4.897  2.5191 -0.0595  1.4575
 7083TIP3    H242741   6.234   2.758   4.813 -0.6905 -0.6972 -1.2128
 7084TIP3   OH242742   6.675   6.657   1.670 -0.2985  0.0388 -0.0779
 7084TIP3    H142743   6.627   6.604   1.606 -0.4537 -1.5872  1.3428
 7084TIP3    H242744   6.759   6.675   1.627  0.3131 -2.5358 -0.1255
 7085TIP3   OH242745   2.770   2.266  13.873  0.1293 -0.6260  0.4282
 7085TIP3    H142746   2.802   2.320  13.801  1.4526 -3.3518 -1.1916
 7085TIP3    H242747   2.690   2.225  13.839  0.2467 -1.2172  0.8396
 7086TIP3   OH242748   3.800   3.477   4.203  0.4513 -0.0884 -0.1047
 7086TIP3    H142749   3.848   3.487   4.121 -0.4926 -0.0776 -0.6718
 7086TIP3    H242750   3.760   3.563   4.218 -0.6396 -0.5108 -0.4652
 7087TIP3   OH242751   3.177   2.386   0.123  0.0217 -0.1092  0.1738
 7087TIP3    H142752   3.147   2.425   0.205  0.5121  2.1576 -0.6523
 7087TIP3    H242753   3.142   2.443   0.055 -0.7641 -2.1863 -1.2815
 7088TIP3   OH242754   4.868   5.758   6.794 -0.0241 -0.0738  0.1991
 7088TIP3    H142755   4.912   5.800   6.720 -0.9059  0.9787  0.2347
 7088TIP3    H242756   4.920   5.680   6.813 -0.2138 -0.7835 -2.0176
 7089TIP3   OH242757   5.998   5.028  12.327 -0.5722 -0.1734 -0.2569
 7089TIP3    H142758   5.970   4.984  12.246 -5.2000  0.5883  0.6419
 7089TIP3    H242759   5.981   5.121  12.310 -1.8318 -0.0200  1.5427
 7090TIP3   OH242760   3.291   0.793   3.953  0.2413 -0.3950  0.1352
 7090TIP3    H142761   3.230   0.761   4.020 -0.4208  0.9234  0.1841
 7090TIP3    H242762   3.361   0.836   4.003  0.4886 -0.6640  0.0235
 7091TIP3   OH242763   4.968   0.598  15.697  0.4611 -0.0396 -0.1004
 7091TIP3    H142764   4.968   0.694  15.697 -0.1750 -0.0344 -0.3825
 7091TIP3    H242765   4.938   0.574  15.785 -0.9791  0.0450 -0.5401
 7092TIP3   OH242766   0.505   1.247  11.097 -0.0150 -0.5892  0.3907
 7092TIP3    H142767   0.510   1.303  11.019  2.7395  0.9116  1.5160
 7092TIP3    H242768   0.466   1.303  11.164  0.9399 -0.6289  0.9997
 7093TIP3   OH242769   2.893   1.414   6.004 -0.2502  0.4238  0.0221
 7093TIP3    H142770   2.870   1.473   6.075  1.3406 -0.2868  1.1939
 7093TIP3    H242771   2.986   1.396   6.017 -0.0704 -0.2678 -1.8581
 7094TIP3   OH242772   6.248   4.155   0.765  0.0130  0.3158 -0.0445
 7094TIP3    H142773   6.278   4.111   0.686 -0.4008 -0.5214  0.2444
 7094TIP3    H242774   6.302   4.233   0.772  0.6256 -0.0440 -0.6910
 7095TIP3   OH242775   1.417   3.618   4.055  0.2990  0.0625 -0.3990
 7095TIP3    H142776   1.439   3.536   4.012  0.9625 -0.4593  0.9014
 7095TIP3    H242777   1.451   3.609   4.143 -1.2222  1.0138  0.3268
 7096TIP3   OH242778   0.974   0.805  15.070 -0.1341  0.3321 -0.0282
 7096TIP3    H142779   1.031   0.853  15.011  0.4064 -0.0680  0.1613
 7096TIP3    H242780   1.033   0.765  15.134 -0.4604 -1.3283 -0.7096
 7097TIP3   OH242781   4.936   1.436  14.623  0.0480  0.3603 -0.0484
 7097TIP3    H142782   4.903   1.351  14.594 -1.3404  0.8529  0.0229
 7097TIP3    H242783   4.957   1.424  14.715 -1.0366  0.3196  0.2107
 7098TIP3   OH242784   4.535   3.290  12.250 -0.0450  0.6753  0.7411
 7098TIP3    H142785   4.624   3.276  12.282  0.3468  1.1159 -0.1388
 7098TIP3    H242786   4.543   3.287  12.155 -0.6163  2.7970  0.5847
 7099TIP3   OH242787   6.550   1.584  14.126 -0.3668 -0.9739 -0.1059
 7099TIP3    H142788   6.598   1.652  14.079  0.0637 -1.0445  0.2291
 7099TIP3    H242789   6.492   1.633  14.185 -0.7557 -0.8896 -0.5486
 7100TIP3   OH242790   5.773   3.443   6.279  0.3091  0.0394  0.2871
 7100TIP3    H142791   5.795   3.372   6.218  1.0750 -0.4660  1.1355
 7100TIP3    H242792   5.847   3.503   6.272  0.8294 -0.4531  1.3409
 7101TIP3   OH242793   5.429   1.165   4.908 -0.1974  0.2293 -0.4992
 7101TIP3    H142794   5.424   1.260   4.923 -0.8518  0.0075  0.8538
 7101TIP3    H242795   5.339   1.135   4.917  0.2987 -0.8318  1.4502
 7102TIP3   OH242796   2.792   0.066   5.860 -0.4157  0.5176  0.1927
 7102TIP3    H142797   2.842   0.117   5.923 -0.3377  0.9180 -0.1803
 7102TIP3    H242798   2.856   0.039   5.794 -0.6406  0.8324 -0.1630
 7103TIP3   OH242799   3.470   3.593   3.632  0.5004  0.6164 -0.0574
 7103TIP3    H142800   3.392   3.600   3.577  1.4321  0.6672 -1.4273
 7103TIP3    H242801   3.477   3.678   3.674 -0.4810  0.4309  0.5132
 7104TIP3   OH242802   6.685   0.202   0.466 -0.5738 -0.0783 -0.3794
 7104TIP3    H142803   6.744   0.191   0.540  0.4284  0.7110 -1.0245
 7104TIP3    H242804   6.720   0.143   0.398 -2.1899 -1.7316  0.1282
 7105TIP3   OH242805   6.688   6.614   2.097 -0.2720 -0.3555  0.1922
 7105TIP3    H142806   6.666   6.528   2.060  1.2110 -0.3064 -0.8950
 7105TIP3    H242807   6.776   6.632   2.065 -0.1513  1.1317  1.2444
 7106TIP3   OH242808   2.505   2.942  12.234 -0.4370  0.4803  0.6416
 7106TIP3    H142809   2.445   2.884  12.281 -0.9990 -0.4314 -1.1101
 7106TIP3    H242810   2.464   2.956  12.149  1.5520  0.2673 -0.4304
 7107TIP3   OH242811   1.440   6.301   2.722  0.1670  0.0748 -0.3956
 7107TIP3    H142812   1.409   6.338   2.805  2.7247  1.5696  0.0122
 7107TIP3    H242813   1.378   6.332   2.657 -0.2593  1.3994  0.5891
 7108TIP3   OH242814   0.104   6.449  16.013 -0.8537  0.2255 -0.3506
 7108TIP3    H142815   0.047   6.510  16.060 -0.2043  1.1561 -0.7512
 7108TIP3    H242816   0.049   6.414  15.942 -0.8062  1.4720 -1.0220
 7109TIP3   OH242817   5.435   6.835   4.718 -0.1883  0.0356 -0.1139
 7109TIP3    H142818   5.435   6.753   4.668 -0.0809 -0.4359  0.6491
 7109TIP3    H242819   5.486   6.816   4.796  0.4900  1.0683 -0.2887
 7110TIP3   OH242820   2.802   5.820   5.539 -0.0734  0.1271  0.0544
 7110TIP3    H142821   2.744   5.747   5.562  1.9468 -2.0742 -1.4248
 7110TIP3    H242822   2.833   5.854   5.623  1.7530 -3.1610  0.8393
 7111TIP3   OH242823   0.988   4.262   6.073  0.1296  0.5691  0.3110
 7111TIP3    H142824   1.031   4.178   6.087  1.8358  1.5920  1.6098
 7111TIP3    H242825   0.909   4.258   6.127  0.3905 -0.0737  0.6549
 7112TIP3   OH242826   5.325   5.379  14.880 -0.4311 -0.1629 -0.7709
 7112TIP3    H142827   5.375   5.461  14.876 -1.4751  0.5370 -0.1188
 7112TIP3    H242828   5.233   5.407  14.882 -0.7881 -1.1834  1.9727
 7113TIP3   OH242829   3.870   1.996  13.341 -0.9703 -0.3293 -0.0203
 7113TIP3    H142830   3.819   1.939  13.283  0.2845 -1.9448  0.3928
 7113TIP3    H242831   3.894   2.070  13.286 -1.2388 -1.0010 -1.0777
 7114TIP3   OH242832   2.861   6.313  13.069 -0.4729  0.5656  1.2149
 7114TIP3    H142833   2.869   6.311  13.165 -1.6443  0.5163  1.3284
 7114TIP3    H242834   2.773   6.279  13.052 -0.1165  0.1653  0.0867
 7115TIP3   OH242835   1.128   5.469   5.769  0.5684 -0.0768  0.3736
 7115TIP3    H142836   1.163   5.450   5.682  0.9125  1.1340  0.2256
 7115TIP3    H242837   1.058   5.405   5.781 -0.6176  0.7736 -1.4998
 7116TIP3   OH242838   3.117   4.345  13.252 -0.9111  0.0778  0.2296
 7116TIP3    H142839   3.168   4.411  13.204  1.3567 -2.0833 -0.5022
 7116TIP3    H242840   3.034   4.390  13.273 -0.7197  2.1770 -2.8459
 7117TIP3   OH242841   0.920   5.394   4.789  0.1037  0.0065 -0.1376
 7117TIP3    H142842   0.952   5.427   4.874  2.8558 -2.5219 -0.0418
 7117TIP3    H242843   0.826   5.385   4.802  0.3211  0.4422  2.3834
 7118TIP3   OH242844   6.288   0.231  17.072 -0.2842  0.5861 -0.2768
 7118TIP3    H142845   6.244   0.295  17.016  0.3781 -0.1705 -1.7278
 7118TIP3    H242846   6.372   0.216  17.029 -0.4164 -1.2337  0.0207
 7119TIP3   OH242847   4.518   4.933   5.743 -0.2661  0.1922  0.1257
 7119TIP3    H142848   4.609   4.963   5.735 -0.3018  0.8873  1.8156
 7119TIP3    H242849   4.518   4.846   5.704  0.9857  0.4453 -0.4755
 7120TIP3   OH242850   5.104   3.741   0.868 -0.2309  0.1512  0.0167
 7120TIP3    H142851   5.126   3.813   0.809 -1.3805  1.0293  0.6127
 7120TIP3    H242852   5.091   3.784   0.953  0.7209 -0.9945  0.7824
 7121TIP3   OH242853   1.923   4.751  16.998 -0.3385 -0.3372  0.4367
 7121TIP3    H142854   1.833   4.743  16.967 -0.0556  2.5309 -1.4733
 7121TIP3    H242855   1.916   4.797  17.081 -0.6422  3.7406 -1.5951
 7122TIP3   OH242856   0.293   0.731   4.308  0.3265 -0.1649  0.0107
 7122TIP3    H142857   0.344   0.657   4.340 -0.2103 -0.2019  0.8043
 7122TIP3    H242858   0.202   0.708   4.327  0.1641  0.7666  0.4309
 7123TIP3   OH242859   3.865   5.562  14.641 -0.4309 -0.0995  0.2324
 7123TIP3    H142860   3.902   5.578  14.554 -2.0615  0.9381 -0.3329
 7123TIP3    H242861   3.830   5.473  14.637  1.2164 -0.7852  0.5085
 7124TIP3   OH242862   1.564   4.089  16.589 -0.3886 -0.2037 -0.3512
 7124TIP3    H142863   1.640   4.145  16.604 -1.3462  1.2604 -0.8170
 7124TIP3    H242864   1.489   4.142  16.614 -1.5278 -0.2695 -3.2476
 7125TIP3   OH242865   5.443   3.288   5.659  0.1475  0.6885 -0.9727
 7125TIP3    H142866   5.536   3.273   5.645  0.5025  2.2968 -0.5716
 7125TIP3    H242867   5.440   3.358   5.725 -1.3780 -1.6311  1.6327
 7126TIP3   OH242868   2.602   4.348   0.040  0.2063  0.0947  0.4661
 7126TIP3    H142869   2.672   4.405   0.070  0.9813  0.2078 -1.4031
 7126TIP3    H242870   2.603   4.357  -0.056 -1.6309 -0.7581  0.3146
 7127TIP3   OH242871   3.645   1.798  15.242 -0.1841 -0.2040 -0.0546
 7127TIP3    H142872   3.698   1.767  15.169  0.5684  0.3391  0.2406
 7127TIP3    H242873   3.554   1.786  15.214 -0.0550  3.2849 -2.6370
 7128TIP3   OH242874   2.225   1.826  11.560 -0.0883 -0.2127 -0.2497
 7128TIP3    H142875   2.257   1.912  11.533 -1.1577 -0.1016 -1.2557
 7128TIP3    H242876   2.179   1.792  11.482 -1.3930 -0.8355  0.7540
 7129TIP3   OH242877   1.154   6.067   5.076  0.1195 -0.0431 -0.4792
 7129TIP3    H142878   1.134   6.021   4.994 -2.8457  0.9035 -0.4079
 7129TIP3    H242879   1.208   6.141   5.049  0.7037 -0.7363 -1.2913
 7130TIP3   OH242880   1.272   1.900   1.494 -0.1628  0.0066  0.3189
 7130TIP3    H142881   1.251   1.861   1.409  0.0512  0.2990  0.1267
 7130TIP3    H242882   1.337   1.841   1.532 -1.2604 -0.8666  0.8892
 7131TIP3   OH242883   2.853   0.595  16.302 -0.3488  0.9761  0.0765
 7131TIP3    H142884   2.943   0.588  16.269 -0.4359  0.7863 -0.1180
 7131TIP3    H242885   2.798   0.570  16.229 -0.6446  2.6854 -0.3404
 7132TIP3   OH242886   1.137   3.841  16.506  0.9252  0.2329 -0.0425
 7132TIP3    H142887   1.224   3.880  16.500  1.4453 -0.7906  0.6769
 7132TIP3    H242888   1.106   3.838  16.415  2.2250 -0.6713 -0.4844
 7133TIP3   OH242889   3.739   5.857   5.469  0.5059  0.4499 -0.0836
 7133TIP3    H142890   3.664   5.798   5.477  0.0735  0.8798 -0.8874
 7133TIP3    H242891   3.807   5.805   5.427 -0.2778  0.8520 -1.9184
 7134TIP3   OH242892   1.474   3.570  11.518 -0.0252  0.1602  0.0335
 7134TIP3    H142893   1.544   3.507  11.506 -0.4706 -0.7039  1.7254
 7134TIP3    H242894   1.510   3.636  11.578 -0.5109 -0.1087  0.6437
 7135TIP3   OH242895   1.201   2.388  15.363  0.6891  0.1279 -0.0657
 7135TIP3    H142896   1.185   2.346  15.278  1.1519  0.5358 -0.3577
 7135TIP3    H242897   1.115   2.388  15.406  0.4385 -0.0208 -0.5578
 7136TIP3   OH242898   4.119   6.199   4.446 -0.3497 -0.2718 -0.3490
 7136TIP3    H142899   4.099   6.292   4.447 -0.6446 -0.2973  1.9516
 7136TIP3    H242900   4.150   6.180   4.535  1.1769 -2.0697 -1.1768
 7137TIP3   OH242901   2.554   6.790  12.487 -0.9102  0.8255 -0.1212
 7137TIP3    H142902   2.502   6.714  12.511 -2.2585  1.1120 -1.9340
 7137TIP3    H242903   2.499   6.839  12.427  0.9431  1.8618 -1.0677
 7138TIP3   OH242904   5.624   1.287   1.108  0.0031  0.5905  0.3987
 7138TIP3    H142905   5.680   1.240   1.170  0.5557  1.4928  0.6091
 7138TIP3    H242906   5.662   1.268   1.022 -1.2101 -1.2705  0.2371
 7139TIP3   OH242907   5.149   0.669   3.073  0.2102 -0.7154 -0.1557
 7139TIP3    H142908   5.100   0.603   3.023 -1.1187  0.7014 -0.8299
 7139TIP3    H242909   5.234   0.674   3.030 -0.3665 -0.6202 -1.3152
 7140TIP3   OH242910   5.167   6.108   5.160 -0.2681 -0.8442 -0.1907
 7140TIP3    H142911   5.185   6.191   5.204  0.3397 -0.7389 -0.6296
 7140TIP3    H242912   5.207   6.042   5.217 -2.8843 -1.1110  1.4769
 7141TIP3   OH242913   1.143   1.475  13.432 -0.0635  0.1594  0.1084
 7141TIP3    H142914   1.229   1.510  13.454  0.1410 -0.0446 -0.3658
 7141TIP3    H242915   1.141   1.389  13.475  0.8771 -0.8531 -1.7380
 7142TIP3   OH242916   0.778   1.303  11.043  0.5176 -0.1998  0.4556
 7142TIP3    H142917   0.739   1.225  11.084 -1.2533  0.5776  0.3423
 7142TIP3    H242918   0.801   1.274  10.955  1.1948 -0.9602  0.8631
 7143TIP3   OH242919   3.167   2.257   4.543 -0.5761  0.5939  0.3457
 7143TIP3    H142920   3.214   2.174   4.544  1.6703  1.7944  0.4262
 7143TIP3    H242921   3.136   2.268   4.633 -0.7274 -0.0564  0.3768
 7144TIP3   OH242922   3.333   4.492  15.964  0.3262 -0.1624 -0.0808
 7144TIP3    H142923   3.326   4.582  15.995 -2.1208 -0.0320 -0.8353
 7144TIP3    H242924   3.276   4.442  16.023  1.5840 -1.2459  0.2800
 7145TIP3   OH242925   4.204   0.892   3.854  0.5594  0.3727  0.0576
 7145TIP3    H142926   4.204   0.804   3.816  2.4205 -0.3532  1.5475
 7145TIP3    H242927   4.139   0.888   3.924  1.2010 -0.1014  0.6429
 7146TIP3   OH242928   6.069   5.341  16.830  0.2717  0.0894  0.1693
 7146TIP3    H142929   6.118   5.314  16.752 -0.7007  2.6795 -1.4475
 7146TIP3    H242930   5.979   5.351  16.799 -0.7687 -1.5720  2.3722
 7147TIP3   OH242931   0.552   1.723   2.424  0.2584 -0.5445  0.5759
 7147TIP3    H142932   0.550   1.651   2.362  1.0362 -0.1116  0.0252
 7147TIP3    H242933   0.527   1.800   2.372 -2.5557 -0.6624  1.5771
 7148TIP3   OH242934   2.645   2.542  11.883 -0.2058  0.1807 -0.0438
 7148TIP3    H142935   2.639   2.637  11.874  1.1537  0.4414  1.4054
 7148TIP3    H242936   2.738   2.525  11.896 -0.2110 -1.5377 -1.8143
 7149TIP3   OH242937   3.051   5.383   0.565 -0.4701  0.2077  0.0749
 7149TIP3    H142938   3.088   5.332   0.637 -1.9974 -1.9401 -0.5676
 7149TIP3    H242939   2.969   5.419   0.601 -1.1431 -0.7158 -0.4901
 7150TIP3   OH242940   2.035   5.130   5.102 -0.1688  0.6354  0.4191
 7150TIP3    H142941   2.019   5.036   5.100 -1.0109  0.7872 -1.4855
 7150TIP3    H242942   2.126   5.138   5.132 -0.3211 -0.7194  1.3187
 7151TIP3   OH242943   1.607   4.156  14.072 -0.0801 -0.0438  0.5532
 7151TIP3    H142944   1.524   4.176  14.028  0.0202  1.2076  0.8934
 7151TIP3    H242945   1.646   4.086  14.020 -0.4021  0.7498 -0.7841
 7152TIP3   OH242946   6.590   1.513  13.666  0.3039 -0.3540  0.0206
 7152TIP3    H142947   6.609   1.433  13.715 -0.8640 -0.1707  0.8223
 7152TIP3    H242948   6.522   1.488  13.603 -0.9968  0.2288  1.1167
 7153TIP3   OH242949   1.034   4.561  15.169  0.8752  0.5235  0.2026
 7153TIP3    H142950   0.986   4.491  15.126  1.1234 -0.5464  1.5815
 7153TIP3    H242951   1.046   4.628  15.101 -0.9780  0.0561 -0.6472
 7154TIP3   OH242952   4.372   0.272  14.808  0.4748 -0.2803 -0.1007
 7154TIP3    H142953   4.368   0.286  14.713 -0.9374 -2.3649 -0.4105
 7154TIP3    H242954   4.282   0.253  14.833  0.5580  1.6792  1.9677
 7155TIP3   OH242955   5.139   3.816  14.622  0.2993 -0.8127  0.2432
 7155TIP3    H142956   5.047   3.795  14.609  0.2245 -0.2914 -0.0871
 7155TIP3    H242957   5.186   3.752  14.569  0.0633 -0.0122 -0.9738
 7156TIP3   OH242958   4.594   2.029   4.259  0.3280  0.1086 -0.6019
 7156TIP3    H142959   4.673   1.985   4.293 -0.4342 -0.1138  0.9843
 7156TIP3    H242960   4.603   2.024   4.164  0.8629 -2.4604 -0.5062
 7157TIP3   OH242961   5.804   4.200  13.358 -0.1519  0.2260  0.5158
 7157TIP3    H142962   5.774   4.288  13.379 -1.2551 -0.1624  0.6224
 7157TIP3    H242963   5.825   4.203  13.265 -1.3982  0.2795  0.2220
 7158TIP3   OH242964   0.511   0.602   4.673 -0.4976  0.2083 -0.1538
 7158TIP3    H142965   0.583   0.544   4.699  1.0580  2.0432 -0.0759
 7158TIP3    H242966   0.432   0.552   4.692  0.7106 -1.2653  1.3938
 7159TIP3   OH242967   2.101   6.545  12.241 -0.4794  0.7184 -0.2623
 7159TIP3    H142968   2.039   6.486  12.283  2.0491 -1.4504  0.7341
 7159TIP3    H242969   2.105   6.516  12.150  0.1211 -0.1438  0.0250
 7160TIP3   OH242970   2.528   4.572   2.356 -0.4035 -0.1393  0.0423
 7160TIP3    H142971   2.562   4.631   2.424 -0.0692 -0.1874 -0.0831
 7160TIP3    H242972   2.485   4.630   2.294  0.4702  0.0464 -0.4107
 7161TIP3   OH242973   3.507   2.228  16.086  0.1393  0.6807 -0.6189
 7161TIP3    H142974   3.477   2.186  16.005 -0.0497 -0.2017 -0.1024
 7161TIP3    H242975   3.584   2.279  16.059 -0.9995  1.9216 -1.7112
 7162TIP3   OH242976   2.233   3.090   5.391 -0.0338  0.1171  0.3854
 7162TIP3    H142977   2.195   3.147   5.324 -0.0315 -0.8618 -0.4772
 7162TIP3    H242978   2.196   3.003   5.372  1.6761 -0.6202  0.2587
 7163TIP3   OH242979   4.113   0.637   4.030 -0.2415 -0.1102  0.0888
 7163TIP3    H142980   4.206   0.614   4.028 -0.6097 -1.8081  0.5533
 7163TIP3    H242981   4.079   0.604   3.946 -0.4252  0.5896 -0.1209
 7164TIP3   OH242982   2.379   6.368   5.319  0.6693  0.3939 -0.5852
 7164TIP3    H142983   2.284   6.375   5.325  0.6265 -0.8898  0.7338
 7164TIP3    H242984   2.403   6.427   5.248 -1.1996  0.0491 -1.5543
 7165TIP3   OH242985   5.252   3.359   4.348  0.4305 -0.0526  0.1834
 7165TIP3    H142986   5.264   3.265   4.334 -0.2613  0.0689 -1.4417
 7165TIP3    H242987   5.331   3.399   4.313  0.0573  0.0529 -0.5621
 7166TIP3   OH242988   0.482   1.754   6.042  0.4474 -0.0095 -0.4528
 7166TIP3    H142989   0.551   1.707   5.995 -1.6894 -1.3346 -2.4520
 7166TIP3    H242990   0.424   1.686   6.075  0.3354  1.0482  1.7224
 7167TIP3   OH242991   4.263   5.772   5.231  0.0054 -0.1592 -0.4374
 7167TIP3    H142992   4.302   5.853   5.262 -0.2459 -0.5571  0.9929
 7167TIP3    H242993   4.333   5.707   5.237 -0.4064 -0.5370  0.6697
 7168TIP3   OH242994   4.995   5.887   0.855  0.1335  0.0247 -0.1292
 7168TIP3    H142995   5.088   5.872   0.872 -0.2518 -0.5867  1.7569
 7168TIP3    H242996   4.967   5.945   0.925 -1.3051 -1.3877  0.5412
 7169TIP3   OH242997   3.292   0.584  14.835  0.1022 -0.0889  0.8030
 7169TIP3    H142998   3.303   0.530  14.913  0.1267  0.3330  1.0979
 7169TIP3    H242999   3.356   0.654  14.845  0.2522 -0.1481  0.2961
 7170TIP3   OH243000   5.635   0.969   1.757  0.5506 -0.5008  0.0674
 7170TIP3    H143001   5.689   0.894   1.732  0.5437 -0.5344  0.1557
 7170TIP3    H243002   5.557   0.930   1.797  0.5903 -0.4437  0.1994
 7171TIP3   OH243003   5.802   1.908  15.217  0.2912  0.2984 -0.1417
 7171TIP3    H143004   5.887   1.886  15.177  1.1218  0.9938  1.1593
 7171TIP3    H243005   5.823   1.977  15.280 -1.3707  0.9473 -0.2760
 7172TIP3   OH243006   6.707   0.673  16.592  0.2517 -0.0354 -0.0438
 7172TIP3    H143007   6.723   0.767  16.603  1.0177 -0.2057  0.4063
 7172TIP3    H243008   6.662   0.646  16.671 -3.7042  0.6807 -1.8290
 7173TIP3   OH243009   4.175   4.099   6.704  0.2188  0.3597  0.1633
 7173TIP3    H143010   4.124   4.151   6.766 -0.6919  1.0077 -1.0977
 7173TIP3    H243011   4.111   4.041   6.662  0.9834 -0.7683  0.4868
 7174TIP3   OH243012   4.136   3.695  16.236 -0.5121 -0.3164 -0.2567
 7174TIP3    H143013   4.229   3.689  16.218 -0.5766 -0.9793 -0.3766
 7174TIP3    H243014   4.131   3.724  16.328 -0.1899 -0.1520 -0.2917
 7175TIP3   OH243015   6.216   0.932   3.985  0.6849 -0.2565  0.2912
 7175TIP3    H143016   6.136   0.955   3.938 -0.4641 -1.8431  1.3526
 7175TIP3    H243017   6.190   0.934   4.078  1.8377 -0.9484  0.6424
 7176TIP3   OH243018   0.341   3.394  12.930 -0.3646  0.1857 -0.0592
 7176TIP3    H143019   0.374   3.329  12.993  0.6092  0.4100 -0.3180
 7176TIP3    H243020   0.337   3.476  12.980 -0.3577  0.1981 -0.0786
 7177TIP3   OH243021   4.594   5.397   2.949  0.0119  0.1249  0.2265
 7177TIP3    H143022   4.588   5.492   2.951  0.2945  0.1853 -0.9793
 7177TIP3    H243023   4.686   5.378   2.968 -0.1476  0.0564  0.9682
 7178TIP3   OH243024   3.259   4.835   1.513  0.0395 -0.2748 -0.6503
 7178TIP3    H143025   3.353   4.834   1.531  0.0386 -0.5896 -0.6659
 7178TIP3    H243026   3.240   4.927   1.492  0.5052 -0.3565 -1.4901
 7179TIP3   OH243027   5.776   4.095  14.593  0.3053 -0.3768 -0.0890
 7179TIP3    H143028   5.717   4.167  14.569  0.1694 -0.6980 -0.7213
 7179TIP3    H243029   5.773   4.094  14.689 -0.4850 -0.1937 -0.1035
 7180TIP3   OH243030   3.455   4.970   6.421  0.3007  0.1426 -0.6914
 7180TIP3    H143031   3.466   4.991   6.328  0.7184 -1.9524 -1.1720
 7180TIP3    H243032   3.461   5.054   6.466 -0.5755  1.2952 -2.6075
 7181TIP3   OH243033   4.713   5.271   5.245 -0.0985  0.0728 -0.3602
 7181TIP3    H143034   4.792   5.286   5.194  1.0136 -0.8024  1.0259
 7181TIP3    H243035   4.713   5.176   5.261 -0.2730  0.3503  1.4435
 7182TIP3   OH243036   4.897   5.151   3.608 -0.1498  0.1102  0.5019
 7182TIP3    H143037   4.933   5.102   3.681  1.6171 -0.1180 -0.4837
 7182TIP3    H243038   4.919   5.243   3.627  1.5969 -0.0851 -0.3936
 7183TIP3   OH243039   5.667   2.747  17.077 -0.9370 -0.2528  0.0446
 7183TIP3    H143040   5.752   2.723  17.038 -1.2550  0.1953 -0.9589
 7183TIP3    H243041   5.688   2.770  17.167 -0.0892 -0.8056  0.0035
 7184TIP3   OH243042   2.308   5.856  11.765  0.2598 -0.1236  0.1727
 7184TIP3    H143043   2.391   5.904  11.770  0.0096  0.3209  0.1451
 7184TIP3    H243044   2.292   5.846  11.671 -0.3679  0.9476  0.1566
 7185TIP3   OH243045   1.431   6.367   2.245 -0.7993 -0.1141 -0.1617
 7185TIP3    H143046   1.394   6.331   2.165  0.2496  1.5516 -1.4963
 7185TIP3    H243047   1.525   6.372   2.227 -0.7371  1.8739  0.4709
 7186TIP3   OH243048   5.539   0.461   0.178  0.4945  0.7327  0.4857
 7186TIP3    H143049   5.489   0.518   0.237 -0.2103  0.3748  0.2403
 7186TIP3    H243050   5.503   0.373   0.194 -0.7541  0.8214 -1.5242
 7187TIP3   OH243051   5.526   5.554   1.593 -0.0034  0.6118  0.0489
 7187TIP3    H143052   5.524   5.523   1.503 -2.1079 -2.0701  0.9044
 7187TIP3    H243053   5.611   5.525   1.627  0.3516  0.6958 -0.7633
 7188TIP3   OH243054   4.648   3.789  12.745  0.8464 -0.0645 -0.1573
 7188TIP3    H143055   4.583   3.745  12.690 -0.9207 -0.1657  1.8533
 7188TIP3    H243056   4.719   3.725  12.753 -0.8486 -1.9194  1.2211
 7189TIP3   OH243057   5.411   0.536   1.684 -0.3575  0.0709 -0.7403
 7189TIP3    H143058   5.384   0.474   1.616 -0.0535 -0.6360 -0.2311
 7189TIP3    H243059   5.330   0.581   1.709 -1.0547 -1.7788  0.5280
 7190TIP3   OH243060   5.071   4.139  13.289  0.0311  0.4522  0.2125
 7190TIP3    H143061   5.132   4.135  13.215  0.8234 -1.3972  0.9053
 7190TIP3    H243062   5.097   4.217  13.337  0.6916  0.6762 -0.4832
 7191TIP3   OH243063   3.271   1.445  14.516 -0.0464 -0.1130 -0.4910
 7191TIP3    H143064   3.225   1.440  14.600 -0.2712 -0.1071 -0.6146
 7191TIP3    H243065   3.255   1.361  14.474 -1.8661  0.7055 -1.5402
 7192TIP3   OH243066   1.876   3.193  11.103  0.0129  0.1140  0.4427
 7192TIP3    H143067   1.903   3.285  11.105 -0.1329  0.1657  0.1167
 7192TIP3    H243068   1.958   3.143  11.107  0.0873  0.2562  0.7110
 7193TIP3   OH243069   4.583   5.007  11.365 -0.1687  0.2100 -0.5142
 7193TIP3    H143070   4.570   4.927  11.417  0.4579  0.7003  0.4219
 7193TIP3    H243071   4.591   4.976  11.275 -3.5082 -0.5089 -0.6986
 7194TIP3   OH243072   0.642   0.343  14.247  0.3765 -0.3105  0.1960
 7194TIP3    H143073   0.672   0.256  14.220  1.7452 -0.4360  1.9507
 7194TIP3    H243074   0.666   0.349  14.339 -1.9222  1.0029  0.7879
 7195TIP3   OH243075   1.473   4.770   0.719 -0.7160 -0.0915 -0.2786
 7195TIP3    H143076   1.429   4.828   0.656 -2.3541 -1.5289 -0.5423
 7195TIP3    H243077   1.454   4.682   0.687 -1.5260 -0.8827  2.1823
 7196TIP3   OH243078   4.656   6.075   0.877  0.0652  1.0406 -0.0008
 7196TIP3    H143079   4.728   6.074   0.814 -0.4432  2.4380 -0.6526
 7196TIP3    H243080   4.601   6.149   0.849 -2.0527 -0.4507 -0.0079
 7197TIP3   OH243081   6.161   2.473   4.301 -0.2551 -0.6834 -0.2278
 7197TIP3    H143082   6.128   2.553   4.260  0.7933 -0.2682 -0.2942
 7197TIP3    H243083   6.196   2.421   4.229 -0.5375 -1.0128 -0.1321
 7198TIP3   OH243084   2.932   2.044  14.403 -0.6475  0.2356 -0.3032
 7198TIP3    H143085   2.869   1.976  14.425 -0.9250  0.9477  1.2602
 7198TIP3    H243086   3.014   1.998  14.387 -1.1870 -0.5720 -0.7881
 7199TIP3   OH243087   1.911   4.316   2.002 -0.1640 -0.5662 -0.2809
 7199TIP3    H143088   1.924   4.315   2.097  1.3891 -1.8083 -0.4666
 7199TIP3    H243089   1.999   4.307   1.966 -0.8409 -1.2464 -1.8333
 7200TIP3   OH243090   3.026   4.944   2.778  0.5491 -0.9868  0.4035
 7200TIP3    H143091   3.074   5.017   2.741 -2.5271 -0.2422 -2.6914
 7200TIP3    H243092   3.024   4.961   2.873  0.9142  2.3427 -0.0774
 7201TIP3   OH243093   1.561   5.305  10.511  0.1459 -0.1270  0.0649
 7201TIP3    H143094   1.600   5.217  10.511 -2.3646 -1.4276  3.2414
 7201TIP3    H243095   1.471   5.291  10.482 -0.1544  1.5347  0.1108
 7202TIP3   OH243096   2.104   5.214   3.140 -0.0681  0.0285  0.3861
 7202TIP3    H143097   2.159   5.153   3.190 -0.3726  0.5223  1.3464
 7202TIP3    H243098   2.015   5.195   3.170 -0.5657 -1.2850 -1.6943
 7203TIP3   OH243099   4.972   2.257   0.284 -0.6723 -0.9186 -0.2049
 7203TIP3    H143100   5.005   2.225   0.200 -0.4333 -2.0773  0.3063
 7203TIP3    H243101   4.935   2.180   0.326 -0.3671 -0.4610  0.9462
 7204TIP3   OH243102   6.416   6.419   5.731 -0.3409 -0.3291 -0.3494
 7204TIP3    H143103   6.388   6.344   5.783 -2.9555  0.2894 -0.7543
 7204TIP3    H243104   6.398   6.495   5.787  1.4238  0.0995 -0.3016
 7205TIP3   OH243105   4.208   2.664  14.867  0.0988 -0.4432  0.2624
 7205TIP3    H143106   4.157   2.664  14.947 -1.6991  1.4633 -0.7766
 7205TIP3    H243107   4.157   2.718  14.806  2.9271  0.8816 -1.1520
 7206TIP3   OH243108   6.402   6.588   4.405 -0.2819  0.2881 -0.2594
 7206TIP3    H143109   6.443   6.627   4.328 -1.4509  0.3806 -0.8507
 7206TIP3    H243110   6.355   6.659   4.446  1.0127  0.4372  1.0506
 7207TIP3   OH243111   0.600   6.379  10.364  0.1755  0.4949  0.3923
 7207TIP3    H143112   0.641   6.429  10.435 -0.4310  0.1215  1.0096
 7207TIP3    H243113   0.560   6.446  10.308  2.8497  1.0104 -1.0679
 7208TIP3   OH243114   0.013   1.056  16.277  0.3109  0.1435  0.3169
 7208TIP3    H143115   0.080   1.118  16.305  1.4791 -0.9668  0.0996
 7208TIP3    H243116  -0.051   1.109  16.230  2.0058  1.0022 -1.1426
 7209TIP3   OH243117   5.861   0.656  11.402  0.8609 -0.2336  0.1098
 7209TIP3    H143118   5.887   0.565  11.418  1.6812  0.0297  0.3679
 7209TIP3    H243119   5.814   0.681  11.481  2.1029  0.0661  0.7890
 7210TIP3   OH243120   4.742   4.734   3.850 -0.6347 -0.4987  0.3700
 7210TIP3    H143121   4.751   4.643   3.877 -1.5963 -0.6779  0.1235
 7210TIP3    H243122   4.802   4.743   3.776 -0.6070 -0.9597  0.3346
 7211TIP3   OH243123   1.243   5.520   4.172 -0.5385  0.3662 -0.3284
 7211TIP3    H143124   1.232   5.427   4.191  2.4351 -0.5876 -2.5452
 7211TIP3    H243125   1.315   5.548   4.229  0.6621  0.4419 -1.8238
 7212TIP3   OH243126   3.207   0.579  11.104  0.2223  0.1039  0.6172
 7212TIP3    H143127   3.271   0.649  11.115 -0.8972  1.3107 -0.2236
 7212TIP3    H243128   3.259   0.501  11.089  1.5314  1.2504 -1.2514
 7213TIP3   OH243129   3.120   0.859   5.401  0.2151  0.0614 -0.5324
 7213TIP3    H143130   3.149   0.772   5.373  0.0828 -1.0369  2.4356
 7213TIP3    H243131   3.030   0.845   5.431  0.3695  1.0946  0.4629
 7214TIP3   OH243132   0.964   5.268  15.743  0.2177 -0.3794  0.3913
 7214TIP3    H143133   0.962   5.358  15.712  1.5866 -0.3711  0.2839
 7214TIP3    H243134   0.872   5.246  15.760  0.0065  1.7883  2.6078
 7215TIP3   OH243135   2.419   2.522   1.451  0.8197 -0.0116 -0.4537
 7215TIP3    H143136   2.448   2.439   1.414  0.9320  0.0040 -0.4009
 7215TIP3    H243137   2.332   2.537   1.413  2.2607  1.7085 -3.4833
 7216TIP3   OH243138   1.710   1.775  12.446  0.1898 -0.6378 -0.2647
 7216TIP3    H143139   1.744   1.693  12.483  0.2308 -0.6473 -0.3231
 7216TIP3    H243140   1.708   1.759  12.352  0.8426 -0.3339 -0.3362
 7217TIP3   OH243141   3.311   3.862   2.462  1.2736 -0.0915 -0.2855
 7217TIP3    H143142   3.325   3.954   2.486  1.5699 -0.2811  0.2645
 7217TIP3    H243143   3.361   3.851   2.381 -1.1797  1.0328 -2.1083
 7218TIP3   OH243144   1.209   6.447  14.721  0.1607 -0.0081  0.1719
 7218TIP3    H143145   1.191   6.522  14.777  0.8136  0.7226 -0.5712
 7218TIP3    H243146   1.264   6.482  14.650 -0.5168 -0.9270 -0.8513
 7219TIP3   OH243147   3.284   0.665   3.402 -0.3126 -0.3023  0.1481
 7219TIP3    H143148   3.282   0.668   3.498 -2.1859 -2.4959  0.2673
 7219TIP3    H243149   3.228   0.738   3.376  1.1758  1.0712  0.6238
 7220TIP3   OH243150   2.671   2.026   0.207 -0.0736  0.2965  0.2995
 7220TIP3    H143151   2.594   2.041   0.262 -1.3611  0.9451 -1.6105
 7220TIP3    H243152   2.735   2.089   0.240 -0.8194  0.7047  1.0186
 7221TIP3   OH243153   1.763   4.096   4.740 -0.0726  0.0781 -0.3964
 7221TIP3    H143154   1.701   4.162   4.708 -0.6152 -0.4676 -0.5024
 7221TIP3    H243155   1.728   4.071   4.826  0.3635  0.2285 -0.1738
 7222TIP3   OH243156   2.527   6.179   4.528  0.5474  0.2155  0.6806
 7222TIP3    H143157   2.444   6.191   4.481  1.0790 -0.5487 -0.5014
 7222TIP3    H243158   2.514   6.098   4.577  1.7734 -2.0578 -2.3974
 7223TIP3   OH243159   0.756   2.303   3.429  0.0602  0.0384 -0.0194
 7223TIP3    H143160   0.787   2.378   3.480  1.4059 -0.8699  0.5474
 7223TIP3    H243161   0.730   2.340   3.345 -1.2343  1.4221  0.9351
 7224TIP3   OH243162   2.192   2.026   4.095 -0.0105  0.6016 -0.2076
 7224TIP3    H143163   2.236   1.962   4.151  2.6815  2.3381 -0.1165
 7224TIP3    H243164   2.099   2.006   4.103  0.5886 -2.1119  1.1824
 7225TIP3   OH243165   5.685   1.842  11.170  0.7927  0.4562  0.0630
 7225TIP3    H143166   5.628   1.816  11.097 -1.4265 -0.6575  2.0606
 7225TIP3    H243167   5.629   1.895  11.227  2.4804  1.3556  0.9824
 7226TIP3   OH243168   6.793   3.209   0.485 -0.4908 -0.0747  1.0336
 7226TIP3    H143169   6.830   3.282   0.535 -0.0357  1.0079 -0.7802
 7226TIP3    H243170   6.868   3.170   0.440 -1.0162 -0.2725  0.2984
 7227TIP3   OH243171   1.905   6.667   3.245 -0.2817  0.5577  0.2949
 7227TIP3    H143172   1.870   6.591   3.291 -1.1221  0.2053 -0.8603
 7227TIP3    H243173   1.851   6.674   3.166  2.9250 -0.7274 -2.2605
 7228TIP3   OH243174   5.144   4.121  11.703  0.4995 -0.0532 -0.0800
 7228TIP3    H143175   5.098   4.043  11.673 -1.1063 -0.0410  2.0925
 7228TIP3    H243176   5.236   4.096  11.703  0.1843 -1.3180 -1.0877
 7229TIP3   OH243177   3.516   5.857   5.019 -0.3843 -0.3018  0.2720
 7229TIP3    H143178   3.600   5.863   4.973  0.1040 -3.1578  0.5764
 7229TIP3    H243179   3.486   5.768   5.002 -2.0867 -0.1950  2.2998
 7230TIP3   OH243180   3.275   4.376  17.113  0.5867 -0.2757  0.2014
 7230TIP3    H143181   3.256   4.376  17.207 -0.9554 -1.9282 -0.0510
 7230TIP3    H243182   3.360   4.334  17.106  0.5935 -0.3781  0.8480
 7231TIP3   OH243183   6.363   5.335  11.806  0.3770  0.0412  0.3443
 7231TIP3    H143184   6.443   5.337  11.754  0.4686  0.2277  0.4893
 7231TIP3    H243185   6.394   5.326  11.897  0.3355  2.2181  0.6154
 7232TIP3   OH243186   2.946   3.603  14.152  0.3219  0.4106 -0.3247
 7232TIP3    H143187   2.947   3.693  14.120 -0.8538 -0.0362 -1.7346
 7232TIP3    H243188   2.930   3.550  14.074 -1.9496 -0.7990  0.8635
 7233TIP3   OH243189   4.444   0.273   4.961 -0.0125 -0.3101  0.5017
 7233TIP3    H143190   4.448   0.367   4.945  0.9640  0.3583  3.8731
 7233TIP3    H243191   4.523   0.239   4.920  0.3066  0.5800  0.3510
 7234TIP3   OH243192   4.661   3.011   3.638  0.0076  0.6445  0.6340
 7234TIP3    H143193   4.741   2.963   3.616  0.0043  1.4721 -1.4104
 7234TIP3    H243194   4.687   3.069   3.710  1.9806  2.6218 -1.5177
 7235TIP3   OH243195   1.706   1.039   0.041 -0.6297 -0.2881 -0.4709
 7235TIP3    H143196   1.647   1.002   0.106  0.3220 -0.2260  0.4610
 7235TIP3    H243197   1.789   0.994   0.056  0.1494  1.1325 -0.3044
 7236TIP3   OH243198   1.324   0.594  12.648 -0.3581 -0.5127 -0.3010
 7236TIP3    H143199   1.380   0.580  12.571  0.8459  0.2589  0.4054
 7236TIP3    H243200   1.369   0.548  12.719  0.4199  1.6747  0.6910
 7237TIP3   OH243201   6.278   5.610   0.736  0.1753  0.2770 -0.2158
 7237TIP3    H143202   6.281   5.529   0.685  0.6674  0.0010  0.2491
 7237TIP3    H243203   6.227   5.670   0.681 -1.2320 -0.7022 -0.0601
 7238TIP3   OH243204   1.346   4.394   5.231  0.1713 -0.9475  0.0262
 7238TIP3    H143205   1.416   4.435   5.181  0.6747 -1.1523  0.5570
 7238TIP3    H243206   1.267   4.439   5.203  0.4235 -1.1560 -1.0555
 7239TIP3   OH243207   3.612   1.306  13.764 -0.1214  0.1477  0.0133
 7239TIP3    H143208   3.545   1.306  13.832 -0.4663  1.3287 -0.3075
 7239TIP3    H243209   3.695   1.311  13.811 -0.2589 -0.9192  0.3940
 7240TIP3   OH243210   6.030   1.157   0.626  0.6224 -0.6226  0.2818
 7240TIP3    H143211   5.965   1.227   0.624  1.7776  0.4882 -1.5432
 7240TIP3    H243212   6.029   1.121   0.537  1.7980 -1.2350  0.4999
 7241TIP3   OH243213   3.160   0.059   3.839  0.0491 -0.0007  0.4549
 7241TIP3    H143214   3.101   0.068   3.914 -0.0752 -0.6056  0.4380
 7241TIP3    H243215   3.160   0.146   3.799 -0.5372  0.1121  0.6740
 7242TIP3   OH243216   3.062   0.339  12.537  0.0399 -0.1510  0.1531
 7242TIP3    H143217   3.097   0.423  12.507 -2.2219  1.0639  0.7037
 7242TIP3    H243218   3.131   0.276  12.516  2.2439  1.9527  0.6103
 7243TIP3   OH243219   3.911   4.221   0.097  0.2486  0.2642 -0.0037
 7243TIP3    H143220   3.988   4.223   0.039  0.9795  0.8023  0.9633
 7243TIP3    H243221   3.891   4.313   0.113  0.0168  0.1198  0.5560
 7244TIP3   OH243222   6.625   1.783  11.890 -0.1105  0.1943  0.3017
 7244TIP3    H143223   6.673   1.705  11.861 -0.6553  0.0966 -0.3615
 7244TIP3    H243224   6.566   1.804  11.817 -0.8288  0.5205  0.9585
 7245TIP3   OH243225   5.079   6.485   4.179  0.5307  0.0810  0.5872
 7245TIP3    H143226   5.021   6.555   4.150  1.0973  0.7567  1.0593
 7245TIP3    H243227   5.021   6.418   4.215  0.0501  0.8061  1.1766
 7246TIP3   OH243228   5.911   0.540  13.367 -0.0920  0.6510 -0.4942
 7246TIP3    H143229   5.939   0.595  13.439  1.0711 -0.7004  0.1373
 7246TIP3    H243230   5.820   0.565  13.351  0.3275  2.5619 -0.1020
 7247TIP3   OH243231   5.190   6.571   5.234 -0.0829  1.0116 -0.0205
 7247TIP3    H143232   5.281   6.586   5.258 -0.3866  0.9480  1.2235
 7247TIP3    H243233   5.148   6.657   5.242 -0.8821  0.4401  2.9019
 7248TIP3   OH243234   2.469   5.847   5.762  0.8432 -0.4669  0.3262
 7248TIP3    H143235   2.384   5.823   5.798  0.0877  0.8868 -0.4725
 7248TIP3    H243236   2.501   5.918   5.818  0.4907  0.4064 -0.5349
 7249TIP3   OH243237   2.545   0.653  11.017  0.1691  0.0724  0.0167
 7249TIP3    H143238   2.602   0.693  11.083  0.0554 -0.4207  0.4233
 7249TIP3    H243239   2.605   0.602  10.962  0.0920 -0.7966  0.7052
 7250TIP3   OH243240   6.140   0.710  11.720 -0.0367 -0.3771 -0.1044
 7250TIP3    H143241   6.121   0.789  11.670 -0.2944 -0.6384 -0.4299
 7250TIP3    H243242   6.208   0.665  11.670 -1.9171 -1.8245 -1.5617
 7251TIP3   OH243243   1.748   3.842  11.957  0.0258 -0.0691 -0.3723
 7251TIP3    H143244   1.719   3.828  12.047  0.0896  0.3901 -0.2736
 7251TIP3    H243245   1.721   3.932  11.937  2.2444  0.7655  0.0860
 7252TIP3   OH243246   4.760   3.332   2.601 -0.0429 -0.0509 -0.0904
 7252TIP3    H143247   4.843   3.328   2.648  0.4492  1.8982 -0.7039
 7252TIP3    H243248   4.706   3.392   2.652 -0.7584 -0.6017 -0.1831
 7253TIP3   OH243249   1.439   4.601  16.766 -0.6131 -0.5140 -0.8388
 7253TIP3    H143250   1.441   4.697  16.766  0.6920 -0.4902  0.5955
 7253TIP3    H243251   1.349   4.578  16.788 -0.9009  0.3848 -1.0512
 7254TIP3   OH243252   3.423   0.012  15.489  0.5298 -0.1783  0.3503
 7254TIP3    H143253   3.433   0.017  15.584 -0.3674 -1.4260  0.5417
 7254TIP3    H243254   3.478  -0.062  15.462  1.2865  0.5762 -0.1918
 7255TIP3   OH243255   2.977   4.271  16.569  0.0964 -0.3420  0.1628
 7255TIP3    H143256   3.022   4.345  16.530 -0.3753 -0.1072  0.0592
 7255TIP3    H243257   2.905   4.310  16.619 -0.4781 -0.7476 -0.3265
 7256TIP3   OH243258   0.547   3.790  13.249 -0.4063  0.0010 -0.9239
 7256TIP3    H143259   0.616   3.795  13.315  0.7918  0.3156 -2.1468
 7256TIP3    H243260   0.593   3.766  13.169 -2.0376 -2.0469 -1.3404
 7257TIP3   OH243261   2.851   1.375   0.726  0.6697  0.3243  0.3386
 7257TIP3    H143262   2.814   1.349   0.642  0.4544 -0.9843  0.8239
 7257TIP3    H243263   2.888   1.295   0.762 -1.1496  0.3448  2.4716
 7258TIP3   OH243264   2.672   0.488   5.755  0.1305 -0.0408  0.2380
 7258TIP3    H143265   2.645   0.485   5.846  0.9307 -1.1904  0.4630
 7258TIP3    H243266   2.646   0.403   5.719  2.2985 -0.7311  0.1658
 7259TIP3   OH243267   1.619   0.490  11.416  0.1404 -0.3762 -0.1886
 7259TIP3    H143268   1.624   0.503  11.511 -1.1658  1.9264 -0.3699
 7259TIP3    H243269   1.692   0.541  11.381  0.1736 -0.6245 -0.4940
 7260TIP3   OH243270   3.369   5.394   5.369 -0.2220 -0.1381  0.0894
 7260TIP3    H143271   3.301   5.422   5.430 -0.2013 -0.3745  0.2227
 7260TIP3    H243272   3.419   5.329   5.417  0.9984  1.0712  0.5123
 7261TIP3   OH243273   4.626   1.156   3.606  0.3364 -0.0469  0.5237
 7261TIP3    H143274   4.685   1.108   3.548  2.0200  3.5028 -1.0083
 7261TIP3    H243275   4.681   1.221   3.649 -2.4137  4.7491 -2.3430
 7262TIP3   OH243276   2.632   2.262  12.394 -0.3971  0.1904  0.5162
 7262TIP3    H143277   2.548   2.218  12.409 -0.1152  0.3986  3.2049
 7262TIP3    H243278   2.686   2.196  12.350 -0.6647 -1.4720  2.5269
 7263TIP3   OH243279   4.355   2.277  14.285 -0.3967  0.5592  0.8521
 7263TIP3    H143280   4.341   2.263  14.379 -2.3663  2.5759  0.9372
 7263TIP3    H243281   4.333   2.369  14.270  2.3111  0.9893 -1.2024
 7264TIP3   OH243282   1.391   5.465  11.601 -0.1731  0.2207 -0.4151
 7264TIP3    H143283   1.350   5.550  11.582 -0.6600  0.3709  1.1818
 7264TIP3    H243284   1.372   5.412  11.524 -1.1596  1.0961 -0.8038
 7265TIP3   OH243285   0.069   6.013  12.151  0.4457  0.4211 -0.4783
 7265TIP3    H143286   0.039   5.943  12.093 -0.8022  0.0435  0.5645
 7265TIP3    H243287   0.165   6.012  12.143  0.5800 -2.2535  0.3973
 7266TIP3   OH243288   6.697   5.870   5.219 -0.6457  0.6170  0.0165
 7266TIP3    H143289   6.756   5.909   5.155 -0.5892 -0.6631 -0.7566
 7266TIP3    H243290   6.615   5.857   5.172 -1.0721  0.9917  0.6410
 7267TIP3   OH243291   0.335   2.245   0.524  0.5718  0.0402 -0.2996
 7267TIP3    H143292   0.381   2.262   0.606 -0.9146 -1.1974  0.8601
 7267TIP3    H243293   0.383   2.173   0.483  0.1014 -0.7744  0.5544
 7268TIP3   OH243294   0.906   2.725  11.342  0.2522 -0.1598  0.0766
 7268TIP3    H143295   0.883   2.749  11.252  0.1229  1.3490  0.4895
 7268TIP3    H243296   1.000   2.707  11.338  0.0175 -1.3260 -0.5923
 7269TIP3   OH243297   2.309   6.249   4.803  0.0861  0.4922 -0.2693
 7269TIP3    H143298   2.376   6.269   4.739  0.9255  1.6897  0.9236
 7269TIP3    H243299   2.345   6.176   4.854  0.5261  1.1529  0.3884
 7270TIP3   OH243300   4.385   6.300  16.605  0.2681  0.5244 -0.0820
 7270TIP3    H143301   4.461   6.252  16.572  0.4203  0.9653 -0.3808
 7270TIP3    H243302   4.385   6.381  16.556 -1.1797 -0.0288 -1.0540
 7271TIP3   OH243303   2.144   1.515  15.680 -0.2623 -0.1105 -0.0998
 7271TIP3    H143304   2.112   1.575  15.613 -0.4965 -0.0998  0.0224
 7271TIP3    H243305   2.231   1.489  15.649 -0.0833  0.4343 -0.0584
 7272TIP3   OH243306   2.592   5.165  13.296  0.3048 -0.5230  0.1972
 7272TIP3    H143307   2.515   5.191  13.244 -0.7181  1.2739  2.4679
 7272TIP3    H243308   2.660   5.149  13.230 -0.8130  1.9233 -1.7219
 7273TIP3   OH243309   2.009   2.724   1.726  0.1350  0.3177  0.1502
 7273TIP3    H143310   2.068   2.799   1.717  0.3338  0.4590  2.2424
 7273TIP3    H243311   2.010   2.682   1.639  0.4202  2.4057 -0.9159
 7274TIP3   OH243312   1.424   6.617   0.829 -0.5769  0.3769 -0.1530
 7274TIP3    H143313   1.396   6.527   0.812 -0.0226  0.2938 -0.6456
 7274TIP3    H243314   1.491   6.634   0.763  0.0555  0.8038  0.5903
 7275TIP3   OH243315   4.317   5.256  16.140  0.4671 -0.0967 -0.5787
 7275TIP3    H143316   4.301   5.169  16.103 -0.4582 -0.4933  0.6776
 7275TIP3    H243317   4.401   5.283  16.103  1.6499 -2.2816  0.3361
 7276TIP3   OH243318   0.535   4.036  15.165  0.0033  0.0547 -0.0976
 7276TIP3    H143319   0.543   3.968  15.232  2.6907  0.2892 -0.0775
 7276TIP3    H243320   0.484   4.105  15.207 -0.7640 -0.9696  0.6972
 7277TIP3   OH243321   2.182   4.996   3.688  0.1503  0.2645 -0.2407
 7277TIP3    H143322   2.188   4.944   3.607 -3.1419  0.1555 -0.5450
 7277TIP3    H243323   2.165   5.085   3.657  0.7854  0.5916  0.3386
 7278TIP3   OH243324   0.396   1.187  14.531 -0.6828 -0.0376  0.0705
 7278TIP3    H143325   0.364   1.240  14.458 -0.8033 -0.2937 -0.0637
 7278TIP3    H243326   0.482   1.225  14.552  0.3919 -1.3507 -1.6776
 7279TIP3   OH243327   1.312   3.057   2.155  0.2461  0.4160  0.2671
 7279TIP3    H143328   1.289   3.133   2.102 -1.5282  0.2627  0.7558
 7279TIP3    H243329   1.339   2.990   2.093 -2.5585 -0.0344 -0.5960
 7280TIP3   OH243330   0.966   3.324  11.356 -0.9844 -0.0373  0.0592
 7280TIP3    H143331   0.885   3.275  11.365 -0.6889 -0.6321 -0.4580
 7280TIP3    H243332   0.973   3.343  11.263 -0.7844  0.4555  0.1702
 7281TIP3   OH243333   0.963   1.884  12.332  1.2572 -0.0386  0.0650
 7281TIP3    H143334   1.024   1.951  12.365  1.3066 -0.1780  0.2589
 7281TIP3    H243335   0.899   1.873  12.402  2.4802 -1.7700  0.9954
 7282TIP3   OH243336   3.661   1.423  16.833  0.2964 -0.1667  0.2744
 7282TIP3    H143337   3.630   1.344  16.788 -1.2792  0.1980  0.6701
 7282TIP3    H243338   3.749   1.437  16.797  0.2414 -1.5557 -0.5012
 7283TIP3   OH243339   3.343   1.307  15.523 -0.0286  0.3495  0.6852
 7283TIP3    H143340   3.426   1.282  15.565  1.3176  1.9341 -0.8801
 7283TIP3    H243341   3.333   1.244  15.451  0.6575  1.0681 -0.0644
 7284TIP3   OH243342   6.802   2.841  13.835  0.1631 -0.3909  0.1589
 7284TIP3    H143343   6.723   2.887  13.865  0.3720  0.2248 -0.2042
 7284TIP3    H243344   6.769   2.768  13.783 -0.1985  0.9638 -1.6262
 7285TIP3   OH243345   1.434   4.522  15.470 -0.3658  0.3144 -0.0223
 7285TIP3    H143346   1.456   4.614  15.451  0.8836  0.1984  0.7461
 7285TIP3    H243347   1.498   4.495  15.536 -0.6235 -1.1646 -0.3429
 7286TIP3   OH243348   4.879   3.083  13.773 -0.6219  0.4216  0.2296
 7286TIP3    H143349   4.925   3.117  13.849  0.2544 -0.7444  0.2446
 7286TIP3    H243350   4.793   3.056  13.807 -0.4431  0.4167  0.6852
 7287TIP3   OH243351   5.878   6.790  14.832  0.0039 -0.1563  0.0139
 7287TIP3    H143352   5.945   6.834  14.780  1.0268  1.2081  2.3247
 7287TIP3    H243353   5.912   6.702  14.845 -0.2572 -0.5180 -1.5067
 7288TIP3   OH243354   2.348   5.770   0.513 -0.5076 -0.3179  0.0735
 7288TIP3    H143355   2.416   5.837   0.514 -1.8362  1.0844 -0.8532
 7288TIP3    H243356   2.345   5.737   0.603 -1.3111  2.4251  1.1446
 7289TIP3   OH243357   4.890   3.561  10.620  0.0298 -0.4107  0.0708
 7289TIP3    H143358   4.925   3.592  10.536 -1.2879 -0.0897 -0.3792
 7289TIP3    H243359   4.920   3.471  10.627 -1.1795 -0.9747 -1.5432
 7290TIP3   OH243360   3.381   4.476  12.725  0.1623 -0.1632  0.0738
 7290TIP3    H143361   3.307   4.529  12.755 -0.8095 -0.6355 -1.3634
 7290TIP3    H243362   3.421   4.443  12.805 -2.3222 -1.3889  0.9053
 7291TIP3   OH243363   5.925   3.697   3.718  0.2394 -0.1238 -0.5824
 7291TIP3    H143364   5.949   3.788   3.736  0.6221 -0.0111 -1.6289
 7291TIP3    H243365   5.865   3.674   3.789 -0.8796  1.3620 -0.9897
 7292TIP3   OH243366   2.775   0.567  14.791  0.1174  0.0775  0.9372
 7292TIP3    H143367   2.736   0.543  14.706 -2.7621  2.2592  1.4912
 7292TIP3    H243368   2.813   0.654  14.776 -1.5102  1.0338  2.1140
 7293TIP3   OH243369   5.015   2.483  14.770 -0.8974  0.0904 -0.2110
 7293TIP3    H143370   5.006   2.576  14.751  0.3144  0.0132 -1.2783
 7293TIP3    H243371   4.975   2.439  14.695  0.3445 -0.2197 -0.7257
 7294TIP3   OH243372   1.393   1.215  15.090  0.0045  0.1685  0.3115
 7294TIP3    H143373   1.369   1.208  15.182  1.9611  2.1726  1.0605
 7294TIP3    H243374   1.348   1.293  15.059  0.2776  0.1607 -0.1094
 7295TIP3   OH243375   1.832   0.596  15.056 -0.1561 -0.4327  0.5775
 7295TIP3    H143376   1.792   0.517  15.021  1.4071 -2.9785  3.9433
 7295TIP3    H243377   1.777   0.667  15.024 -2.1953 -2.8864 -1.8941
 7296TIP3   OH243378   3.682   4.315  16.092  0.7241  0.2108  0.4677
 7296TIP3    H143379   3.686   4.319  15.996 -0.1057 -0.3986  0.3900
 7296TIP3    H243380   3.651   4.401  16.119  0.1540  0.1202  0.1203
 7297TIP3   OH243381   4.886   5.232   0.876  0.0510 -0.3305 -0.1706
 7297TIP3    H143382   4.809   5.207   0.927 -1.8648 -0.4976 -2.8809
 7297TIP3    H243383   4.925   5.304   0.925 -0.8397 -1.3168  2.1329
 7298TIP3   OH243384   4.310   2.597  13.750 -0.1310 -0.2741  0.2286
 7298TIP3    H143385   4.378   2.532  13.733 -1.0298 -1.6492  1.6209
 7298TIP3    H243386   4.293   2.637  13.665  2.6468  0.3848 -0.1175
 7299TIP3   OH243387   0.886   4.821  12.975  0.3574 -0.4969 -0.3672
 7299TIP3    H143388   0.800   4.786  12.953 -0.5670 -0.3530  2.6195
 7299TIP3    H243389   0.873   4.916  12.983  0.3587 -0.6209  1.5873
 7300TIP3   OH243390   1.812   1.404   0.050 -0.3612  0.3656 -0.4047
 7300TIP3    H143391   1.857   1.471  -0.002 -2.3464  1.4989 -0.7710
 7300TIP3    H243392   1.744   1.370  -0.009  1.0425 -2.5807 -0.4974
 7301TIP3   OH243393   3.719   5.919  13.750 -0.4711 -0.3675 -0.6518
 7301TIP3    H143394   3.799   5.866  13.755 -2.4971 -3.7956 -1.2578
 7301TIP3    H243395   3.687   5.924  13.840 -1.3240 -2.0624 -0.8296
 7302TIP3   OH243396   6.549   5.135  14.054  0.1640 -0.2150 -0.0559
 7302TIP3    H143397   6.638   5.155  14.083  0.1814 -0.5147  0.1063
 7302TIP3    H243398   6.561   5.074  13.981  0.0856 -0.4164  0.0994
 7303TIP3   OH243399   3.686   0.607  14.135  0.7507  0.4663  0.3660
 7303TIP3    H143400   3.719   0.628  14.048  3.4987  1.1429  1.4617
 7303TIP3    H243401   3.649   0.519  14.126  1.6748  0.2068 -1.3190
 7304TIP3   OH243402   4.238   5.550   3.318 -0.5182 -0.3455  0.4295
 7304TIP3    H143403   4.301   5.508   3.260  0.2905  0.7640  0.4540
 7304TIP3    H243404   4.292   5.605   3.376 -1.1642 -2.1541  2.9355
 7305TIP3   OH243405   1.008   4.934   6.227 -0.3010  0.3333 -0.5275
 7305TIP3    H143406   0.985   5.024   6.252 -1.3818  0.0142 -0.3249
 7305TIP3    H243407   1.097   4.922   6.260  0.4333  1.8022 -1.8407
 7306TIP3   OH243408   4.838   6.280  14.273  0.2669  0.0918  0.5092
 7306TIP3    H143409   4.920   6.232  14.261  1.5296  1.9824  1.1330
 7306TIP3    H243410   4.798   6.239  14.350 -0.0190 -1.6273 -0.5006
 7307TIP3   OH243411   0.857   0.032  13.435  0.4600 -0.1929  0.5048
 7307TIP3    H143412   0.934  -0.018  13.461  2.2094  1.0224 -1.9123
 7307TIP3    H243413   0.878   0.123  13.457  0.1736  0.2694 -0.9633
 7308TIP3   OH243414   6.658   1.766  15.299 -0.0586  0.9254  0.2377
 7308TIP3    H143415   6.622   1.735  15.217 -1.0458  0.7299  0.7260
 7308TIP3    H243416   6.713   1.841  15.275  0.0245  0.5930 -0.6335
 7309TIP3   OH243417   1.299   3.423   1.521  0.0761 -0.7377 -0.1362
 7309TIP3    H143418   1.357   3.400   1.449  0.3601 -0.6652  0.0677
 7309TIP3    H243419   1.244   3.494   1.485  2.0888  1.2781  0.5638
 7310TIP3   OH243420   1.332   4.635   1.453 -0.2454  0.7316 -0.3109
 7310TIP3    H143421   1.293   4.550   1.435  2.6110 -0.6895 -0.3863
 7310TIP3    H243422   1.298   4.692   1.385 -3.3139  0.1085  0.5392
 7311TIP3   OH243423   5.755   2.302  11.062  0.3880 -0.6610 -0.4363
 7311TIP3    H143424   5.715   2.318  10.977  1.0634 -0.5847 -0.7511
 7311TIP3    H243425   5.682   2.300  11.124  0.0756  1.4965 -0.6726
 7312TIP3   OH243426   1.753   2.051  10.472  0.0863  0.2318  0.0014
 7312TIP3    H143427   1.689   2.086  10.409  1.9824 -0.0231 -2.2011
 7312TIP3    H243428   1.813   2.000  10.419  2.3792  0.7766  1.9082
 7313TIP3   OH243429   2.137   0.406  15.300 -0.4582 -0.4238  0.1184
 7313TIP3    H143430   2.058   0.351  15.300 -0.0611 -1.0729 -1.8175
 7313TIP3    H243431   2.208   0.346  15.326 -0.2763 -0.4020 -0.3258
 7314TIP3   OH243432   3.802   3.912   1.588  0.4263  0.1184  0.0136
 7314TIP3    H143433   3.867   3.920   1.659  0.6096 -1.4979  0.0625
 7314TIP3    H243434   3.788   4.002   1.559  1.3996  0.6797  1.1634
 7315TIP3   OH243435   1.082   3.388  11.998  1.0273 -0.1467 -0.1146
 7315TIP3    H143436   1.143   3.424  12.062  0.7132 -0.7200  0.5230
 7315TIP3    H243437   1.121   3.305  11.970  0.4468 -0.6381  0.4808
 7316TIP3   OH243438   6.495   5.277  16.533  0.4634  0.0076 -0.1803
 7316TIP3    H143439   6.449   5.331  16.468 -0.4064  0.5578  0.8633
 7316TIP3    H243440   6.427   5.247  16.592  1.3447  0.1792  0.9566
 7317TIP3   OH243441   5.658   4.565   5.704  0.1274  0.4949  0.3619
 7317TIP3    H143442   5.638   4.500   5.771 -0.3173  1.5275  1.2721
 7317TIP3    H243443   5.579   4.571   5.651  0.3924 -0.1468 -0.1188
 7318TIP3   OH243444   2.942   5.585  12.308 -0.1807  0.2621  0.2256
 7318TIP3    H143445   3.007   5.515  12.315  1.4524  1.7671  1.0782
 7318TIP3    H243446   2.904   5.592  12.395 -2.0572 -1.0655 -0.4389
 7319TIP3   OH243447   4.333   1.281   3.306  0.5471  0.1189 -0.1822
 7319TIP3    H143448   4.329   1.186   3.315  0.1343  0.1697  0.1684
 7319TIP3    H243449   4.335   1.314   3.396 -2.2871  0.5619 -0.2061
 7320TIP3   OH243450   0.565   2.673  13.765 -0.0822 -0.9553  0.0983
 7320TIP3    H143451   0.615   2.661  13.684  1.2372  1.0621  0.5581
 7320TIP3    H243452   0.508   2.748  13.748  2.4107  1.5506  1.9065
 7321TIP3   OH243453   1.946   0.495   2.351  0.2055  0.0700 -0.9316
 7321TIP3    H143454   1.974   0.545   2.275 -1.4475 -0.0868 -1.6798
 7321TIP3    H243455   1.854   0.517   2.362 -0.6512 -2.8590 -1.3972
 7322TIP3   OH243456   5.142   6.524  15.831 -0.0676 -0.0594 -0.2848
 7322TIP3    H143457   5.056   6.550  15.800 -0.6601 -1.9352 -0.3466
 7322TIP3    H243458   5.197   6.601  15.817 -1.3729  0.6807 -1.6390
 7323TIP3   OH243459   6.386   1.192   2.953 -0.6311  0.2380  0.0510
 7323TIP3    H143460   6.443   1.168   2.880  1.1894  1.0783  1.1019
 7323TIP3    H243461   6.348   1.109   2.983 -1.0296 -0.1736 -1.5083
 7324TIP3   OH243462   5.623   0.987   5.750 -0.1781 -0.1364 -0.5618
 7324TIP3    H143463   5.707   1.008   5.792 -0.6248  2.4975 -0.8456
 7324TIP3    H243464   5.567   0.959   5.822  0.1798  0.6494  0.0434
 7325TIP3   OH243465   3.188   5.475  12.660  0.3881  0.2374 -0.2521
 7325TIP3    H143466   3.150   5.396  12.699  0.5450  0.4974  0.4353
 7325TIP3    H243467   3.274   5.448  12.629  1.2835  0.5951  1.7780
 7326TIP3   OH243468   0.697   3.095  12.923  0.2734 -0.2939  0.9170
 7326TIP3    H143469   0.704   3.084  13.018  1.3131 -1.4058  0.7416
 7326TIP3    H243470   0.787   3.101  12.893 -0.0607  2.1152  0.1646
 7327TIP3   OH243471   2.025   4.453  15.202 -0.2298 -0.6033  0.4391
 7327TIP3    H143472   1.961   4.439  15.272 -0.9185 -0.8690 -0.2333
 7327TIP3    H243473   2.099   4.397  15.226 -0.5267 -0.8237  0.8633
 7328TIP3   OH243474   3.474   5.449  12.765  0.1067  0.2089 -0.1250
 7328TIP3    H143475   3.490   5.527  12.818 -0.0748  0.5238 -0.5404
 7328TIP3    H243476   3.463   5.481  12.676 -1.4529 -0.1338 -0.0805
 7329TIP3   OH243477   3.723   1.229  11.317  0.4617 -0.9169 -0.6196
 7329TIP3    H143478   3.684   1.301  11.267  2.1696 -0.3508 -1.2069
 7329TIP3    H243479   3.721   1.258  11.408  0.0654 -0.6390 -0.7175
 7330TIP3   OH243480   3.808   6.077   0.872 -0.1111  0.0469  0.2019
 7330TIP3    H143481   3.782   6.057   0.962 -0.3261  0.6672  0.2871
 7330TIP3    H243482   3.899   6.048   0.866 -0.6834 -1.8456  0.0079
 7331TIP3   OH243483   1.598   5.747  15.053  0.2147  0.0475 -0.5466
 7331TIP3    H143484   1.573   5.832  15.017 -0.1693 -0.0501 -0.5112
 7331TIP3    H243485   1.634   5.699  14.979  1.0682  0.4772 -0.4316
 7332TIP3   OH243486   4.573   3.116   4.481  0.3211 -0.3078 -0.1760
 7332TIP3    H143487   4.650   3.172   4.470  0.1896 -0.1084 -0.0950
 7332TIP3    H243488   4.518   3.136   4.406  0.1931 -0.1942 -0.0547
 7333TIP3   OH243489   1.455   2.659  12.593 -0.5578 -0.1466 -0.1864
 7333TIP3    H143490   1.467   2.754  12.586 -0.4571 -0.2521 -2.0565
 7333TIP3    H243491   1.521   2.622  12.535 -1.4415 -1.2921 -0.5099
 7334TIP3   OH243492   1.552   1.175   0.249  0.7182 -0.0051 -0.2672
 7334TIP3    H143493   1.476   1.144   0.200 -0.7632  1.7467  0.7694
 7334TIP3    H243494   1.626   1.162   0.190 -0.7733  0.6053 -2.3786
 7335TIP3   OH243495   1.313   3.588  14.617  0.2099  0.3736 -0.1710
 7335TIP3    H143496   1.336   3.681  14.617  1.0605  0.2337 -2.8181
 7335TIP3    H243497   1.311   3.563  14.525 -1.0681 -2.0127  0.4032
 7336TIP3   OH243498   3.736   0.512   6.784  0.0876 -0.3169  0.0438
 7336TIP3    H143499   3.696   0.433   6.749 -0.7526  0.4189 -0.7061
 7336TIP3    H243500   3.827   0.509   6.754 -0.1847 -0.5350 -0.7760
 7337TIP3   OH243501   5.619   4.806   1.833  0.3500 -0.0837 -0.0036
 7337TIP3    H143502   5.657   4.718   1.831  3.0516  0.9978  0.2038
 7337TIP3    H243503   5.622   4.836   1.742 -2.9544 -1.0343 -0.5678
 7338TIP3   OH243504   0.601   2.675   3.106 -0.8620  0.3695  0.1420
 7338TIP3    H143505   0.628   2.678   3.014 -0.7219  1.7116  0.2070
 7338TIP3    H243506   0.656   2.606   3.145 -0.0994  0.5789 -0.5365
 7339TIP3   OH243507   5.136   2.541   4.363 -0.0279  0.5881  0.3346
 7339TIP3    H143508   5.228   2.517   4.357  0.1841  1.1111  1.2497
 7339TIP3    H243509   5.115   2.532   4.456 -0.4924  1.9135  0.3858
 7340TIP3   OH243510   5.745   1.702  15.405 -0.3065  0.6046 -0.1613
 7340TIP3    H143511   5.751   1.777  15.346 -1.0467 -0.3675 -1.5358
 7340TIP3    H243512   5.810   1.719  15.473  1.4982  1.1854 -1.9347
 7341TIP3   OH243513   5.456   0.527   2.281  0.6698  0.0675 -0.3535
 7341TIP3    H143514   5.436   0.607   2.330 -0.9420  1.8214 -3.5884
 7341TIP3    H243515   5.532   0.550   2.228 -0.6920  0.0317 -2.3970
 7342TIP3   OH243516   3.032   1.422   1.289 -0.0400  0.1951  0.1997
 7342TIP3    H143517   2.970   1.429   1.216 -0.2795 -0.6715  0.3083
 7342TIP3    H243518   3.109   1.381   1.251 -0.7854 -1.8288  0.7665
 7343TIP3   OH243519   1.128   2.540   3.407 -0.3211 -0.0937  0.3272
 7343TIP3    H143520   1.049   2.568   3.454  0.0013 -0.2235  0.9568
 7343TIP3    H243521   1.184   2.503   3.475  0.6352  0.7578  0.0264
 7344TIP3   OH243522   6.032   6.325   3.390  0.5166  0.1199  0.0113
 7344TIP3    H143523   6.069   6.412   3.402 -1.0166  0.8684 -0.4930
 7344TIP3    H243524   5.970   6.334   3.319  0.1737 -1.3476  0.0797
 7345TIP3   OH243525   5.196   1.965  14.455  0.2179  0.4048  0.7157
 7345TIP3    H143526   5.242   1.940  14.374 -0.4800  1.4912 -0.0503
 7345TIP3    H243527   5.176   2.058  14.443  1.6218  1.0635  2.9154
 7346TIP3   OH243528   5.496   0.568   6.423  0.1014 -0.3235  0.0256
 7346TIP3    H143529   5.478   0.659   6.445  0.3086 -0.1383 -0.5616
 7346TIP3    H243530   5.459   0.518   6.496 -0.8735  0.1683 -0.1108
 7347TIP3   OH243531   4.950   0.665   2.048 -0.0902  0.8802 -0.3283
 7347TIP3    H143532   4.880   0.700   1.992 -0.9100 -1.4088 -0.8588
 7347TIP3    H243533   4.995   0.601   1.993  0.2952 -0.0605  1.0291
 7348TIP3   OH243534   2.337   0.103  13.094  0.1654 -0.1973 -0.3277
 7348TIP3    H143535   2.327   0.043  13.168 -1.1104 -0.4554 -0.7010
 7348TIP3    H243536   2.316   0.189  13.129  3.2505  0.3447  0.5529
 7349TIP3   OH243537   1.767   0.371  16.890 -0.7254 -0.3074  0.9403
 7349TIP3    H143538   1.830   0.442  16.905  0.5342 -1.0999 -0.4143
 7349TIP3    H243539   1.797   0.328  16.810 -1.8086 -2.0107  1.3924
 7350TIP3   OH243540   1.771   2.542  14.702  0.0661 -0.0439 -0.5930
 7350TIP3    H143541   1.694   2.596  14.723  0.7955  0.2495  1.5594
 7350TIP3    H243542   1.774   2.541  14.607 -1.0115  2.2521 -0.7275
 7351TIP3   OH243543   4.565   3.064  16.730  0.0515  0.2426  0.4952
 7351TIP3    H143544   4.635   3.128  16.713 -0.6829  0.6229 -1.3205
 7351TIP3    H243545   4.550   3.070  16.825  1.7644  0.8741  0.7697
 7352TIP3   OH243546   3.699   6.834  15.772  0.0280  0.2781  0.5713
 7352TIP3    H143547   3.710   6.756  15.827  1.9214  0.8322  1.0414
 7352TIP3    H243548   3.757   6.820  15.698 -1.5569  0.1222 -0.7000
 7353TIP3   OH243549   2.117   1.824  11.807 -0.1956 -0.2964  0.2196
 7353TIP3    H143550   2.108   1.918  11.790  1.6335  0.0877  1.1183
 7353TIP3    H243551   2.165   1.791  11.731  1.8133  0.1044  1.2569
 7354TIP3   OH243552   5.395   1.605  16.929 -0.4196 -0.1920  0.4581
 7354TIP3    H143553   5.482   1.566  16.940  0.1680  1.0340  0.3834
 7354TIP3    H243554   5.336   1.546  16.975  0.3469 -1.4394 -0.1020
 7355TIP3   OH243555   2.642   6.510   6.688  0.1610 -0.6562 -0.4427
 7355TIP3    H143556   2.715   6.530   6.745 -1.6366  1.9958  1.1717
 7355TIP3    H243557   2.618   6.420   6.709  0.6658 -0.3304  1.7461
 7356TIP3   OH243558   4.655   2.558  12.939 -0.0556  0.8623 -0.6939
 7356TIP3    H143559   4.590   2.597  12.997  0.0638  1.7898 -1.1677
 7356TIP3    H243560   4.729   2.537  12.996 -1.5720 -2.3399  0.3022
 7357TIP3   OH243561   5.668   1.502   5.244 -0.1950 -0.1539 -0.8374
 7357TIP3    H143562   5.572   1.505   5.249 -0.2468  0.1173 -1.8236
 7357TIP3    H243563   5.687   1.506   5.150  0.8057  0.5631 -0.6196
 7358TIP3   OH243564   4.526   1.972   0.555 -0.2888 -0.1179 -0.2349
 7358TIP3    H143565   4.468   2.047   0.568 -1.0422 -0.5141 -1.2445
 7358TIP3    H243566   4.608   1.999   0.596 -0.8956  0.8053  0.4250
 7359TIP3   OH243567   2.240   5.475  12.905  0.4531  0.4535 -0.5502
 7359TIP3    H143568   2.308   5.540  12.918 -0.5530  1.4157  0.0432
 7359TIP3    H243569   2.171   5.521  12.857 -1.4128  0.6677  2.1288
 7360TIP3   OH243570   3.370   3.875   1.344  0.4757  0.6351  0.2959
 7360TIP3    H143571   3.316   3.856   1.267  2.0752  1.2681 -1.0546
 7360TIP3    H243572   3.374   3.792   1.392 -3.3116  1.0280  1.6245
 7361TIP3   OH243573   5.182   6.443  11.796  0.2112 -0.1694 -0.3888
 7361TIP3    H143574   5.183   6.489  11.880 -1.3155  0.2117 -0.5607
 7361TIP3    H243575   5.270   6.456  11.761  0.9479 -0.5062  1.2228
 7362TIP3   OH243576   2.329   3.339   2.171  0.3178  0.2835 -0.3870
 7362TIP3    H143577   2.279   3.260   2.152 -1.1044  0.5872  1.7090
 7362TIP3    H243578   2.418   3.308   2.186 -0.1368 -0.8758  0.0368
 7363TIP3   OH243579   4.569   1.304   2.592  0.3622 -0.4831 -0.3232
 7363TIP3    H143580   4.518   1.385   2.590 -0.5011 -1.0214 -0.6196
 7363TIP3    H243581   4.588   1.291   2.685 -0.0887 -0.2997 -0.2009
 7364TIP3   OH243582   2.444   1.345   3.968  0.1305 -0.1558 -0.5578
 7364TIP3    H143583   2.396   1.264   3.950 -0.0632  0.1341 -1.3601
 7364TIP3    H243584   2.536   1.321   3.958  0.0390 -0.0690 -1.6781
 7365TIP3   OH243585   4.601   3.827  10.910 -0.5860  0.3370 -0.3839
 7365TIP3    H143586   4.610   3.919  10.933  0.2033  0.4611 -1.1154
 7365TIP3    H243587   4.507   3.810  10.913 -0.7535  1.2123 -0.3964
 7366TIP3   OH243588   1.274   4.481  14.244  1.2481 -0.1508  0.7066
 7366TIP3    H143589   1.357   4.526  14.228 -0.0171  1.9137 -0.3893
 7366TIP3    H243590   1.233   4.475  14.158  0.4547 -1.6182  1.1527
 7367TIP3   OH243591   4.638   1.515   1.287 -0.0286 -0.1057 -1.0975
 7367TIP3    H143592   4.723   1.551   1.314 -0.7392  0.8466 -0.0321
 7367TIP3    H243593   4.659   1.460   1.212  1.7376 -1.0372  0.0044
 7368TIP3   OH243594   1.541   3.730  11.247 -0.5919  0.1188 -0.5300
 7368TIP3    H143595   1.480   3.704  11.178 -1.5184  0.8923 -0.0193
 7368TIP3    H243596   1.508   3.686  11.326 -0.5913  0.6566 -0.2225
 7369TIP3   OH243597   4.084   5.237   6.141  0.0134  0.5310 -0.4815
 7369TIP3    H143598   4.062   5.323   6.176 -0.4195  0.5649 -0.8356
 7369TIP3    H243599   4.001   5.201   6.110  0.2875  0.2227 -0.8644
 7370TIP3   OH243600   4.885   6.320   6.372 -0.5618 -0.5355  0.5707
 7370TIP3    H143601   4.973   6.283   6.378 -0.5045 -1.1945 -2.3754
 7370TIP3    H243602   4.829   6.257   6.419  0.5483  0.2037  2.9778
 7371TIP3   OH243603   4.851   4.129   0.957 -0.0940  0.4278 -0.6237
 7371TIP3    H143604   4.839   4.078   1.037 -0.7510  0.3382 -0.7662
 7371TIP3    H243605   4.772   4.109   0.905  0.2881  0.5419 -1.2558
 7372TIP3   OH243606   6.245   2.963   4.521  0.1496  0.0831  0.6821
 7372TIP3    H143607   6.183   3.002   4.460  0.3085  0.8238  0.9784
 7372TIP3    H243608   6.279   2.886   4.476  0.7975  1.0056 -0.4618
 7373TIP3   OH243609   3.446   2.437  17.017 -0.2284 -0.2512 -0.0464
 7373TIP3    H143610   3.443   2.518  17.066  1.3682  0.5890 -1.2552
 7373TIP3    H243611   3.379   2.447  16.949 -0.2712 -0.0902  0.0203
 7374TIP3   OH243612   2.230   4.858  16.119  0.6103 -0.0062 -0.1993
 7374TIP3    H143613   2.226   4.944  16.078  1.8121  0.9238  1.5115
 7374TIP3    H243614   2.246   4.797  16.047  1.7653  1.4398 -1.2025
 7375TIP3   OH243615   1.031   5.773   3.754  0.7019 -0.9885 -0.2084
 7375TIP3    H143616   1.112   5.817   3.779 -0.9762  2.0890  0.2805
 7375TIP3    H243617   0.991   5.831   3.689 -2.2739 -1.0533  1.3973
 7376TIP3   OH243618   3.482   0.270  12.587  0.4068  0.4193 -0.1032
 7376TIP3    H143619   3.498   0.345  12.644 -0.0522  0.5928 -0.1981
 7376TIP3    H243620   3.569   0.239  12.564  0.5994  0.4545  0.5469
 7377TIP3   OH243621   4.007   5.533  15.114 -0.0824 -0.1277 -0.2270
 7377TIP3    H143622   4.074   5.599  15.133  1.3292 -1.3579 -0.8388
 7377TIP3    H243623   3.935   5.556  15.173  1.7675 -0.1500  2.2070
 7378TIP3   OH243624   4.680   2.692   2.749 -0.1352 -0.5040 -0.5812
 7378TIP3    H143625   4.666   2.616   2.806 -0.4013 -2.7433 -3.3973
 7378TIP3    H243626   4.775   2.705   2.750 -0.2177  0.1503  1.0966
 7379TIP3   OH243627   0.459   0.236  13.246 -0.4613 -0.1272 -0.5399
 7379TIP3    H143628   0.388   0.172  13.244  0.6260 -1.5543  1.8101
 7379TIP3    H243629   0.453   0.276  13.332  1.1534  0.1976 -0.5456
 7380TIP3   OH243630   6.077   3.503   1.810  0.3206  0.0517 -0.0508
 7380TIP3    H143631   6.155   3.456   1.840  0.5682  1.6836  2.0720
 7380TIP3    H243632   6.087   3.591   1.846 -0.2540  1.7608 -3.5934
 7381TIP3   OH243633   5.659   4.904   4.049  0.2133  0.8054 -0.2885
 7381TIP3    H143634   5.638   4.976   4.108 -1.1378  0.5121 -0.3824
 7381TIP3    H243635   5.635   4.825   4.099  0.5398  0.4745 -0.6463
 7382TIP3   OH243636   1.877   6.040  14.037  0.2659  0.1085  0.8330
 7382TIP3    H143637   1.935   6.107  14.072  2.7726 -1.9538  0.8847
 7382TIP3    H243638   1.915   6.016  13.952 -1.9076  0.3128 -0.2943
 7383TIP3   OH243639   2.051   6.533   4.221 -0.1351  0.5211  0.2141
 7383TIP3    H143640   2.146   6.545   4.222  0.0290 -0.1897 -2.1393
 7383TIP3    H243641   2.018   6.604   4.166 -0.8065 -0.0233 -0.1074
 7384TIP3   OH243642   1.169   3.571  15.546  0.1576  0.5811  0.3149
 7384TIP3    H143643   1.122   3.547  15.467 -3.3331 -0.4223  2.4481
 7384TIP3    H243644   1.233   3.636  15.518 -1.0044  0.3718 -3.2465
 7385TIP3   OH243645   4.033   1.239  16.091  0.1195 -0.4029 -0.0241
 7385TIP3    H143646   4.029   1.231  16.186 -0.1679  0.9495  0.0946
 7385TIP3    H243647   4.084   1.163  16.062  1.7766  0.1229  1.3650
 7386TIP3   OH243648   5.727   6.730  15.572 -0.3533  0.6271 -0.2325
 7386TIP3    H143649   5.689   6.689  15.495  0.3315  1.9396 -1.3043
 7386TIP3    H243650   5.820   6.708  15.568 -0.1124  1.6211 -0.4120
 7387TIP3   OH243651   0.336   6.132  12.915  0.0078 -0.3438  0.1914
 7387TIP3    H143652   0.302   6.044  12.899 -1.5743  0.0245  1.2840
 7387TIP3    H243653   0.431   6.120  12.925 -0.2025 -1.9586  0.5310
 7388TIP3   OH243654   0.874   2.840   4.202  0.6313 -0.4208 -0.7687
 7388TIP3    H143655   0.855   2.758   4.156  2.0157 -0.4874 -1.2621
 7388TIP3    H243656   0.969   2.849   4.197  0.7602 -0.0229  1.4067
 7389TIP3   OH243657   5.598   2.162   5.119 -0.0520  0.1214  0.2090
 7389TIP3    H143658   5.578   2.130   5.207 -1.0872 -1.5358 -0.5841
 7389TIP3    H243659   5.693   2.152   5.111  0.4284  2.4829  1.9122
 7390TIP3   OH243660   5.942   0.338  16.003 -0.0120  0.2772  0.6651
 7390TIP3    H143661   5.855   0.358  15.970 -0.5474 -1.6847  0.7489
 7390TIP3    H243662   5.927   0.274  16.073  1.4785  0.1162  0.8712
 7391TIP3   OH243663   0.263   0.968  13.817  0.0480 -0.0872 -0.1562
 7391TIP3    H143664   0.182   0.931  13.851 -0.0689  0.6658  0.3967
 7391TIP3    H243665   0.268   1.055  13.855  0.1110  0.6463 -1.7514
 7392TIP3   OH243666   0.260   4.189  13.638  0.4635 -0.1073  0.6636
 7392TIP3    H143667   0.340   4.150  13.672  1.3490  1.1174  0.0417
 7392TIP3    H243668   0.190   4.151  13.692  1.5376 -0.5166  1.8066
 7393TIP3   OH243669   3.646   2.469   1.147 -0.1915 -0.1616  0.0469
 7393TIP3    H143670   3.594   2.536   1.191  0.7610 -0.8723  2.4179
 7393TIP3    H243671   3.587   2.393   1.142 -0.7713  0.3437 -1.2831
 7394TIP3   OH243672   0.234   4.854   3.149  1.0055 -0.0028 -0.0588
 7394TIP3    H143673   0.144   4.828   3.168  1.8999 -2.3974  1.3996
 7394TIP3    H243674   0.246   4.935   3.198 -0.1429 -0.0309  0.3058
 7395TIP3   OH243675   3.507   3.913   6.823  0.7277 -0.8844 -0.1801
 7395TIP3    H143676   3.510   3.823   6.857  0.3011 -0.8936 -0.1640
 7395TIP3    H243677   3.552   3.907   6.738  0.9366 -1.0583 -0.0585
 7396TIP3   OH243678   6.248   5.794   4.402 -0.1630 -1.0913 -0.6208
 7396TIP3    H143679   6.318   5.849   4.367  1.1859 -1.8735  0.7023
 7396TIP3    H243680   6.202   5.851   4.464  1.0136 -1.3114  0.4915
 7397TIP3   OH243681   6.563   2.386  16.030  0.2841  0.2317  0.0917
 7397TIP3    H143682   6.613   2.325  16.084  0.9902  0.9499  0.2606
 7397TIP3    H243683   6.626   2.420  15.967 -0.2551  0.3047 -0.4177
 7398TIP3   OH243684   5.203   5.711   6.500 -0.0677 -0.4164 -0.0244
 7398TIP3    H143685   5.242   5.636   6.544  0.8245  1.3837  2.4286
 7398TIP3    H243686   5.194   5.682   6.409  1.3195 -3.0501  0.5615
 7399TIP3   OH243687   0.239   1.615  10.528 -0.2692 -0.4420 -0.3712
 7399TIP3    H143688   0.188   1.647  10.454 -1.1905  1.2413  0.9331
 7399TIP3    H243689   0.319   1.581  10.488 -0.0783  1.7344 -2.0468
 7400TIP3   OH243690   3.749   1.110   1.603 -0.0846 -0.4144  0.4069
 7400TIP3    H143691   3.723   1.131   1.692 -1.8921 -1.1333  0.0822
 7400TIP3    H243692   3.737   1.015   1.596  1.3994 -0.5857 -0.1897
 7401TIP3   OH243693   6.248   5.750   2.065 -0.0719  0.6595 -0.2512
 7401TIP3    H143694   6.277   5.806   2.137  2.4910 -0.3206 -0.4262
 7401TIP3    H243695   6.221   5.812   1.997  1.8245  1.7294 -0.1029
 7402TIP3   OH243696   1.011   2.035  12.561  0.0706  0.0743 -0.3493
 7402TIP3    H143697   1.093   2.079  12.583  0.4327  0.5784 -2.5200
 7402TIP3    H243698   1.018   1.949  12.604  1.5524  0.2539 -0.1849
 7403TIP3   OH243699   6.704   0.909   3.558  0.0847 -0.3750  0.5824
 7403TIP3    H143700   6.782   0.900   3.503 -0.3525 -0.6636  0.0033
 7403TIP3    H243701   6.646   0.840   3.528 -0.8291  0.5054  0.2783
 7404TIP3   OH243702   4.459   6.661   1.793 -0.1488  0.3937 -0.2538
 7404TIP3    H143703   4.386   6.719   1.810 -0.7452 -0.4474  0.1550
 7404TIP3    H243704   4.426   6.597   1.730 -0.8081 -1.7716  2.0769
 7405TIP3   OH243705   0.895   2.363  13.124 -0.2778 -0.3643 -0.8238
 7405TIP3    H143706   0.938   2.391  13.043  1.1317 -1.3903 -0.4902
 7405TIP3    H243707   0.855   2.279  13.102 -0.5487 -0.2790 -0.6555
 7406TIP3   OH243708   6.068   1.224  11.698  0.0075 -0.2373 -0.0748
 7406TIP3    H143709   6.095   1.202  11.609  2.3817 -1.1227  0.7711
 7406TIP3    H243710   6.002   1.158  11.720  1.2918 -1.6734 -0.3396
 7407TIP3   OH243711   1.801   5.164  15.286 -0.9702  0.0658  0.1376
 7407TIP3    H143712   1.840   5.178  15.372 -0.4589 -2.0999  0.3282
 7407TIP3    H243713   1.866   5.113  15.238 -1.9697 -0.2680 -0.9120
 7408TIP3   OH243714   4.354   1.439   5.332 -0.0665  0.5353 -0.1787
 7408TIP3    H143715   4.405   1.380   5.275 -0.2377  1.1119 -0.9446
 7408TIP3    H243716   4.268   1.445   5.289 -0.5294  0.1987  0.6803
 7409TIP3   OH243717   0.288   6.332  13.093  0.0621 -0.4486 -0.1271
 7409TIP3    H143718   0.271   6.246  13.052 -2.3154 -1.9914  3.5773
 7409TIP3    H243719   0.224   6.390  13.052  1.2610 -0.4954 -2.2242
 7410TIP3   OH243720   0.450   1.615   0.406 -0.8873  0.3968 -0.3012
 7410TIP3    H143721   0.508   1.665   0.349  2.2699 -0.6660  1.7459
 7410TIP3    H243722   0.414   1.546   0.349  1.5990 -0.2280 -1.2438
 7411TIP3   OH243723   5.076   1.474  15.874 -0.4054  0.5279 -0.5680
 7411TIP3    H143724   5.076   1.570  15.874 -0.1508  0.5281 -0.6871
 7411TIP3    H243725   5.032   1.451  15.956 -1.0276  0.7418 -0.8331
 7412TIP3   OH243726   0.108   2.699  12.450  0.0814 -0.0675  0.2596
 7412TIP3    H143727   0.173   2.737  12.508  1.1859  1.3019 -1.7351
 7412TIP3    H243728   0.038   2.764  12.447 -0.0927 -0.2541  0.2543
 7413TIP3   OH243729   5.422   2.703  11.591 -0.2351  0.2099 -0.0485
 7413TIP3    H143730   5.513   2.677  11.585 -0.7171 -1.3444 -1.4999
 7413TIP3    H243731   5.405   2.713  11.684  1.2315 -0.1575  0.2764
 7414TIP3   OH243732   5.964   6.604  11.613  0.3375  0.4648  0.0241
 7414TIP3    H143733   5.909   6.593  11.690 -0.8212 -0.5302 -0.9017
 7414TIP3    H243734   5.922   6.551  11.546  3.5191 -2.1138 -0.2120
 7415TIP3   OH243735   1.033   4.733  12.685 -0.7798 -0.0973 -0.1248
 7415TIP3    H143736   0.956   4.775  12.646 -0.4629  0.7435  0.1419
 7415TIP3    H243737   0.998   4.656  12.730 -1.5364  0.5331  0.3858
 7416TIP3   OH243738   4.184   6.609  12.243  0.8009 -0.0845  0.5335
 7416TIP3    H143739   4.139   6.572  12.319 -0.7499 -0.0649 -0.3304
 7416TIP3    H243740   4.277   6.606  12.266  0.5834 -2.5518  1.3584
 7417TIP3   OH243741   0.811   5.467  14.511 -0.4523  0.3500 -0.0767
 7417TIP3    H143742   0.749   5.528  14.551  1.1025  1.1472  1.2440
 7417TIP3    H243743   0.855   5.519  14.443  0.6380  0.6164  0.8205
 7418TIP3   OH243744   6.143   6.315  17.016  0.4943 -0.1609 -0.2369
 7418TIP3    H143745   6.199   6.244  17.046  0.2458 -0.8478 -1.3545
 7418TIP3    H243746   6.115   6.359  17.096  0.2732 -1.6023  0.5100
 7419TIP3   OH243747   0.918   6.340  14.694 -0.3178  0.2764  0.1613
 7419TIP3    H143748   0.977   6.273  14.661  0.2799 -0.1218  1.9457
 7419TIP3    H243749   0.975   6.407  14.732 -0.9525  0.9705 -0.0805
 7420TIP3   OH243750   4.525   4.251  16.519 -0.3255 -0.6129  0.2814
 7420TIP3    H143751   4.499   4.287  16.434  2.5047  1.0897 -0.0127
 7420TIP3    H243752   4.544   4.328  16.573  1.5236 -1.6187  1.1777
 7421TIP3   OH243753   2.798   3.571  14.810 -0.4620 -0.0689 -0.0957
 7421TIP3    H143754   2.797   3.478  14.830 -1.1059 -0.2839 -1.0514
 7421TIP3    H243755   2.737   3.580  14.736 -0.9773  1.2086  0.4609
 7422TIP3   OH243756   0.066   0.178  15.818  0.1183  0.2703 -0.2919
 7422TIP3    H143757   0.124   0.117  15.865  1.2600  1.1216 -0.5642
 7422TIP3    H243758   0.004   0.121  15.773 -0.3223 -0.6204  1.3326
 7423TIP3   OH243759   1.618   0.414  15.084 -0.2760  0.0026  0.4329
 7423TIP3    H143760   1.549   0.398  15.149  0.9767 -0.8706  1.5985
 7423TIP3    H243761   1.687   0.351  15.106  1.6915  2.0412  0.4681
 7424TIP3   OH243762   0.404   2.588   2.373  0.3345 -0.5767  0.2641
 7424TIP3    H143763   0.315   2.620   2.357 -0.4298 -2.7158  0.0241
 7424TIP3    H243764   0.433   2.636   2.451 -0.5565  0.9824 -0.3188
 7425TIP3   OH243765   3.009   2.080  12.110 -0.1596 -0.1072  0.7449
 7425TIP3    H143766   3.078   2.142  12.084 -1.1023  0.7754  0.3136
 7425TIP3    H243767   2.978   2.114  12.194  1.1697 -1.5536  1.8865
 7426TIP3   OH243768   4.245   3.416  14.723 -0.3794  0.1004 -0.5755
 7426TIP3    H143769   4.158   3.377  14.716 -0.1691 -0.2671 -1.2527
 7426TIP3    H243770   4.238   3.476  14.797 -0.8944 -0.7406  0.0776
 7427TIP3   OH243771   3.887   5.073   2.872  0.1287 -0.0979  0.2119
 7427TIP3    H143772   3.976   5.063   2.906  0.8192  1.1233 -1.1519
 7427TIP3    H243773   3.840   5.117   2.943  0.7742 -0.1607  0.6915
 7428TIP3   OH243774   1.998   6.021   6.056 -0.3251  0.8044 -0.3764
 7428TIP3    H143775   1.978   5.929   6.038  0.0447  0.3032  1.6122
 7428TIP3    H243776   1.968   6.036   6.145  0.8888  2.2415 -0.1577
 7429TIP3   OH243777   6.419   0.748   6.466 -0.2161  0.6082  0.3266
 7429TIP3    H143778   6.399   0.659   6.493 -1.1132  0.3930 -0.9622
 7429TIP3    H243779   6.514   0.755   6.475 -0.0924 -0.5965  0.0981
 7430TIP3   OH243780   4.683   5.145   3.073  0.3357 -0.2585 -0.5595
 7430TIP3    H143781   4.774   5.155   3.046  0.3680 -1.5404 -0.9904
 7430TIP3    H243782   4.668   5.051   3.074 -0.9577 -0.0752 -0.3667
 7431TIP3   OH243783   0.779   0.938   4.324  0.0372 -0.2587 -0.5629
 7431TIP3    H143784   0.848   0.874   4.308  0.1905 -0.0207 -0.8810
 7431TIP3    H243785   0.699   0.886   4.329  0.3240 -0.6265  0.6185
 7432TIP3   OH243786   0.428   5.094  14.731 -0.1491  0.2189 -0.3021
 7432TIP3    H143787   0.423   5.087  14.635 -0.4988  0.1808 -0.2829
 7432TIP3    H243788   0.403   5.007  14.762  0.7117 -0.0031 -0.1892
 7433TIP3   OH243789   4.187   4.086   3.116  0.3662  0.3465  0.0801
 7433TIP3    H143790   4.203   4.134   3.197  1.4345 -1.8125  1.2301
 7433TIP3    H243791   4.117   4.024   3.137  0.3829  0.0223 -0.7507
 7434TIP3   OH243792   3.439   3.891  15.798  0.6581 -0.3661  0.5833
 7434TIP3    H143793   3.530   3.909  15.775 -0.2411  1.1128 -2.3510
 7434TIP3    H243794   3.410   3.969  15.846  0.1536  0.6286 -1.2464
 7435TIP3   OH243795   6.620   6.436  13.595 -0.1612 -0.4128  0.4519
 7435TIP3    H143796   6.636   6.365  13.657  0.9400 -0.8730 -0.3162
 7435TIP3    H243797   6.529   6.426  13.569  0.0446 -1.7175  0.1686
 7436TIP3   OH243798   0.430   0.456   2.183  0.4568  0.1250 -0.2828
 7436TIP3    H143799   0.455   0.449   2.091  1.1608  2.1921 -0.3003
 7436TIP3    H243800   0.513   0.444   2.231 -0.0369 -1.7974  0.1672
 7437TIP3   OH243801   1.482   4.143  16.338  0.1065 -0.5653 -0.2363
 7437TIP3    H143802   1.508   4.101  16.419 -2.7302 -0.1383  1.0321
 7437TIP3    H243803   1.510   4.083  16.269  2.3218 -1.0826  1.0254
 7438TIP3   OH243804   4.750   1.321   2.125  0.3112  0.1920 -0.2085
 7438TIP3    H143805   4.791   1.286   2.046  1.2691  0.3322  0.2115
 7438TIP3    H243806   4.823   1.344   2.182 -0.3568  0.2982  0.6344
 7439TIP3   OH243807   2.731   3.650   4.812 -0.2509  0.1511 -0.4602
 7439TIP3    H143808   2.692   3.636   4.725  0.5718 -1.9694 -0.5676
 7439TIP3    H243809   2.825   3.636   4.798 -0.1373 -0.5118  0.7931
 7440TIP3   OH243810   2.883   1.654  12.463  0.2899  0.6592 -0.3477
 7440TIP3    H143811   2.940   1.597  12.411 -0.0530  0.7691 -0.8515
 7440TIP3    H243812   2.907   1.634  12.554 -0.9351 -1.5106 -0.4178
 7441TIP3   OH243813   2.145   0.890   4.707  0.3650 -0.4136  0.7799
 7441TIP3    H143814   2.173   0.946   4.635  1.8239 -0.8154  1.0060
 7441TIP3    H243815   2.204   0.815   4.704  0.3494 -0.5257  2.2657
 7442TIP3   OH243816   5.297   2.124  16.822 -0.1458  0.4522 -0.5121
 7442TIP3    H143817   5.334   2.036  16.835 -0.9488  0.2370  0.5635
 7442TIP3    H243818   5.369   2.183  16.841  0.4373  0.0336 -1.3564
 7443TIP3   OH243819   0.286   6.120   0.080  0.4574 -0.0665  0.3871
 7443TIP3    H143820   0.326   6.053   0.135 -1.1204 -0.8646  0.6319
 7443TIP3    H243821   0.292   6.085  -0.009 -1.9690 -1.4951  0.6839
 7444TIP3   OH243822   1.158   5.502   0.750 -0.2122 -0.3694 -0.0575
 7444TIP3    H143823   1.240   5.460   0.776 -0.0689 -0.0188  0.0580
 7444TIP3    H243824   1.135   5.459   0.667  0.6377  0.2594 -0.6342
 7445TIP3   OH243825   4.316   5.347   0.232  0.5056 -0.3371  0.2488
 7445TIP3    H143826   4.358   5.430   0.257 -0.0460  0.1712 -0.4573
 7445TIP3    H243827   4.382   5.281   0.249  0.1316 -0.0945  3.2203
 7446TIP3   OH243828   0.546   4.677   1.463  0.4996  0.6721 -0.7172
 7446TIP3    H143829   0.519   4.626   1.386 -1.3187 -0.8399  0.8449
 7446TIP3    H243830   0.628   4.635   1.491  0.2953  0.1668 -0.8634
 7447TIP3   OH243831   1.648   1.692   5.806 -0.2251  0.6866 -0.0934
 7447TIP3    H143832   1.573   1.723   5.857 -0.3793 -0.1696  0.2274
 7447TIP3    H243833   1.648   1.597   5.819  0.6387  0.6223 -0.4728
 7448TIP3   OH243834   2.821   0.769   3.208 -0.2489  0.0232  0.2036
 7448TIP3    H143835   2.869   0.711   3.148 -0.1807  2.4645 -2.3387
 7448TIP3    H243836   2.889   0.809   3.262  0.6454  2.5334 -2.5406
 7449TIP3   OH243837   5.860   1.350  16.572  0.6071  0.1354 -0.7229
 7449TIP3    H143838   5.810   1.352  16.490 -0.6576 -0.4708 -0.0034
 7449TIP3    H243839   5.857   1.259  16.600 -0.3112  0.5798  0.7580
 7450TIP3   OH243840   5.412   1.430  14.894 -0.2080 -0.1023 -0.0838
 7450TIP3    H143841   5.448   1.453  14.980 -1.1511 -1.5231  0.7198
 7450TIP3    H243842   5.469   1.360  14.862 -0.1811  0.0542 -0.3782
 7451TIP3   OH243843   3.223   0.814  11.333  0.0253 -0.1228  0.1677
 7451TIP3    H143844   3.255   0.888  11.384 -0.7292  0.5809 -0.3632
 7451TIP3    H243845   3.280   0.810  11.257  0.3091 -0.3349  0.3892
 7452TIP3   OH243846   3.077   0.311  15.306 -0.0483 -0.3538 -0.0467
 7452TIP3    H143847   3.132   0.385  15.332 -0.8964  0.4469 -0.4811
 7452TIP3    H243848   3.130   0.262  15.245  0.4176  0.0633  0.0163
 7453TIP3   OH243849   4.874   4.425   1.021 -0.3427  1.1326 -0.0062
 7453TIP3    H143850   4.875   4.498   0.959 -0.9426  0.1733 -1.1982
 7453TIP3    H243851   4.884   4.347   0.965 -0.4627  0.2620  1.1589
 7454TIP3   OH243852   5.096   0.376   4.472  0.9572  0.0745 -0.2191
 7454TIP3    H143853   5.172   0.318   4.474  1.3365  0.5263 -0.9582
 7454TIP3    H243854   5.043   0.349   4.547  0.5587 -1.9492 -1.1912
 7455TIP3   OH243855   5.391   3.391  12.698  0.0114  0.1561  0.5491
 7455TIP3    H143856   5.467   3.396  12.756  1.2350 -0.2445 -0.9669
 7455TIP3    H243857   5.425   3.410  12.611 -2.0008  2.1036  0.0777
 7456TIP3   OH243858   1.953   1.810   1.575 -0.3630  0.4386  0.4556
 7456TIP3    H143859   1.985   1.886   1.526 -0.1361 -0.5637 -0.9996
 7456TIP3    H243860   1.880   1.777   1.523  0.0054 -0.7823  0.6772
 7457TIP3   OH243861   3.037   6.369  13.882 -0.2066  0.0544 -0.1830
 7457TIP3    H143862   2.983   6.448  13.886 -1.1906 -0.5953 -0.2406
 7457TIP3    H243863   3.109   6.386  13.943 -0.8260  0.6890  0.3892
 7458TIP3   OH243864   1.225   5.465  16.854 -0.3262 -0.0620  0.0709
 7458TIP3    H143865   1.175   5.406  16.910 -0.9715 -0.6390 -1.0733
 7458TIP3    H243866   1.309   5.475  16.898  0.2205 -2.6980 -0.2000
 7459TIP3   OH243867   4.230   0.621   0.091 -0.7410 -0.1884 -0.3300
 7459TIP3    H143868   4.179   0.677   0.033  0.2205 -0.2778 -1.3163
 7459TIP3    H243869   4.262   0.680   0.159 -2.7803 -0.2885  0.7785
 7460TIP3   OH243870   0.303   5.752  16.792  0.3141  0.3561  0.3148
 7460TIP3    H143871   0.392   5.783  16.775 -0.0385 -0.0413 -2.9967
 7460TIP3    H243872   0.250   5.797  16.726 -1.8326 -0.0783  1.6600
 7461TIP3   OH243873   1.604   1.965   6.223  0.2798 -0.2040 -0.3948
 7461TIP3    H143874   1.695   1.960   6.194  0.5462 -2.9140  0.5682
 7461TIP3    H243875   1.606   2.013   6.305  0.8415 -0.1683 -0.4283
 7462TIP3   OH243876   4.174   6.587   0.283 -0.2226 -0.0081  0.1921
 7462TIP3    H143877   4.093   6.581   0.334 -1.5228  3.4875 -1.1531
 7462TIP3    H243878   4.170   6.674   0.243  2.9417 -0.7822 -2.1388
 7463TIP3   OH243879   5.994   5.179   3.843  0.5870  0.2543  0.7420
 7463TIP3    H143880   5.926   5.112   3.838  0.5969  0.2359  0.8422
 7463TIP3    H243881   5.959   5.253   3.793  0.2514  0.4535  1.2517
 7464TIP3   OH243882   6.671   6.405   4.254  0.1466  0.1927 -0.3240
 7464TIP3    H143883   6.693   6.315   4.228  1.0177  1.0195 -2.6919
 7464TIP3    H243884   6.586   6.422   4.215  0.8463  0.9938 -1.5756
 7465TIP3   OH243885   3.298   1.538  16.528 -0.2720  0.8005 -0.3903
 7465TIP3    H143886   3.207   1.530  16.498 -0.6396 -0.1328  0.9210
 7465TIP3    H243887   3.337   1.453  16.509 -0.5877  0.0760  1.9034
 7466TIP3   OH243888   4.655   0.472  15.766  0.3923  0.1421  0.6456
 7466TIP3    H143889   4.627   0.486  15.675 -0.5677 -0.4399  0.8401
 7466TIP3    H243890   4.719   0.401  15.760 -0.7965 -0.9583  0.5736
 7467TIP3   OH243891   2.602   2.142  16.607 -0.0565 -0.4409  0.5125
 7467TIP3    H143892   2.524   2.145  16.662 -1.4834  2.1755 -1.4364
 7467TIP3    H243893   2.662   2.206  16.648 -0.7079  0.7357 -0.3049
 7468TIP3   OH243894   4.212   1.990   1.064  0.2414  0.4517  0.3129
 7468TIP3    H143895   4.186   2.075   1.101  0.8037  0.6000  0.3780
 7468TIP3    H243896   4.169   1.925   1.119 -1.5864  0.6948 -0.7443
 7469TIP3   OH243897   4.880   3.818  11.101  0.7249  0.8187 -0.3584
 7469TIP3    H143898   4.803   3.763  11.094  1.5877 -0.2661 -1.8555
 7469TIP3    H243899   4.940   3.769  11.157  0.8944  0.9692 -0.4056
 7470TIP3   OH243900   3.594   4.776   0.870 -0.4397 -0.0519 -0.0004
 7470TIP3    H143901   3.683   4.788   0.903 -0.5945  1.1093  0.0389
 7470TIP3    H243902   3.606   4.745   0.780  0.0122  0.1406 -0.0097
 7471TIP3   OH243903   5.092   2.969   2.286  0.7181  0.4661  0.0256
 7471TIP3    H143904   5.125   3.058   2.302 -2.0533  1.4988  0.5706
 7471TIP3    H243905   5.067   2.970   2.193 -0.7742  0.8423  0.4025
 7472TIP3   OH243906   5.036   3.344  17.030  0.1447  0.3578 -0.4746
 7472TIP3    H143907   4.995   3.294  17.101  1.8738  0.1169  0.4299
 7472TIP3    H243908   4.992   3.429  17.032  0.6002  0.6000  1.3797
 7473TIP3   OH243909   1.976   0.111   3.672 -0.6019 -0.3959 -0.1128
 7473TIP3    H143910   1.942   0.108   3.761  0.8821  0.2039  0.5197
 7473TIP3    H243911   2.064   0.072   3.679  0.4783  1.7555 -0.8006
 7474TIP3   OH243912   3.928   1.686  13.974  0.0832 -0.6408  0.6917
 7474TIP3    H143913   3.879   1.692  13.892 -0.2919 -0.2487  0.9369
 7474TIP3    H243914   3.967   1.599  13.974  0.3182 -0.5361 -0.0339
 7475TIP3   OH243915   5.765   1.124  12.517  0.0835  0.0067 -0.1726
 7475TIP3    H143916   5.788   1.193  12.579 -1.7027  0.6609 -0.1872
 7475TIP3    H243917   5.740   1.049  12.572  1.4730 -0.4803 -0.1567
 7476TIP3   OH243918   1.399   0.566  11.267 -0.1662 -0.1389 -0.4607
 7476TIP3    H143919   1.434   0.607  11.188  0.2715  1.7975  0.6744
 7476TIP3    H243920   1.475   0.552  11.323 -0.3743 -2.1520 -0.5943
 7477TIP3   OH243921   5.174   0.742   2.473 -0.6824 -0.5792 -0.5774
 7477TIP3    H143922   5.269   0.736   2.471 -0.7513 -1.7088 -0.9407
 7477TIP3    H243923   5.155   0.825   2.429  0.2067  0.9067  1.6708
 7478TIP3   OH243924   4.964   6.343   3.483  0.6360  0.1670  0.1253
 7478TIP3    H143925   5.057   6.327   3.468  0.9109  0.2818  1.5833
 7478TIP3    H243926   4.934   6.267   3.533 -0.3537 -0.4424 -1.3283
 7479TIP3   OH243927   1.604   1.798  15.056  0.3534  0.1347  0.4632
 7479TIP3    H143928   1.679   1.778  15.000  0.0024  0.7411 -0.2342
 7479TIP3    H243929   1.530   1.805  14.996 -0.3129 -0.6659  1.1690
 7480TIP3   OH243930   1.012   6.764   4.235  0.2253 -0.4703  0.3412
 7480TIP3    H143931   1.070   6.724   4.299 -0.2690 -1.4793  0.1773
 7480TIP3    H243932   0.934   6.789   4.284  0.4490  0.1121  0.4046
 7481TIP3   OH243933   4.872   3.835  12.277 -0.1610  0.0389  0.9072
 7481TIP3    H143934   4.950   3.812  12.227  1.0710  1.0389  2.2970
 7481TIP3    H243935   4.857   3.760  12.335 -0.3835 -0.2578  0.4662
 7482TIP3   OH243936   2.402   2.414  17.111  0.0628  0.0198  0.1207
 7482TIP3    H143937   2.434   2.483  17.169 -0.3521  0.2897  0.0303
 7482TIP3    H243938   2.472   2.349  17.112  0.2252  0.1921  0.6262
 7483TIP3   OH243939   3.984   6.338  16.092 -0.2333 -0.0298  0.5985
 7483TIP3    H143940   3.983   6.413  16.151  0.5140  0.6281 -0.2030
 7483TIP3    H243941   3.963   6.263  16.148  1.9233  0.3507  2.0367
 7484TIP3   OH243942   3.192   2.328  12.031  0.0252  0.9788  0.0811
 7484TIP3    H143943   3.122   2.387  12.004 -0.7293 -0.1400 -0.4878
 7484TIP3    H243944   3.231   2.297  11.950 -1.3390 -1.3287  0.2308
 7485TIP3   OH243945   2.329   0.581   5.337  0.7002 -0.4969  0.4002
 7485TIP3    H143946   2.384   0.646   5.381  2.8600  1.0532 -3.9385
 7485TIP3    H243947   2.391   0.523   5.293 -1.2295 -2.8773  0.5854
 7486TIP3   OH243948   1.098   1.999  14.877 -0.4756 -0.2837 -0.4559
 7486TIP3    H143949   1.157   2.002  14.801  0.8159  0.1382  0.5232
 7486TIP3    H243950   1.012   2.019  14.841  0.2031  0.5094 -1.7252
 7487TIP3   OH243951   5.103   5.840  12.784  0.5032 -0.3417  0.6242
 7487TIP3    H143952   5.019   5.802  12.809  0.1020 -0.3796 -0.6836
 7487TIP3    H243953   5.162   5.818  12.856 -0.4897 -0.7305  1.3381
 7488TIP3   OH243954   2.445   2.263  11.346 -0.4092 -0.1002  0.2969
 7488TIP3    H143955   2.537   2.245  11.323 -1.2865 -3.3883 -1.3922
 7488TIP3    H243956   2.413   2.320  11.276  0.0174 -0.0563  0.1360
 7489TIP3   OH243957   6.026   6.194   4.250 -0.6286  0.2550 -0.5913
 7489TIP3    H143958   6.013   6.155   4.164  1.7819  0.2691 -1.0140
 7489TIP3    H243959   6.003   6.286   4.239  0.4536  0.4325 -1.4489
 7490TIP3   OH243960   5.558   4.920  12.739 -0.4082  0.2587 -0.4005
 7490TIP3    H143961   5.566   5.001  12.790 -0.9156 -0.4329  0.8370
 7490TIP3    H243962   5.534   4.853  12.804 -0.1164 -0.8653 -1.4055
 7491TIP3   OH243963   6.835   4.432  11.762  0.1963  0.8762 -0.7125
 7491TIP3    H143964   6.758   4.463  11.809  0.4976  0.2370  0.2287
 7491TIP3    H243965   6.878   4.512  11.731 -1.9374  1.1998 -3.1390
 7492TIP3   OH243966   5.545   2.073  15.651 -0.2908  0.6449 -0.4079
 7492TIP3    H143967   5.535   2.037  15.739 -2.2710  0.0772 -0.8003
 7492TIP3    H243968   5.466   2.043  15.605 -0.8579  3.4723 -1.4669
 7493TIP3   OH243969   2.136   5.604   4.073 -0.0279  0.2768 -0.0306
 7493TIP3    H143970   2.122   5.687   4.028 -1.1448 -0.3964 -0.9841
 7493TIP3    H243971   2.049   5.578   4.104  0.5705  0.2852  1.7770
 7494TIP3   OH243972   3.146   3.439   4.645 -0.1846 -0.5268 -0.1120
 7494TIP3    H143973   3.196   3.370   4.689 -0.8810 -1.7051 -1.1329
 7494TIP3    H243974   3.205   3.473   4.578  0.6081  0.7648  1.1757
 7495TIP3   OH243975   1.816   0.878  12.433 -0.3288 -0.2815  0.3595
 7495TIP3    H143976   1.848   0.855  12.521 -0.8150 -0.2032  0.5590
 7495TIP3    H243977   1.874   0.949  12.405  0.8766 -1.4000 -0.0741
 7496TIP3   OH243978   1.544   5.570  14.154 -0.4762 -0.1558  0.8098
 7496TIP3    H143979   1.465   5.625  14.150  0.1221  0.7868  1.6013
 7496TIP3    H243980   1.605   5.612  14.093 -0.7976 -1.2866 -0.3441
 7497TIP3   OH243981   4.572   3.923  13.991 -0.3646  0.0546  0.0984
 7497TIP3    H143982   4.603   3.836  14.017 -0.3150 -0.4339 -1.4770
 7497TIP3    H243983   4.477   3.916  13.990 -0.3424 -0.2419 -0.8035
 7498TIP3   OH243984   1.296   3.605   0.717  0.3592  0.7210 -0.6194
 7498TIP3    H143985   1.275   3.693   0.686  0.4017  0.2254 -2.0968
 7498TIP3    H243986   1.281   3.548   0.642  0.1043 -0.5837  0.3686
 7499TIP3   OH243987   1.361   1.982  15.844 -0.2283  0.2083  0.0644
 7499TIP3    H143988   1.425   2.047  15.815  0.5766 -0.4602  0.3053
 7499TIP3    H243989   1.286   1.995  15.786  0.3783  0.5731 -0.6624
 7500TIP3   OH243990   2.409   2.458  12.359  0.1289  1.0092 -0.3423
 7500TIP3    H143991   2.502   2.451  12.381 -0.2178  2.1073  1.7683
 7500TIP3    H243992   2.366   2.392  12.414 -0.5210  1.9733  0.3455
 7501TIP3   OH243993   3.455   6.577  14.324  0.5915 -0.4966 -0.5506
 7501TIP3    H143994   3.409   6.566  14.408 -1.4438 -0.0633 -1.5529
 7501TIP3    H243995   3.453   6.490  14.285  2.0549 -0.8336  0.0517
 7502TIP3   OH243996   1.559   1.340  15.680 -0.1750 -0.0180 -0.2953
 7502TIP3    H143997   1.628   1.404  15.661 -0.1160 -0.3667 -1.3127
 7502TIP3    H243998   1.583   1.263  15.629  0.3096 -1.2508  1.6849
 7503TIP3   OH243999   5.604   0.215   2.672  0.0435  0.0390  0.2987
 7503TIP3    H144000   5.516   0.220   2.709  0.1098 -1.1900  0.6651
 7503TIP3    H244001   5.593   0.238   2.580 -0.7608 -0.7063  0.2013
 7504TIP3   OH244002   6.320   3.222  13.595  0.5839 -0.3597  0.1225
 7504TIP3    H144003   6.305   3.129  13.584 -0.9235 -0.0255 -0.8793
 7504TIP3    H244004   6.353   3.252  13.510  1.1673  0.0100  0.4692
 7505TIP3   OH244005   1.039   5.594   0.235 -0.6750  0.1410 -0.1633
 7505TIP3    H144006   1.083   5.676   0.214 -0.8788  0.4733  0.6639
 7505TIP3    H244007   0.972   5.585   0.168  0.7224 -0.4519 -1.5286
 7506TIP3   OH244008   0.151   5.817   2.583  0.0611 -0.2280 -0.3952
 7506TIP3    H144009   0.187   5.856   2.503  0.0887 -2.2735 -1.4514
 7506TIP3    H244010   0.074   5.768   2.553  0.2854 -1.3341  0.7546
 7507TIP3   OH244011   5.089   2.676  16.105  0.1461  0.6701 -0.4577
 7507TIP3    H144012   5.116   2.633  16.024  0.9214  0.6364 -0.1850
 7507TIP3    H244013   5.170   2.702  16.147 -0.2689  1.1806  0.0508
 7508TIP3   OH244014   1.483   2.109  14.870  0.0395 -0.3348  0.3627
 7508TIP3    H144015   1.456   2.152  14.789 -1.7191  0.5384  1.3498
 7508TIP3    H244016   1.453   2.019  14.861 -0.1738 -0.2341  0.0499
 7509TIP3   OH244017   2.482   1.877   4.459  0.4218  0.1516 -0.0132
 7509TIP3    H144018   2.472   1.857   4.552  0.0265  1.4256  0.2438
 7509TIP3    H244019   2.563   1.833   4.434  0.9240  0.3744  1.1183
 7510TIP3   OH244020   6.790   4.052  16.529 -0.3892 -0.4658 -0.2025
 7510TIP3    H144021   6.808   3.998  16.452 -0.7964 -3.2591  1.5026
 7510TIP3    H244022   6.702   4.026  16.556 -0.6961  1.2735  0.5979
 7511TIP3   OH244023   6.702   3.757   4.829 -0.2461  0.4485 -0.3630
 7511TIP3    H144024   6.652   3.770   4.748  0.8408  1.1539 -0.9357
 7511TIP3    H244025   6.752   3.837   4.839  2.0341 -0.8425 -0.7040
 7512TIP3   OH244026   4.644   4.542   2.581 -0.0910  0.0912 -0.3625
 7512TIP3    H144027   4.654   4.451   2.608  1.5028  1.1351  3.1928
 7512TIP3    H244028   4.698   4.550   2.503  0.4850 -1.8354 -0.2183
 7513TIP3   OH244029   1.553   3.004  13.425  0.4361  0.1802 -0.1982
 7513TIP3    H144030   1.496   2.930  13.407  0.3955  0.2879 -0.5384
 7513TIP3    H244031   1.573   2.999  13.518 -0.8846  0.6773  0.1223
 7514TIP3   OH244032   6.022   6.178  11.913  0.4569 -0.2101  0.0285
 7514TIP3    H144033   5.982   6.255  11.953  2.4383  1.1455 -0.4315
 7514TIP3    H244034   6.015   6.109  11.979  2.3336  1.5371  2.1962
 7515TIP3   OH244035   5.908   0.844   1.588 -0.2094 -0.3534  0.1596
 7515TIP3    H144036   5.859   0.906   1.534  1.1548 -0.7927 -1.6759
 7515TIP3    H244037   5.879   0.758   1.558  1.7995 -0.6308 -1.1920
 7516TIP3   OH244038   5.766   3.124   1.615 -0.1409  0.0515 -0.1085
 7516TIP3    H144039   5.838   3.186   1.606 -0.3194  0.0907 -1.6648
 7516TIP3    H244040   5.699   3.156   1.554 -0.9676 -0.6676  0.3926
 7517TIP3   OH244041   2.181   3.357   2.406 -0.1573 -0.1575 -0.1215
 7517TIP3    H144042   2.224   3.352   2.320  1.7811  0.8034  0.7259
 7517TIP3    H244043   2.141   3.444   2.407 -3.7960 -1.6232 -1.5484
 7518TIP3   OH244044   0.375   3.594   1.784  0.3568  0.4873  0.5336
 7518TIP3    H144045   0.432   3.517   1.792  0.0149  0.2929  1.1381
 7518TIP3    H244046   0.288   3.557   1.766 -0.4129  0.5414  3.5796
 7519TIP3   OH244047   5.693   0.320  15.656 -0.6587 -0.0300 -0.0016
 7519TIP3    H144048   5.651   0.238  15.631 -1.0014  0.3237 -0.6166
 7519TIP3    H244049   5.781   0.314  15.619  0.0975 -1.0562  1.8567
 7520TIP3   OH244050   3.769   6.013   1.174 -0.2973  0.2396  0.3603
 7520TIP3    H144051   3.856   6.024   1.214 -1.0049  0.6025  1.8918
 7520TIP3    H244052   3.713   6.072   1.224 -1.4876 -0.1915 -0.4316
 7521TIP3   OH244053   4.763   1.151  12.379  0.1001 -0.3162  0.0588
 7521TIP3    H144054   4.821   1.219  12.412 -0.1584 -0.2866  0.4711
 7521TIP3    H244055   4.820   1.091  12.331  0.3656  0.0599 -0.1001
 7522TIP3   OH244056   2.189   6.731   2.397  0.7964  0.2531 -0.1757
 7522TIP3    H144057   2.224   6.670   2.332  2.0987 -0.8141  1.4496
 7522TIP3    H244058   2.266   6.759   2.448 -0.0677  1.6729  0.4266
 7523TIP3   OH244059   0.580   5.411  14.795 -0.3523 -0.0904 -0.3832
 7523TIP3    H144060   0.569   5.404  14.889  0.2230  2.1227 -0.0719
 7523TIP3    H244061   0.493   5.400  14.759 -1.3572  2.8282  0.7984
 7524TIP3   OH244062   0.595   4.336  16.230  0.0778 -0.3829 -0.3510
 7524TIP3    H144063   0.503   4.354  16.248 -0.7977 -2.6618 -1.9910
 7524TIP3    H244064   0.635   4.324  16.317 -1.1829  0.4596  0.3740
 7525TIP3   OH244065   6.526   2.653   3.138 -0.5481 -0.8738  0.3862
 7525TIP3    H144066   6.566   2.599   3.070 -0.7349  0.1337 -0.5536
 7525TIP3    H244067   6.435   2.623   3.141 -0.7269 -0.4470 -0.3387
 7526TIP3   OH244068   4.489   4.056  12.392  0.2367 -0.0145 -0.2203
 7526TIP3    H144069   4.541   4.072  12.314 -0.1898  0.9227 -0.3179
 7526TIP3    H244070   4.431   4.132  12.399 -1.4827 -1.2588 -0.3863
 7527TIP3   OH244071   3.685   3.835   1.348 -0.6046  0.2398 -0.0460
 7527TIP3    H144072   3.599   3.797   1.364 -1.4666  2.8890  2.4380
 7527TIP3    H244073   3.735   3.813   1.427  0.4259  0.2421 -0.6832
 7528TIP3   OH244074   5.048   6.831  13.846  0.4509 -0.3551 -0.3829
 7528TIP3    H144075   5.110   6.901  13.828  0.8928 -0.0499  2.0123
 7528TIP3    H244076   5.097   6.767  13.897 -1.5397  0.8458  3.4108
 7529TIP3   OH244077   2.634   3.493   5.395 -0.6175 -0.0474 -0.2239
 7529TIP3    H144078   2.575   3.431   5.351 -0.7109  0.7664 -1.2906
 7529TIP3    H244079   2.721   3.471   5.361 -0.8104  1.2011 -1.5898
 7530TIP3   OH244080   6.452   4.889  12.015  0.3000 -0.1723  0.6382
 7530TIP3    H144081   6.437   4.962  12.075 -0.5574 -0.6498  1.0185
 7530TIP3    H244082   6.365   4.868  11.981  0.2690 -2.1225  1.8207
 7531TIP3   OH244083   1.702   0.249  12.397 -0.2766 -0.7873 -0.8257
 7531TIP3    H144084   1.701   0.320  12.462 -1.6714 -0.4076 -1.2266
 7531TIP3    H244085   1.789   0.256  12.357 -0.0501  0.1130 -0.2317
 7532TIP3   OH244086   2.654   1.448   2.879 -0.3183  0.1022  0.7036
 7532TIP3    H144087   2.641   1.385   2.951 -1.1743 -0.5522  0.0008
 7532TIP3    H244088   2.748   1.443   2.861 -0.4475 -1.4079  0.2973
 7533TIP3   OH244089   2.504   3.729   5.458  0.1173  0.2887 -0.0551
 7533TIP3    H144090   2.534   3.638   5.463 -0.8491  0.0141  1.8510
 7533TIP3    H244091   2.532   3.759   5.371  2.8649 -0.9337  0.3040
 7534TIP3   OH244092   5.645   6.324   2.570 -0.2174 -0.0886  0.1663
 7534TIP3    H144093   5.593   6.250   2.601  1.8710 -1.7892 -0.1722
 7534TIP3    H244094   5.621   6.332   2.477 -1.0397  0.2234  0.3935
 7535TIP3   OH244095   2.256   1.650   0.037 -0.0717 -0.9501 -0.3714
 7535TIP3    H144096   2.204   1.598   0.098  0.2567 -0.0911  0.6909
 7535TIP3    H244097   2.199   1.723   0.014  0.8769  0.5092  1.5281
 7536TIP3   OH244098   1.289   5.877   0.870  0.3610 -0.7168  0.2932
 7536TIP3    H144099   1.221   5.927   0.823  1.9584  2.8386  1.4253
 7536TIP3    H244100   1.248   5.853   0.952 -0.3713 -1.0567 -0.1615
 7537TIP3   OH244101   0.227   6.110  10.649  0.0046  0.1937 -0.6681
 7537TIP3    H144102   0.306   6.114  10.702 -1.1666 -1.0721  1.3096
 7537TIP3    H244103   0.207   6.017  10.642  0.1864  0.3003 -3.5463
 7538TIP3   OH244104   1.180   0.202   1.354  0.1499  0.4051 -0.4290
 7538TIP3    H144105   1.221   0.281   1.389  3.6943 -1.8889  1.2290
 7538TIP3    H244106   1.245   0.165   1.294 -1.1971 -1.4813 -0.8412
 7539TIP3   OH244107   0.894   1.479   0.326  0.0685  0.2215  0.1278
 7539TIP3    H144108   0.825   1.412   0.318  1.3618 -1.0151 -1.3118
 7539TIP3    H244109   0.851   1.551   0.372 -2.5784  0.0107 -1.7318
 7540TIP3   OH244110   5.185   3.954  15.997  0.9396  0.0764 -0.0329
 7540TIP3    H144111   5.147   4.008  15.928 -0.1944 -1.1871 -0.4281
 7540TIP3    H244112   5.203   3.870  15.955  2.0869 -0.0828  0.7302
 7541TIP3   OH244113   5.547   0.561  11.989  0.4812 -0.4456  0.7675
 7541TIP3    H144114   5.512   0.620  11.922  1.0880  0.7089  1.4246
 7541TIP3    H244115   5.641   0.579  11.991  0.5073 -0.6101  1.7609
 7542TIP3   OH244116   5.150   6.367   4.738 -0.0510 -0.3171 -0.0694
 7542TIP3    H144117   5.077   6.310   4.710  0.5433 -1.2746  0.2836
 7542TIP3    H244118   5.175   6.333   4.824  0.8748 -0.0582 -0.2297
 7543TIP3   OH244119   5.028   5.633   6.017 -0.5041 -0.4487 -0.5442
 7543TIP3    H144120   4.968   5.703   5.989  0.3652 -0.7008 -3.3653
 7543TIP3    H244121   5.015   5.563   5.953  1.5412 -1.2076 -0.2079
 7544TIP3   OH244122   6.242   3.077   1.327 -0.1327  0.5749 -0.3157
 7544TIP3    H144123   6.296   3.145   1.287 -0.1458  0.8965  0.2078
 7544TIP3    H244124   6.195   3.122   1.397  2.4762 -0.6447  2.4132
 7545TIP3   OH244125   6.051   4.342  13.244  0.0045 -0.2320  0.2613
 7545TIP3    H144126   6.085   4.262  13.285  1.1304  0.1179  0.0538
 7545TIP3    H244127   5.989   4.311  13.178 -0.3021 -0.8814  0.8421
 7546TIP3   OH244128   1.901   6.176  13.630 -0.1705 -0.1056 -0.3984
 7546TIP3    H144129   1.992   6.148  13.630 -0.3534 -0.8167  1.0947
 7546TIP3    H244130   1.864   6.138  13.550  0.3490 -1.6106  0.0340
 7547TIP3   OH244131   1.193   0.871   2.497  0.5067  0.4557  0.5536
 7547TIP3    H144132   1.196   0.849   2.591  0.0126  1.7144  0.8733
 7547TIP3    H244133   1.155   0.958   2.494 -0.3363  0.0630 -0.9009
 7548TIP3   OH244134   2.715   2.291  15.371  0.2981  0.1430  0.0794
 7548TIP3    H144135   2.771   2.335  15.435  0.6778 -1.6085  0.9994
 7548TIP3    H244136   2.730   2.339  15.289  1.5317  1.0198  0.7857
 7549TIP3   OH244137   3.627   4.125  16.523 -0.1300 -0.3042  0.3727
 7549TIP3    H144138   3.611   4.129  16.429 -2.0059  1.8180  0.6914
 7549TIP3    H244139   3.550   4.079  16.558 -0.2362  0.3484  1.0026
 7550TIP3   OH244140   5.840   0.013  12.700  0.5044  0.7062 -0.2097
 7550TIP3    H144141   5.780   0.074  12.742  1.5520  1.3805  0.3678
 7550TIP3    H244142   5.850   0.046  12.611 -1.4698 -0.5395 -0.9576
 7551TIP3   OH244143   0.280   5.043  15.970  0.0533 -0.3606  0.6664
 7551TIP3    H144144   0.195   5.007  15.944  0.6786 -0.2233 -1.7857
 7551TIP3    H244145   0.276   5.135  15.946  1.2182 -0.5726 -0.4644
 7552TIP3   OH244146   6.586   3.914  14.219  0.8506  0.0346  0.2290
 7552TIP3    H144147   6.558   3.843  14.161 -0.2378  0.5548  0.0915
 7552TIP3    H244148   6.673   3.938  14.187  0.0218  0.7515 -1.6394
 7553TIP3   OH244149   0.391   1.438  11.301  0.6702 -0.1742 -0.0127
 7553TIP3    H144150   0.432   1.406  11.382 -0.6817 -0.4173  0.6180
 7553TIP3    H244151   0.433   1.522  11.284  0.4492  0.2584  1.4020
 7554TIP3   OH244152   5.703   4.489  13.752 -0.1468 -0.0135  0.1978
 7554TIP3    H144153   5.778   4.456  13.802  0.3594 -1.6073 -1.5070
 7554TIP3    H244154   5.733   4.572  13.716  0.3078  0.0177  0.6272
 7555TIP3   OH244155   2.070   5.857  16.098  0.4567 -0.0591 -0.0561
 7555TIP3    H144156   2.001   5.860  16.032  1.6194  1.4024 -1.2775
 7555TIP3    H244157   2.114   5.774  16.083  0.0596 -0.2076 -0.4230
 7556TIP3   OH244158   0.781   1.858   1.618  0.6812  0.0754  0.4162
 7556TIP3    H144159   0.722   1.787   1.641  0.9437  0.0501  1.0459
 7556TIP3    H244160   0.869   1.821   1.630  0.8191  0.4723  0.6683
 7557TIP3   OH244161   1.433   1.123  16.316  0.2977  0.5000  0.3871
 7557TIP3    H144162   1.503   1.121  16.251  0.8272 -1.4156  0.9296
 7557TIP3    H244163   1.477   1.105  16.399 -0.8131 -0.8891  0.7209
 7558TIP3   OH244164   5.087   6.638   4.724  0.3692 -0.0604 -0.3377
 7558TIP3    H144165   5.138   6.586   4.786  0.0802  1.5179  1.2905
 7558TIP3    H244166   5.113   6.605   4.638  1.5258 -1.6341  0.5598
 7559TIP3   OH244167   0.724   1.370  15.148 -0.3170  0.2120 -0.7805
 7559TIP3    H144168   0.695   1.457  15.120 -0.2800  0.3422 -0.4083
 7559TIP3    H244169   0.819   1.379  15.158 -0.5963  0.9131  2.0036
 7560TIP3   OH244170   1.687   2.865  16.745  0.0542  0.2475 -0.3735
 7560TIP3    H144171   1.715   2.815  16.668  0.9300 -0.5265  0.4154
 7560TIP3    H244172   1.767   2.907  16.776 -0.4125  1.0491 -0.2406
 7561TIP3   OH244173   3.084   3.032  11.930 -0.3407  0.2107  0.4986
 7561TIP3    H144174   3.008   3.090  11.926  1.4717  2.8920  2.0650
 7561TIP3    H244175   3.129   3.055  12.011  0.8714 -3.0530  0.9272
 7562TIP3   OH244176   5.538   6.380  15.784 -0.2054 -0.2841  0.4003
 7562TIP3    H144177   5.505   6.460  15.823  1.6753  0.6137  0.2859
 7562TIP3    H244178   5.633   6.387  15.791  0.0912 -1.5646 -1.4518
 7563TIP3   OH244179   1.588   2.178  10.278  0.4097 -0.2267  0.1878
 7563TIP3    H144180   1.503   2.214  10.301 -0.2256 -0.0382 -2.1525
 7563TIP3    H244181   1.645   2.254  10.267  0.5478 -0.2777  0.5399
 7564TIP3   OH244182   3.450   1.358  13.530 -0.3254 -0.4254  0.1193
 7564TIP3    H144183   3.388   1.317  13.591 -0.6678  0.6756  0.5275
 7564TIP3    H244184   3.536   1.338  13.566 -0.4271 -1.7271 -0.2974
 7565TIP3   OH244185   2.337   0.966  13.043  0.1466 -0.5678  0.6440
 7565TIP3    H144186   2.408   1.020  13.078  0.5386  1.3404 -2.7368
 7565TIP3    H244187   2.381   0.889  13.007  0.3180 -0.1568 -0.0281
 7566TIP3   OH244188   6.831   5.846   2.043 -0.6236 -0.2972 -0.0833
 7566TIP3    H144189   6.847   5.819   1.953  0.6220 -1.3141  0.4239
 7566TIP3    H244190   6.888   5.922   2.056 -0.6076 -0.3121 -0.0669
 7567TIP3   OH244191   5.335   3.031   4.296  0.0267 -0.0674  0.5782
 7567TIP3    H144192   5.315   3.004   4.207 -1.8974  3.2099 -0.1469
 7567TIP3    H244193   5.413   3.085   4.289 -1.4509  2.1689  0.3675
 7568TIP3   OH244194   1.810   4.350  15.318 -0.6847 -0.3596  0.1376
 7568TIP3    H144195   1.860   4.277  15.280 -0.0300 -0.3978  1.0525
 7568TIP3    H244196   1.756   4.309  15.385 -1.1998 -0.1686 -0.1585
 7569TIP3   OH244197   5.303   3.157  11.259  0.4197 -0.1142 -0.1062
 7569TIP3    H144198   5.305   3.150  11.354  1.6114 -0.1302 -0.1177
 7569TIP3    H244199   5.366   3.092  11.228 -2.5607 -2.7819 -1.1243
 7570TIP3   OH244200   1.921   5.931  11.491  0.2511  0.5571  0.2284
 7570TIP3    H144201   1.989   5.933  11.424  0.7115 -3.1956  0.3318
 7570TIP3    H244202   1.839   5.946  11.443  0.8178  0.9961 -0.6158
 7571TIP3   OH244203   6.725   0.331   6.666  0.1990 -0.0703 -0.0676
 7571TIP3    H144204   6.767   0.271   6.605 -0.2183 -0.2796 -0.1515
 7571TIP3    H244205   6.633   0.330   6.642 -0.0410 -0.4555  0.8180
 7572TIP3   OH244206   0.180   4.638   6.227  0.0112 -0.0535  0.2935
 7572TIP3    H144207   0.271   4.658   6.208 -0.0681 -0.1264 -0.1874
 7572TIP3    H244208   0.150   4.711   6.281  0.0277  0.5860 -0.5342
 7573TIP3   OH244209   5.603   1.599   2.945 -0.3188 -0.3863  0.0715
 7573TIP3    H144210   5.630   1.576   3.034 -0.7067  2.4048  1.0198
 7573TIP3    H244211   5.663   1.669   2.919 -0.6861 -0.6387 -1.5888
 7574TIP3   OH244212   6.027   6.661  16.132 -0.1082  0.0849  0.3799
 7574TIP3    H144213   6.055   6.604  16.060 -0.3353 -0.8805  1.0503
 7574TIP3    H244214   6.109   6.696  16.167  0.0071  0.5524 -0.3192
 7575TIP3   OH244215   5.067   5.563   4.968  0.4056  0.0566 -0.0663
 7575TIP3    H144216   5.031   5.576   4.881  1.6016  0.8999 -0.4574
 7575TIP3    H244217   5.016   5.491   5.005 -0.8670  0.4434 -1.0206
 7576TIP3   OH244218   3.761   0.325  13.824  0.0267  0.2337 -0.2080
 7576TIP3    H144219   3.772   0.415  13.856  1.2946  0.3810 -0.9386
 7576TIP3    H244220   3.799   0.328  13.736 -0.3230 -0.9224 -0.4048
 7577TIP3   OH244221   1.715   6.382  16.446 -0.2568  0.5661  0.4065
 7577TIP3    H144222   1.770   6.428  16.384 -0.0874 -3.1771 -2.5887
 7577TIP3    H244223   1.626   6.394  16.414 -0.2254 -0.9162 -0.3191
 7578TIP3   OH244224   0.678   0.537   1.237 -0.0396 -0.4737 -0.0289
 7578TIP3    H144225   0.771   0.522   1.250 -0.3244 -1.4165  1.1385
 7578TIP3    H244226   0.669   0.632   1.227  1.2189 -0.5081 -1.9003
 7579TIP3   OH244227   1.932   2.241   0.183 -0.0742 -0.3792 -0.0450
 7579TIP3    H144228   1.936   2.256   0.089 -0.1004  0.3420  0.0647
 7579TIP3    H244229   1.853   2.188   0.196  0.0928 -0.7322 -0.4562
 7580TIP3   OH244230   2.608   5.935  14.759  0.5640 -0.1246 -0.0866
 7580TIP3    H144231   2.623   5.872  14.688 -1.1014 -1.1905  0.4714
 7580TIP3    H244232   2.648   5.894  14.836  2.0502  0.8685 -0.2937
 7581TIP3   OH244233   2.295   3.073  11.815 -0.5019 -0.0744  0.0690
 7581TIP3    H144234   2.341   3.063  11.732  0.3036  0.2493  0.4592
 7581TIP3    H244235   2.261   3.163  11.814  0.5460  0.3435  0.5795
 7582TIP3   OH244236   4.828   4.025  13.900 -0.2942  0.9026 -0.8468
 7582TIP3    H144237   4.738   4.006  13.928  0.2386 -0.2463  0.1574
 7582TIP3    H244238   4.869   3.939  13.889  0.6484  1.4088 -1.4546
 7583TIP3   OH244239   3.585   5.587  13.161 -0.0636  0.5224 -0.4767
 7583TIP3    H144240   3.654   5.537  13.206 -0.1676  1.3439  0.6525
 7583TIP3    H244241   3.506   5.568  13.211 -0.1641  1.5348 -0.2225
 7584TIP3   OH244242   4.355   3.852   3.041  0.2793 -0.0464 -0.0846
 7584TIP3    H144243   4.338   3.770   3.087 -3.5693 -0.5279 -1.9230
 7584TIP3    H244244   4.286   3.911   3.071  0.3931  1.0692 -1.8604
 7585TIP3   OH244245   1.788   1.210   4.200 -0.5347 -0.0814  0.0830
 7585TIP3    H144246   1.761   1.251   4.282 -0.0852 -1.4229  0.9501
 7585TIP3    H244247   1.867   1.160   4.223  0.3489  0.5352 -1.4688
 7586TIP3   OH244248   6.306   0.289  12.279  0.4793  0.7979 -0.5624
 7586TIP3    H144249   6.387   0.337  12.266  1.0711 -0.1119 -0.2828
 7586TIP3    H244250   6.293   0.290  12.374  0.3542  0.6395 -0.5775
 7587TIP3   OH244251   5.283   4.972  11.245  0.1513  0.4182  0.3070
 7587TIP3    H144252   5.331   4.996  11.165  1.5104 -0.9481  0.6550
 7587TIP3    H244253   5.206   5.028  11.244  1.0696  1.7586 -1.0040
 7588TIP3   OH244254   3.004   4.017  17.015 -0.0674  0.7137 -0.1629
 7588TIP3    H144255   3.094   4.004  17.045  0.9684 -0.0962 -3.2811
 7588TIP3    H244256   3.006   4.102  16.971 -1.9066  2.5790  3.0044
 7589TIP3   OH244257   0.342   6.328  14.025  0.1685  0.4918 -0.0786
 7589TIP3    H144258   0.380   6.250  14.067 -3.8364 -1.5686  0.2048
 7589TIP3    H244259   0.293   6.294  13.951 -1.4243  2.7747 -0.1877
 7590TIP3   OH244260   0.162   6.371   4.433  0.4004  0.0429  0.4195
 7590TIP3    H144261   0.112   6.289   4.431  0.6110 -0.0869 -1.2054
 7590TIP3    H244262   0.244   6.348   4.478  1.1536 -1.1119 -1.4314
 7591TIP3   OH244263   4.267   1.160  12.042  0.0847  0.4089 -0.5684
 7591TIP3    H144264   4.347   1.114  12.069  0.8488  0.9046 -1.8804
 7591TIP3    H244265   4.257   1.138  11.950 -3.2720 -2.4605  0.2591
 7592TIP3   OH244266   0.319   4.476  11.134  0.3396 -0.6844  0.5703
 7592TIP3    H144267   0.300   4.451  11.044 -0.0534 -3.1917  1.2847
 7592TIP3    H244268   0.414   4.491  11.135  0.4647 -1.3898 -0.0939
 7593TIP3   OH244269   2.606   5.223   0.356  0.3997  0.0699 -0.3439
 7593TIP3    H144270   2.696   5.254   0.357  0.5104 -0.1915 -1.2921
 7593TIP3    H244271   2.604   5.157   0.286 -0.0564 -1.3668  0.9798
 7594TIP3   OH244272   4.823   3.478  14.239  0.4594 -0.2384  0.1003
 7594TIP3    H144273   4.817   3.394  14.195  0.1980 -0.5340  0.6879
 7594TIP3    H244274   4.914   3.505  14.229  0.6859 -0.8720  0.4210
 7595TIP3   OH244275   3.140   5.332  14.160 -0.0410  0.3088 -0.0065
 7595TIP3    H144276   3.088   5.370  14.231  0.4561  0.9329  0.0279
 7595TIP3    H244277   3.220   5.384  14.158  1.8177 -2.1797  1.6492
 7596TIP3   OH244278   5.050   5.898   2.578  0.4419 -0.1031 -0.7507
 7596TIP3    H144279   4.957   5.914   2.595  0.6052 -0.1791  0.3163
 7596TIP3    H244280   5.053   5.814   2.533 -0.1921  1.2204 -3.4888
 7597TIP3   OH244281   2.857   5.312   3.845  0.0088  0.1366 -0.7276
 7597TIP3    H144282   2.804   5.359   3.782  0.3529  0.2336 -0.9492
 7597TIP3    H244283   2.801   5.302   3.922 -0.1589  0.6740 -0.7775
 7598TIP3   OH244284   5.885   2.319  12.102 -0.5841  0.0914  0.1122
 7598TIP3    H144285   5.915   2.244  12.052 -2.0084 -0.0489 -0.5739
 7598TIP3    H244286   5.898   2.394  12.044 -1.1235  0.0934 -0.0042
 7599TIP3   OH244287   3.412   1.740   4.960 -0.1107  0.1173 -0.1487
 7599TIP3    H144288   3.391   1.671   5.023  0.2161  0.9276  0.8783
 7599TIP3    H244289   3.486   1.705   4.910 -0.4548 -0.5879 -0.1756
 7600TIP3   OH244290   5.391   4.050   6.318  0.5314  0.1716 -0.2474
 7600TIP3    H144291   5.298   4.073   6.311  0.2809 -1.0792 -1.2745
 7600TIP3    H244292   5.436   4.123   6.275 -0.0719  0.0848 -1.0456
 7601TIP3   OH244293   4.734   5.932   1.390  0.2020 -0.0916  0.2879
 7601TIP3    H144294   4.715   5.950   1.298  1.5469  0.3444  0.0726
 7601TIP3    H244295   4.802   5.996   1.413  1.2728 -1.4459  1.0257
 7602TIP3   OH244296   5.397   1.326   2.918 -0.0438  0.4253 -0.0125
 7602TIP3    H144297   5.380   1.408   2.871 -1.0651 -0.1336 -0.6576
 7602TIP3    H244298   5.401   1.352   3.010 -1.1670  1.0996 -0.1330
 7603TIP3   OH244299   3.042   6.112   0.990  0.5394 -0.0339 -0.4775
 7603TIP3    H144300   2.950   6.138   0.995  0.5168  0.0011 -0.9991
 7603TIP3    H244301   3.062   6.114   0.896  1.7101  2.1937 -0.2590
 7604TIP3   OH244302   4.793   2.780  14.767 -0.2566 -0.4099 -0.5535
 7604TIP3    H144303   4.713   2.818  14.802 -0.9532 -2.1192 -0.1848
 7604TIP3    H244304   4.786   2.686  14.787  2.6243 -0.4114  1.0552
 7605TIP3   OH244305   6.616   0.736  15.609  0.1450  0.3763 -0.3369
 7605TIP3    H144306   6.634   0.806  15.672  3.1211  1.4320 -2.1051
 7605TIP3    H244307   6.689   0.674  15.621 -1.2864 -1.3595 -0.2541
 7606TIP3   OH244308   6.379   2.029  15.072  0.1110  0.6101 -0.6065
 7606TIP3    H144309   6.423   1.948  15.045  0.3602  0.4451  0.2874
 7606TIP3    H244310   6.358   2.073  14.989  0.4258 -0.1243 -1.0854
 7607TIP3   OH244311   3.103   4.629  13.683 -0.3841 -0.5159 -0.4815
 7607TIP3    H144312   3.087   4.674  13.766 -2.0593 -1.2847 -0.3535
 7607TIP3    H244313   3.170   4.683  13.639 -1.0452  1.0987  0.4088
 7608TIP3   OH244314   6.319   5.738  16.753 -0.6470  0.1286 -0.3237
 7608TIP3    H144315   6.320   5.642  16.756  0.5844  0.1437  1.4247
 7608TIP3    H244316   6.387   5.761  16.690 -0.8780 -0.1378 -0.6740
 7609TIP3   OH244317   0.720   0.059  16.791  0.1699 -0.8668  0.1308
 7609TIP3    H144318   0.650  -0.006  16.794 -1.1951  0.2821 -2.8503
 7609TIP3    H244319   0.677   0.142  16.809  0.0618  0.1772 -3.8773
 7610TIP3   OH244320   1.447   4.950   2.324 -0.2657 -0.0197 -0.1536
 7610TIP3    H144321   1.363   4.990   2.344 -0.0246 -0.1973  1.3621
 7610TIP3    H244322   1.441   4.925   2.232 -1.9032 -0.1263 -0.0505
 7611TIP3   OH244323   6.431   0.634  12.607  0.6283  0.4453 -0.9966
 7611TIP3    H144324   6.393   0.676  12.684  0.1571 -0.4523 -0.7232
 7611TIP3    H244325   6.511   0.593  12.640  0.0018 -0.6468 -0.7734
 7612TIP3   OH244326   3.911   0.903  12.331  0.7148  0.2059  0.6289
 7612TIP3    H144327   3.925   0.838  12.263  0.6427  1.1488 -0.3093
 7612TIP3    H244328   3.816   0.918  12.331  0.9209  1.8656 -0.6879
 7613TIP3   OH244329   5.346   5.098   4.231  0.3182  0.6642 -0.8191
 7613TIP3    H144330   5.414   5.114   4.296  1.5950 -0.0084 -1.9497
 7613TIP3    H244331   5.305   5.184   4.219 -0.2265  0.7345  1.1221
 7614TIP3   OH244332   5.442   3.977  16.704 -0.3717 -0.2955 -0.4120
 7614TIP3    H144333   5.352   3.966  16.674 -1.2450  2.2466  0.8779
 7614TIP3    H244334   5.444   3.933  16.789 -1.0368  1.1707  0.4180
 7615TIP3   OH244335   6.755   5.028   1.846 -0.8184 -0.1981 -0.7167
 7615TIP3    H144336   6.755   4.933   1.832  1.4921 -0.0566 -2.1146
 7615TIP3    H244337   6.845   5.048   1.872 -1.7280  1.4076  1.5741
 7616TIP3   OH244338   4.929   2.654   5.761  0.0686 -0.2676  0.5308
 7616TIP3    H144339   4.837   2.680   5.764 -0.0581 -0.7672  1.2360
 7616TIP3    H244340   4.962   2.671   5.849  0.1661 -1.7746  0.8152
 7617TIP3   OH244341   5.828   0.443   2.389  0.3403 -0.3671  0.3629
 7617TIP3    H144342   5.893   0.374   2.402  1.3818  0.2347 -1.3216
 7617TIP3    H244343   5.861   0.517   2.438 -0.5337 -0.8612  1.7735
 7618TIP3   OH244344   4.740   0.191  11.266  0.1502 -0.0553  0.5824
 7618TIP3    H144345   4.705   0.264  11.317 -0.3035  0.0068  0.1858
 7618TIP3    H244346   4.702   0.202  11.179  1.0473 -0.0706  0.1837
 7619TIP3   OH244347   6.359   1.555   4.171 -0.3851  0.0388  0.5198
 7619TIP3    H144348   6.342   1.474   4.121 -0.5095  0.3210  0.0976
 7619TIP3    H244349   6.322   1.538   4.257 -0.6040 -0.2772  0.3676
 7620TIP3   OH244350   2.377   2.812  13.801  0.3493  0.2221  0.8089
 7620TIP3    H144351   2.348   2.883  13.743  0.7250  0.3449  0.7731
 7620TIP3    H244352   2.317   2.740  13.781 -0.1883  0.5999  1.0095
 7621TIP3   OH244353   3.246   6.650   3.482 -0.1748  0.0002  0.1116
 7621TIP3    H144354   3.155   6.675   3.499  0.1860  1.1444  0.4740
 7621TIP3    H244355   3.277   6.614   3.565  0.0125  0.6194  0.3164
 7622TIP3   OH244356   1.053   0.489   0.528 -0.8414 -0.0126  0.0243
 7622TIP3    H144357   1.104   0.528   0.457  0.4393  0.1162  0.9719
 7622TIP3    H244358   0.974   0.542   0.533 -0.1535  1.0485 -0.1774
 7623TIP3   OH244359   0.603   4.887  10.377 -0.5034  0.4591  0.3200
 7623TIP3    H144360   0.571   4.819  10.437  0.4544 -1.0157 -0.7579
 7623TIP3    H244361   0.588   4.851  10.290 -0.5165  1.9138 -0.2941
 7624TIP3   OH244362   1.928   3.081   5.780 -0.1391 -0.2163 -0.2473
 7624TIP3    H144363   1.899   3.040   5.698 -1.3557  0.9366 -0.4350
 7624TIP3    H244364   1.985   3.153   5.751 -0.3975  0.0596 -0.0696
 7625TIP3   OH244365   5.579   0.287  12.032  0.4711  0.2360  0.5273
 7625TIP3    H144366   5.549   0.375  12.008 -0.7699  0.2444  1.9399
 7625TIP3    H244367   5.640   0.262  11.962 -1.5160  0.9499 -1.5886
 7626TIP3   OH244368   1.073   3.308  10.327  0.5119  0.0866  0.7764
 7626TIP3    H144369   1.161   3.275  10.348  1.8466  1.9838 -1.2799
 7626TIP3    H244370   1.086   3.358  10.246 -2.3230  1.1731  0.8983
 7627TIP3   OH244371   6.691   0.600   6.334 -0.1076 -0.6879 -0.0793
 7627TIP3    H144372   6.694   0.634   6.244 -2.3175 -0.6829 -0.2274
 7627TIP3    H244373   6.701   0.677   6.389 -0.6052 -0.4144 -0.3604
 7628TIP3   OH244374   6.456   5.594  13.007 -0.1753 -0.3097  0.1204
 7628TIP3    H144375   6.524   5.651  12.969  1.5211 -1.5169  1.1825
 7628TIP3    H244376   6.403   5.567  12.932  0.7432  0.3791 -0.8157
 7629TIP3   OH244377   2.371   0.845   0.403  0.1766 -0.6876  0.3233
 7629TIP3    H144378   2.348   0.879   0.489 -0.8149 -0.1803 -0.1231
 7629TIP3    H244379   2.448   0.791   0.418 -0.2593 -0.9847  1.6075
 7630TIP3   OH244380   2.658   5.258   0.715 -0.4204 -0.3798 -0.2969
 7630TIP3    H144381   2.590   5.318   0.686 -0.6294 -0.7736 -0.6307
 7630TIP3    H244382   2.678   5.204   0.638 -0.9494 -1.4009  0.2677
 7631TIP3   OH244383   3.468   3.296  11.218 -0.2795  0.1919  0.9526
 7631TIP3    H144384   3.505   3.365  11.164 -2.5754  0.3419 -0.5961
 7631TIP3    H244385   3.427   3.236  11.156  3.1120 -3.7160  2.0342
 7632TIP3   OH244386   5.906   2.299  13.390 -0.4247 -0.0889  0.2569
 7632TIP3    H144387   5.955   2.264  13.464  0.1876  0.0924 -0.0484
 7632TIP3    H244388   5.867   2.223  13.347  0.9832 -0.4338 -0.4704
 7633TIP3   OH244389   2.296   3.072  13.362  0.3735  0.2839 -0.4584
 7633TIP3    H144390   2.266   3.135  13.296 -0.5676  0.6896  0.3226
 7633TIP3    H244391   2.251   2.991  13.341 -1.1930  0.8332  0.5782
 7634TIP3   OH244392   4.143   5.249  16.671 -0.2087  0.1391 -1.1599
 7634TIP3    H144393   4.147   5.173  16.729  0.5658  1.2538  0.3027
 7634TIP3    H244394   4.097   5.316  16.721  2.8152  2.0393 -0.6591
 7635TIP3   OH244395   2.113   0.279  15.788  0.3832  0.4742  0.2163
 7635TIP3    H144396   2.063   0.197  15.789  2.5367 -0.9301  1.2696
 7635TIP3    H244397   2.061   0.339  15.842 -1.1085 -0.2701 -0.3440
 7636TIP3   OH244398   3.962   0.130  10.399 -0.2494 -0.0815  0.0173
 7636TIP3    H144399   3.896   0.107  10.465  0.6963 -0.4855  0.8596
 7636TIP3    H244400   3.974   0.050  10.349  0.7977 -0.5376  0.9533
 7637TIP3   OH244401   3.478   4.527  13.978  0.3210 -0.5073  0.3774
 7637TIP3    H144402   3.402   4.584  13.971 -0.1105 -1.2513 -1.9146
 7637TIP3    H244403   3.441   4.439  13.985  0.8775 -1.0222 -2.2622
 7638TIP3   OH244404   0.070   5.034   4.183 -0.3687  0.0699  0.1556
 7638TIP3    H144405   0.022   5.106   4.141 -0.3185  0.2737  0.4459
 7638TIP3    H244406   0.005   4.964   4.192 -0.4542  0.1282  0.0022
 7639TIP3   OH244407   0.635   2.276  13.786  0.3084  0.2948 -0.3039
 7639TIP3    H144408   0.729   2.291  13.778  0.5265 -0.3831  0.7463
 7639TIP3    H244409   0.627   2.181  13.794 -0.2683  0.4788  1.7270
 7640TIP3   OH244410   5.955   0.748  11.157 -0.3956 -0.2003  0.0047
 7640TIP3    H144411   6.000   0.663  11.156  0.6602  0.3440 -0.8341
 7640TIP3    H244412   5.922   0.756  11.246  0.8065 -0.8321  0.5361
 7641TIP3   OH244413   0.583   5.957  13.861  0.1115  0.2438  0.3038
 7641TIP3    H144414   0.568   6.052  13.860 -1.8634 -0.0268  1.1615
 7641TIP3    H244415   0.549   5.927  13.777 -0.7326  0.1047  0.6903
 7642TIP3   OH244416   4.277   1.664  14.418  0.3576  0.1505  0.0711
 7642TIP3    H144417   4.268   1.609  14.496  1.5901  0.6451  0.5973
 7642TIP3    H244418   4.271   1.603  14.345  0.0312 -0.4428  0.5839
 7643TIP3   OH244419   2.989   4.660  16.071 -0.4983  0.3729  0.5175
 7643TIP3    H144420   2.991   4.643  15.977 -0.1091 -2.3008  0.9430
 7643TIP3    H244421   2.915   4.609  16.103 -0.5913  1.2060  1.7034
 7644TIP3   OH244422   6.408   2.924  16.306 -0.0926 -0.4237 -0.5813
 7644TIP3    H144423   6.451   2.993  16.256  1.3891  0.7094  2.0773
 7644TIP3    H244424   6.471   2.852  16.307  0.0682 -0.2799 -0.0193
 7645TIP3   OH244425   3.421   0.560  10.835 -0.2374 -0.8172 -0.3271
 7645TIP3    H144426   3.467   0.616  10.896 -0.0833 -0.0474 -1.1253
 7645TIP3    H244427   3.439   0.598  10.749 -0.1380 -2.0792 -0.8952
 7646TIP3   OH244428   0.478   3.788  15.315 -0.2751 -0.3254  0.1066
 7646TIP3    H144429   0.399   3.747  15.350 -0.1056 -0.7947 -0.0514
 7646TIP3    H244430   0.544   3.774  15.383 -0.3296  0.0686  0.2392
 7647TIP3   OH244431   2.335   4.565  12.488 -0.4750 -0.3636 -0.1367
 7647TIP3    H144432   2.366   4.581  12.577 -0.3325 -0.9431 -0.0782
 7647TIP3    H244433   2.339   4.651  12.446  3.5447 -0.7047 -0.8610
 7648TIP3   OH244434   6.600   0.876   3.210  0.1458 -0.0520 -0.4995
 7648TIP3    H144435   6.514   0.915   3.193 -0.2657 -0.5414  0.3781
 7648TIP3    H244436   6.659   0.950   3.218 -0.2379  0.3020 -0.8958
 7649TIP3   OH244437   3.822   5.207   3.116  0.9083  0.2787  0.4645
 7649TIP3    H144438   3.911   5.239   3.101  1.6467 -1.5333  0.7816
 7649TIP3    H244439   3.830   5.147   3.190 -0.9172  1.4031  1.6684
 7650TIP3   OH244440   6.182   1.675   0.974  0.2523  0.0695  0.4686
 7650TIP3    H144441   6.239   1.612   0.930  0.5049  0.9740 -0.5314
 7650TIP3    H244442   6.162   1.634   1.059  0.2524 -1.4230 -0.2257
 7651TIP3   OH244443   4.103   3.413   4.238 -0.3090  0.3614 -0.0424
 7651TIP3    H144444   4.074   3.448   4.153  0.1289  1.0496  0.0820
 7651TIP3    H244445   4.104   3.318   4.225  0.4350  0.4773 -1.0500
 7652TIP3   OH244446   2.059   0.666  14.118 -0.0025  0.8522  0.3005
 7652TIP3    H144447   2.046   0.744  14.172 -0.5006 -0.0579  1.5592
 7652TIP3    H244448   1.971   0.628  14.109  0.2432  0.3921 -0.2162
 7653TIP3   OH244449   2.448   3.629  13.077 -0.4632 -0.1078  0.7365
 7653TIP3    H144450   2.459   3.577  13.156  1.2862  0.5487  0.9801
 7653TIP3    H244451   2.476   3.717  13.101 -1.0063  0.3844 -0.3175
 7654TIP3   OH244452   2.063   3.864   2.984  0.4749 -0.9239  0.1122
 7654TIP3    H144453   1.975   3.852   3.020 -0.4991 -0.5936 -1.9973
 7654TIP3    H244454   2.103   3.778   2.989  0.5498 -0.8293  2.2339
 7655TIP3   OH244455   3.945   0.443   3.595 -0.2094  0.1934  0.3411
 7655TIP3    H144456   3.875   0.385   3.567  0.1598  0.1782 -0.5840
 7655TIP3    H244457   4.008   0.442   3.522 -0.4805  2.2313  0.0185
 7656TIP3   OH244458   6.050   3.481  11.803  0.3431 -0.1677 -0.6476
 7656TIP3    H144459   6.134   3.498  11.761  0.4235 -0.3626 -0.5684
 7656TIP3    H244460   6.064   3.504  11.895  0.7320 -1.5025 -0.3411
 7657TIP3   OH244461   1.339   5.940  11.476 -0.3783 -0.1910 -0.0135
 7657TIP3    H144462   1.353   6.034  11.488 -1.7869 -0.0505  0.7272
 7657TIP3    H244463   1.427   5.904  11.468  0.2152  1.0975  0.3787
 7658TIP3   OH244464   1.452   6.076   4.266  0.5074  0.1158  0.2941
 7658TIP3    H144465   1.518   6.014   4.296  0.6603 -0.0115 -0.3015
 7658TIP3    H244466   1.495   6.124   4.194 -0.7849 -1.5367 -1.6860
 7659TIP3   OH244467   4.712   2.491  14.765 -0.7506  0.5054 -0.2496
 7659TIP3    H144468   4.672   2.440  14.835 -1.2072 -0.4693 -1.1884
 7659TIP3    H244469   4.731   2.427  14.697  2.6977  0.8457  0.2209
 7660TIP3   OH244470   1.064   4.007   5.092  0.3200 -0.5812  0.2571
 7660TIP3    H144471   1.139   4.059   5.061 -1.6246  1.1864 -1.8618
 7660TIP3    H244472   1.072   4.007   5.187  1.7168  1.6276  0.2127
 7661TIP3   OH244473   1.023   4.896   0.073 -0.1166 -0.1717 -0.1370
 7661TIP3    H144474   0.984   4.972   0.030  0.3868  0.6778  0.8566
 7661TIP3    H244475   0.983   4.821   0.030  0.5709  0.6169 -2.2697
 7662TIP3   OH244476   2.540   0.602   2.596 -0.2282  0.1601 -0.7175
 7662TIP3    H144477   2.539   0.643   2.510  0.5923 -0.0911 -0.8493
 7662TIP3    H244478   2.619   0.548   2.597 -0.6687 -0.4931 -0.1129
 7663TIP3   OH244479   2.232   4.464   1.170 -0.1790 -0.4243 -0.6326
 7663TIP3    H144480   2.204   4.530   1.233 -0.4610  0.2860 -1.4871
 7663TIP3    H244481   2.196   4.382   1.204 -0.8425  0.0415 -0.1856
 7664TIP3   OH244482   1.417   0.861  16.408 -0.0941 -0.0275  0.0203
 7664TIP3    H144483   1.390   0.777  16.444  1.0394 -0.3113  0.2339
 7664TIP3    H244484   1.345   0.921  16.430 -0.8243 -0.8889  0.0235
 7665TIP3   OH244485   5.672   5.041   4.321 -0.5295  0.1188 -0.1131
 7665TIP3    H144486   5.747   5.028   4.380 -0.7792  0.3284  0.2515
 7665TIP3    H244487   5.650   5.134   4.331  0.3009  0.4959 -1.5791
 7666TIP3   OH244488   5.803   5.621   2.039  0.2156 -0.4630  0.3675
 7666TIP3    H144489   5.794   5.700   1.987  0.7399 -0.3266  0.4789
 7666TIP3    H244490   5.738   5.561   2.003 -1.8173  0.7848  1.7661
 7667TIP3   OH244491   5.901   6.687   0.938  0.0637  0.3906 -0.5154
 7667TIP3    H144492   5.918   6.622   0.869  0.4020 -1.0665  0.8653
 7667TIP3    H244493   5.889   6.634   1.017 -2.4929  1.8758  0.1805
 7668TIP3   OH244494   4.241   4.036  12.787 -0.1910 -0.0334 -0.0419
 7668TIP3    H144495   4.319   4.020  12.735 -0.1284  0.2053 -0.0240
 7668TIP3    H244496   4.242   4.131  12.803 -1.1062  0.1597 -1.0214
 7669TIP3   OH244497   5.437   3.939  14.360 -0.1778 -0.2686 -0.4467
 7669TIP3    H144498   5.371   3.943  14.291 -0.3177 -1.5120 -0.4027
 7669TIP3    H244499   5.468   4.029  14.368 -1.1216  0.1427 -1.1886
 7670TIP3   OH244500   4.552   5.348   5.796  0.0230 -0.0853  0.2638
 7670TIP3    H144501   4.504   5.426   5.825 -0.7552  0.5900 -2.5702
 7670TIP3    H244502   4.644   5.369   5.814 -0.3585  0.4245  1.7935
 7671TIP3   OH244503   1.295   3.157  16.609 -0.3264  0.1302 -0.4075
 7671TIP3    H144504   1.308   3.144  16.703  1.4789  0.9489 -0.4927
 7671TIP3    H244505   1.312   3.071  16.570 -2.4457 -0.5643  0.0758
 7672TIP3   OH244506   6.545   3.324  13.098  0.1093 -0.0546  0.1413
 7672TIP3    H144507   6.510   3.299  13.013  1.8491  0.0453 -0.6445
 7672TIP3    H244508   6.556   3.419  13.092  1.2796 -0.1811  0.0400
 7673TIP3   OH244509   3.050   2.647   0.674  0.1145 -0.2226  0.2524
 7673TIP3    H144510   2.988   2.575   0.662  0.3969 -0.4487  0.1244
 7673TIP3    H244511   3.101   2.622   0.751  2.0015 -1.4908 -1.3135
 7674TIP3   OH244512   2.797   4.826   6.488  0.2391  0.4326  0.4937
 7674TIP3    H144513   2.861   4.871   6.543 -0.6573  2.3052  0.0931
 7674TIP3    H244514   2.712   4.858   6.518 -0.3798 -0.1323 -0.5756
 7675TIP3   OH244515   2.623   1.024   1.649  0.4993 -0.8820  0.5798
 7675TIP3    H144516   2.700   1.028   1.706  0.3875  0.0691  0.6754
 7675TIP3    H244517   2.636   1.094   1.586  0.0364 -1.1594  0.1717
 7676TIP3   OH244518   5.794   4.245   3.559 -0.1379  0.1508  0.2656
 7676TIP3    H144519   5.730   4.181   3.591 -2.2552  1.1880 -1.5674
 7676TIP3    H244520   5.845   4.197   3.493  0.4330 -0.4447  1.1128
 7677TIP3   OH244521   0.414   4.540   5.137 -0.1429 -0.7297  0.3551
 7677TIP3    H144522   0.325   4.569   5.158 -0.1028 -0.1197 -0.2786
 7677TIP3    H244523   0.424   4.456   5.182 -1.0807 -0.8549  0.3386
 7678TIP3   OH244524   4.124   6.735  13.400  0.2842 -0.5994  0.0130
 7678TIP3    H144525   4.110   6.825  13.429  0.1974 -0.6083 -0.0022
 7678TIP3    H244526   4.113   6.738  13.305 -0.1787 -0.7149  0.0631
 7679TIP3   OH244527   5.255   6.721   1.670  0.1265  0.0498 -0.1084
 7679TIP3    H144528   5.244   6.649   1.608  1.3170  0.9537 -1.4245
 7679TIP3    H244529   5.165   6.744   1.695 -0.3778 -0.5539 -1.2489
 7680TIP3   OH244530   4.141   0.233  11.894  0.2442  0.2880 -0.4078
 7680TIP3    H144531   4.137   0.138  11.903 -0.6112  0.1311 -2.1023
 7680TIP3    H244532   4.097   0.251  11.811 -0.3810  2.2445  0.3024
 7681TIP3   OH244533   6.656   5.048   2.296  0.1413  0.2258 -0.6027
 7681TIP3    H144534   6.567   5.014   2.284 -0.1528  0.5283  0.6198
 7681TIP3    H244535   6.712   4.970   2.291 -0.0259  0.1631 -2.6026
 7682TIP3   OH244536   5.814   5.231  15.851 -0.0187  0.9610 -0.4377
 7682TIP3    H144537   5.876   5.304  15.862 -0.2607  1.2927 -1.1998
 7682TIP3    H244538   5.736   5.272  15.814  0.3937  0.0948 -2.3922
 7683TIP3   OH244539   2.044   6.168   0.137 -0.5936  0.7335 -0.1944
 7683TIP3    H144540   2.078   6.142   0.051  1.9809  0.0771  0.9455
 7683TIP3    H244541   2.008   6.087   0.173  1.9208  0.0336  0.8914
 7684TIP3   OH244542   0.058   2.973   3.980  0.5191  0.2093  0.0819
 7684TIP3    H144543   0.008   3.048   3.949  1.1413  0.6709  0.1701
 7684TIP3    H244544   0.148   3.005   3.986  0.7822 -0.5276  0.1808
 7685TIP3   OH244545   0.579   4.132   4.987 -0.3450 -0.7121  0.0453
 7685TIP3    H144546   0.651   4.072   5.005  0.6544  0.1976 -0.7842
 7685TIP3    H244547   0.622   4.214   4.961 -1.6250 -0.7770 -2.6367
 7686TIP3   OH244548   4.605   0.364  12.813  0.0888  0.2552  0.5412
 7686TIP3    H144549   4.686   0.326  12.781  0.5128  1.3289  0.3250
 7686TIP3    H244550   4.565   0.404  12.736  0.6056  1.9333  1.1074
 7687TIP3   OH244551   4.433   1.317  15.945  0.3487 -0.5507 -0.1141
 7687TIP3    H144552   4.388   1.400  15.964 -1.2733 -0.5264 -3.3080
 7687TIP3    H244553   4.516   1.343  15.905  0.8261 -0.5506  0.8364
 7688TIP3   OH244554   2.389   1.946   3.403 -0.0911 -0.1680 -0.1020
 7688TIP3    H144555   2.323   2.005   3.364  0.0141  0.7624  1.0826
 7688TIP3    H244556   2.470   1.996   3.398  0.2377 -0.7173 -0.2021
 7689TIP3   OH244557   1.955   3.395   3.946 -0.1499 -0.4693  0.2117
 7689TIP3    H144558   2.012   3.330   3.905 -0.1183  0.5760 -1.4860
 7689TIP3    H244559   2.004   3.425   4.022 -0.5258 -3.0039  1.5841
 7690TIP3   OH244560   2.649   3.681  15.655 -0.0137  0.5040 -0.7074
 7690TIP3    H144561   2.613   3.696  15.567 -1.2116 -0.1084 -0.3326
 7690TIP3    H244562   2.737   3.647  15.638  0.6588  2.5187 -1.6306
 7691TIP3   OH244563   6.410   2.440  15.274  0.1683  0.6162 -0.0523
 7691TIP3    H144564   6.436   2.526  15.307 -0.3689  0.8748 -0.3037
 7691TIP3    H244565   6.324   2.453  15.236  0.0952 -0.0296 -0.1239
 7692TIP3   OH244566   0.564   0.270   2.973 -0.4048 -0.4802  0.4303
 7692TIP3    H144567   0.575   0.275   3.068 -0.2518 -0.8762  0.4359
 7692TIP3    H244568   0.647   0.237   2.940 -0.0774  0.6983  0.0438
 7693TIP3   OH244569   2.544   3.387   6.429 -0.2081  0.0374 -0.5366
 7693TIP3    H144570   2.465   3.357   6.474  0.0315 -1.4461 -1.0477
 7693TIP3    H244571   2.611   3.392   6.498 -0.5506  0.5584 -0.2386
 7694TIP3   OH244572   3.050   1.316  16.499  0.2307 -0.3597  0.1342
 7694TIP3    H144573   3.057   1.399  16.452 -1.3960 -0.6881 -0.7483
 7694TIP3    H244574   2.969   1.324  16.550  0.0949 -1.3706  0.0986
 7695TIP3   OH244575   1.374   5.364  15.052  1.0789  0.0631 -0.3036
 7695TIP3    H144576   1.429   5.440  15.036 -0.4495  1.0666 -1.0407
 7695TIP3    H244577   1.329   5.348  14.969  0.4095 -0.8460  0.2108
 7696TIP3   OH244578   6.188   6.492   0.709 -0.3765 -0.0082  0.1269
 7696TIP3    H144579   6.276   6.528   0.721 -0.1458 -1.2415  3.1337
 7696TIP3    H244580   6.160   6.468   0.797 -2.7143 -2.0064 -1.0364
 7697TIP3   OH244581   4.620   5.859   3.642  0.2583  0.4033 -0.0513
 7697TIP3    H144582   4.626   5.931   3.580  0.7355  1.0431  0.7275
 7697TIP3    H244583   4.710   5.827   3.651  0.2679  0.6185  0.6608
 7698TIP3   OH244584   1.030   0.974  16.232  0.5467  0.5039  0.2526
 7698TIP3    H144585   1.064   1.063  16.233  0.4893  0.5295 -0.2776
 7698TIP3    H244586   1.054   0.939  16.318  1.0417  0.8457  0.2554
 7699TIP3   OH244587   5.505   2.039   4.794  0.5324 -0.2923 -0.1896
 7699TIP3    H144588   5.512   1.948   4.823  3.2299  0.6880  2.9148
 7699TIP3    H244589   5.590   2.056   4.753 -0.1472  0.7093 -1.2093
 7700TIP3   OH244590   5.833   0.647   4.185 -0.1444 -0.6526 -0.9959
 7700TIP3    H144591   5.843   0.557   4.154  0.2638 -1.3598  1.0730
 7700TIP3    H244592   5.750   0.648   4.232 -0.5192  0.2698 -1.6394
 7701TIP3   OH244593   4.983   1.454  16.426  0.0356 -0.2400 -0.0501
 7701TIP3    H144594   4.952   1.370  16.391  0.2064 -0.3988  0.1731
 7701TIP3    H244595   4.910   1.484  16.481 -1.1953  1.1239 -2.2737
 7702TIP3   OH244596   1.648   4.543   4.428 -0.2040  0.2100 -0.0032
 7702TIP3    H144597   1.618   4.490   4.354  1.3940  0.2421 -0.7277
 7702TIP3    H244598   1.573   4.598   4.451 -0.6680  0.4012 -1.7943
 7703TIP3   OH244599   2.614   6.755  12.961 -0.3917  0.1991 -0.6595
 7703TIP3    H144600   2.671   6.720  12.893 -0.6599  0.0224 -0.7986
 7703TIP3    H244601   2.603   6.682  13.022 -1.4890 -0.2007 -1.2939
 7704TIP3   OH244602   1.923   0.382   4.986 -0.0992 -0.1966  0.7479
 7704TIP3    H144603   1.945   0.408   5.075 -0.5163  0.7388  0.5869
 7704TIP3    H244604   1.828   0.393   4.980 -0.2610 -1.4964  0.5730
 7705TIP3   OH244605   3.333   4.454   5.420  0.6318 -0.0984  0.1983
 7705TIP3    H144606   3.329   4.550   5.414 -0.3893 -0.0353  1.4246
 7705TIP3    H244607   3.244   4.428   5.444  1.2472 -1.2141  1.3953
 7706TIP3   OH244608   1.767   5.432   5.249  0.1834  0.6940  0.4095
 7706TIP3    H144609   1.683   5.455   5.207  0.3240  0.1482 -0.1838
 7706TIP3    H244610   1.745   5.359   5.307  0.0492  1.2498  1.0721
 7707TIP3   OH244611   5.811   4.817  14.836  0.6896  0.0202 -0.1518
 7707TIP3    H144612   5.862   4.739  14.857  0.8884  0.3368  0.5760
 7707TIP3    H244613   5.868   4.868  14.778  1.5246  0.7029  1.2094
 7708TIP3   OH244614   4.271   6.078   4.152 -0.2214 -0.1649  0.1689
 7708TIP3    H144615   4.181   6.046   4.143  0.1732 -1.2648  0.0998
 7708TIP3    H244616   4.269   6.132   4.231 -0.9390 -0.1949  0.1769
 7709TIP3   OH244617   1.231   0.343   3.656  0.2597 -0.6880 -0.1755
 7709TIP3    H144618   1.164   0.329   3.724 -0.0750 -1.6838 -0.6862
 7709TIP3    H244619   1.245   0.437   3.655 -0.3623 -0.5720  0.6845
 7710TIP3   OH244620   0.395   0.466  14.254  0.4057 -0.3066  0.2552
 7710TIP3    H144621   0.474   0.422  14.220  1.2202  1.5444 -0.3968
 7710TIP3    H244622   0.425   0.509  14.334  0.1317  0.5954 -0.1211
 7711TIP3   OH244623   2.091   6.109  13.007 -0.3059  0.2927 -0.1709
 7711TIP3    H144624   2.061   6.038  13.063  1.0163  0.6474  1.0549
 7711TIP3    H244625   2.051   6.188  13.044 -1.5464  0.2399 -1.3575
 7712TIP3   OH244626   6.045   0.470  12.126 -0.2849 -0.2080  0.3135
 7712TIP3    H144627   6.136   0.497  12.113 -0.2943 -0.1076  0.4613
 7712TIP3    H244628   6.043   0.433  12.214 -0.1483 -1.2052 -0.0944
 7713TIP3   OH244629   1.059   6.572   0.351  0.1483  0.2029  0.2929
 7713TIP3    H144630   0.993   6.617   0.404  0.2716  0.0157  0.6093
 7713TIP3    H244631   1.019   6.487   0.330  0.9283 -0.6165  1.9138
 7714TIP3   OH244632   0.176   4.672  11.268  0.3985  0.3915 -0.4616
 7714TIP3    H144633   0.219   4.596  11.228  0.3581  0.7425 -1.1986
 7714TIP3    H244634   0.140   4.720  11.194  0.0248  0.8876  0.0368
 7715TIP3   OH244635   4.148   3.150   4.107 -0.0793 -0.5653 -0.1794
 7715TIP3    H144636   4.071   3.152   4.049 -0.6625  0.3606  0.6005
 7715TIP3    H244637   4.171   3.057   4.112  0.0223 -0.6642 -1.9298
 7716TIP3   OH244638   6.310   5.780   1.333  0.0740 -0.2540  0.2156
 7716TIP3    H144639   6.345   5.698   1.299  0.8109  0.2023 -0.1383
 7716TIP3    H244640   6.370   5.806   1.403 -1.0337 -0.8147  1.4136
 7717TIP3   OH244641   5.591   5.606   5.728 -0.0391  0.3920  0.3337
 7717TIP3    H144642   5.657   5.634   5.791 -0.1320 -1.8244  1.4997
 7717TIP3    H244643   5.629   5.627   5.643  1.5848  0.3839  1.0126
 7718TIP3   OH244644   0.380   2.331  13.029  0.6725 -0.9913 -0.1617
 7718TIP3    H144645   0.451   2.280  12.991 -0.1496 -1.9440 -0.4773
 7718TIP3    H244646   0.409   2.350  13.118  1.3009 -1.3974 -0.2709
 7719TIP3   OH244647   1.010   6.490  17.161 -0.2310  0.1526 -0.4569
 7719TIP3    H144648   1.098   6.524  17.178 -0.1678 -0.2147 -0.0367
 7719TIP3    H244649   0.998   6.422  17.227 -0.5096 -0.3661 -1.0337
 7720TIP3   OH244650   1.186   4.582  15.710  0.1614  0.3348 -0.0781
 7720TIP3    H144651   1.161   4.539  15.792  1.9372  0.8554  0.7918
 7720TIP3    H244652   1.273   4.547  15.690  0.2542  1.0985 -1.1120
 7721TIP3   OH244653   0.914   1.513   1.157  0.2602  0.4219  0.2511
 7721TIP3    H144654   0.966   1.490   1.079 -0.6749  0.7024 -0.4766
 7721TIP3    H244655   0.829   1.473   1.140 -0.2584  1.3354  0.6789
 7722TIP3   OH244656   2.350   4.004  13.865 -0.1630 -0.1020  0.0719
 7722TIP3    H144657   2.376   3.927  13.815 -0.7709 -0.3940  0.1980
 7722TIP3    H244658   2.431   4.053  13.879 -0.1777  0.9662 -2.8309
 7723TIP3   OH244659   0.543   1.929   4.256  0.3907  0.0729 -0.1983
 7723TIP3    H144660   0.536   1.845   4.211  2.4336 -2.2075  3.3399
 7723TIP3    H244661   0.459   1.940   4.301  0.7820 -1.1119  0.8650
 7724TIP3   OH244662   0.122   2.132   1.509  0.4659 -0.4787  0.3877
 7724TIP3    H144663   0.055   2.200   1.515  0.6373 -0.3235  0.5454
 7724TIP3    H244664   0.100   2.083   1.430  0.8275  0.2705 -0.1772
 7725TIP3   OH244665   0.448   5.065  14.147 -0.5036  0.2310  0.3222
 7725TIP3    H144666   0.457   4.974  14.122 -1.6858 -0.3030  1.6809
 7725TIP3    H244667   0.355   5.085  14.133 -0.4347  0.9679  0.8242
 7726TIP3   OH244668   1.961   5.348  13.557  0.3984  0.1729  0.3575
 7726TIP3    H144669   1.951   5.361  13.462 -0.1666 -1.6312  0.1282
 7726TIP3    H244670   2.026   5.278  13.564  3.2596  2.7713  1.4637
 7727TIP3   OH244671   5.742   2.844   0.896 -0.2508  0.1549  0.4379
 7727TIP3    H144672   5.770   2.791   0.821  0.7276  2.1844 -0.7025
 7727TIP3    H244673   5.736   2.781   0.968 -1.4818 -1.9206 -1.3439
 7728TIP3   OH244674   2.657   5.340  11.338 -0.0007 -0.2626  0.0943
 7728TIP3    H144675   2.609   5.349  11.421  2.2067 -0.9751  1.5252
 7728TIP3    H244676   2.710   5.420  11.332  1.5761 -1.2258  0.5952
 7729TIP3   OH244677   0.825   3.412  12.187 -0.1897  0.3753 -0.1287
 7729TIP3    H144678   0.864   3.395  12.102  0.9316 -3.1205  0.9162
 7729TIP3    H244679   0.889   3.468  12.232  0.1626  0.6072 -0.9109
 7730TIP3   OH244680   4.948   1.639   4.976 -0.2477 -0.1279  0.1588
 7730TIP3    H144681   4.950   1.685   4.893 -0.7540  0.7175  0.6112
 7730TIP3    H244682   4.874   1.579   4.969  1.2771 -2.0261 -1.0020
 7731TIP3   OH244683   6.162   0.581   0.431  0.4946 -0.0307 -0.1095
 7731TIP3    H144684   6.194   0.572   0.521 -1.4905 -1.4600  0.5179
 7731TIP3    H244685   6.139   0.492   0.405  0.3776  0.4647 -1.7900
 7732TIP3   OH244686   0.194   1.711  11.725 -0.8625  0.7449  0.0962
 7732TIP3    H144687   0.227   1.748  11.644 -0.9665  0.6001 -0.0123
 7732TIP3    H244688   0.099   1.720  11.719 -0.8201  1.9514  0.7814
 7733TIP3   OH244689   1.153   6.416   1.949  0.3767  0.1290 -0.1203
 7733TIP3    H144690   1.092   6.346   1.927  0.1710 -0.5658  2.3380
 7733TIP3    H244691   1.098   6.489   1.979  0.6788  0.3685 -0.1371
 7734TIP3   OH244692   5.502   3.977  14.870 -0.6760  0.0561  0.1718
 7734TIP3    H144693   5.460   3.980  14.784  0.1474 -0.1403 -0.2481
 7734TIP3    H244694   5.589   4.014  14.855 -0.3284 -0.4954  0.8008
 7735TIP3   OH244695   6.449   0.187   4.978  0.0517  0.0506  0.0825
 7735TIP3    H144696   6.460   0.194   5.073 -0.0034  0.8030  0.0359
 7735TIP3    H244697   6.530   0.145   4.948  1.1250  1.9570  0.1972
 7736TIP3   OH244698   6.008   6.027   5.517  0.5705  0.3540  0.0308
 7736TIP3    H144699   6.033   6.091   5.582  1.0211  0.5470 -0.3267
 7736TIP3    H244700   5.968   6.078   5.447  1.5760  0.3419 -0.5781
 7737TIP3   OH244701   6.596   6.233  11.544 -0.1661  0.0262 -0.6693
 7737TIP3    H144702   6.612   6.240  11.450  4.4291 -2.1249 -0.3299
 7737TIP3    H244703   6.526   6.167  11.552  0.7840 -1.3084 -2.6057
 7738TIP3   OH244704   4.697   6.754   1.497 -0.2510  0.1666 -0.3530
 7738TIP3    H144705   4.747   6.697   1.439 -1.5273 -0.4300 -0.9128
 7738TIP3    H244706   4.763   6.807   1.542  0.9416 -1.3623 -0.2239
 7739TIP3   OH244707   6.281   0.889   5.214  0.3297  0.5927  0.3424
 7739TIP3    H144708   6.371   0.874   5.241  1.1513  1.1867 -1.8161
 7739TIP3    H244709   6.229   0.878   5.294  2.4501  1.7698  1.9946
 7740TIP3   OH244710   1.616   4.243  13.547  0.1142  0.0790 -0.5480
 7740TIP3    H144711   1.605   4.182  13.474 -0.4235 -0.4317 -0.0573
 7740TIP3    H244712   1.636   4.327  13.506  0.6021 -0.3635 -1.2501
 7741TIP3   OH244713   1.601   4.521  14.504 -0.3588 -0.7225 -0.3792
 7741TIP3    H144714   1.575   4.608  14.475 -2.9399  0.4453  4.4324
 7741TIP3    H244715   1.623   4.474  14.423 -2.2925  3.2378 -3.5313
 7742TIP3   OH244716   3.855   0.904   2.240  0.2372 -0.2512  0.0657
 7742TIP3    H144717   3.847   0.998   2.254 -1.0880 -0.3612  0.2290
 7742TIP3    H244718   3.850   0.866   2.327 -0.7356 -0.5347 -0.0940
 7743TIP3   OH244719   1.374   4.325  14.706  0.2918  0.6639 -0.5372
 7743TIP3    H144720   1.432   4.381  14.756 -0.0936  1.5706 -1.0850
 7743TIP3    H244721   1.331   4.384  14.643  1.2383 -0.5005 -2.3709
 7744TIP3   OH244722   5.386   0.005  11.959 -0.3949 -0.3989  0.3502
 7744TIP3    H144723   5.315  -0.001  11.895  1.2962  1.7175 -1.9216
 7744TIP3    H244724   5.346   0.045  12.036 -1.4179  2.3340 -1.4690
 7745TIP3   OH244725   1.166   2.652  11.313  0.1566  0.4081 -0.3475
 7745TIP3    H144726   1.176   2.558  11.299  1.1419  0.3285  0.7940
 7745TIP3    H244727   1.255   2.683  11.329 -0.3067  1.3398  0.4459
 7746TIP3   OH244728   1.860   3.780  14.821 -0.2111 -0.1110  0.0153
 7746TIP3    H144729   1.797   3.818  14.882 -2.2077 -1.7547 -0.8999
 7746TIP3    H244730   1.830   3.807  14.735  0.7307 -0.3990 -0.4152
 7747TIP3   OH244731   2.478   6.771   1.373  0.2468 -0.4481  0.6218
 7747TIP3    H144732   2.507   6.684   1.345  0.0521 -0.5319  0.6794
 7747TIP3    H244733   2.458   6.760   1.467  0.1871 -0.3517  0.6205
 7748TIP3   OH244734   3.613   2.717  15.905  0.0924 -0.4656 -0.0264
 7748TIP3    H144735   3.608   2.723  16.001 -0.9534  0.3485 -0.1180
 7748TIP3    H244736   3.618   2.808  15.876  0.9998 -0.7310 -0.7309
 7749TIP3   OH244737   0.714   5.743  12.996 -0.3423 -0.6339 -0.1619
 7749TIP3    H144738   0.720   5.787  12.912 -0.2155 -0.8123 -0.2477
 7749TIP3    H244739   0.629   5.698  12.994 -0.6409 -0.0900  0.0777
 7750TIP3   OH244740   1.646   0.045  16.766  0.1600  0.0148 -0.2131
 7750TIP3    H144741   1.740   0.037  16.753  0.3146  0.0102  0.8424
 7750TIP3    H244742   1.621   0.122  16.716  0.8842  0.5434  0.2261
 7751TIP3   OH244743   3.569   5.553   6.572 -0.2335 -0.3226  0.0724
 7751TIP3    H144744   3.574   5.648   6.570 -0.3705 -0.2401  1.8658
 7751TIP3    H244745   3.658   5.525   6.596  0.3252 -0.7864 -2.3141
 7752TIP3   OH244746   4.955   6.300   1.277  0.5507  0.4449 -0.1218
 7752TIP3    H144747   5.029   6.350   1.310  0.4006  1.3529 -1.1054
 7752TIP3    H244748   4.916   6.260   1.355  2.6488 -0.8939  0.3258
 7753TIP3   OH244749   6.009   6.748   5.097 -0.0640  0.0671 -0.0408
 7753TIP3    H144750   6.091   6.742   5.146 -0.0330 -1.4353 -0.2265
 7753TIP3    H244751   6.014   6.833   5.053  1.2682  0.1259  0.1690
 7754TIP3   OH244752   5.365   4.618  16.032  0.6469 -0.2725  0.4695
 7754TIP3    H144753   5.370   4.618  15.936 -0.2746  0.9014  0.4033
 7754TIP3    H244754   5.352   4.710  16.055  1.5280 -0.4438  1.7739
 7755TIP3   OH244755   1.003   1.279   0.506 -0.0186  0.0523 -0.8716
 7755TIP3    H144756   1.075   1.222   0.477  2.9999  2.7209  0.8169
 7755TIP3    H244757   0.976   1.325   0.427  1.2531  0.1295 -1.2898
 7756TIP3   OH244758   1.543   4.307   0.456  0.5519  0.4202 -0.3761
 7756TIP3    H144759   1.618   4.269   0.502  0.9570 -0.6358 -1.8358
 7756TIP3    H244760   1.472   4.246   0.473  0.0387  1.2923  0.7988
 7757TIP3   OH244761   2.518   0.308   5.071 -0.2936 -0.2900 -0.3193
 7757TIP3    H144762   2.550   0.339   5.156 -1.8097  0.1590  0.1178
 7757TIP3    H244763   2.592   0.260   5.034  0.3549 -0.6415  1.3237
 7758TIP3   OH244764   4.907   0.660   4.821  0.3516  0.0453  0.1824
 7758TIP3    H144765   4.868   0.646   4.735  0.1637 -1.2823  0.4579
 7758TIP3    H244766   4.882   0.750   4.845  0.1489  0.3132 -0.9979
 7759TIP3   OH244767   1.246   5.389   4.683 -0.2154 -0.4876 -0.0766
 7759TIP3    H144768   1.290   5.305   4.692 -1.3682 -1.0863  0.2199
 7759TIP3    H244769   1.154   5.370   4.701 -0.5369  0.7966 -0.2327
 7760TIP3   OH244770   2.936   1.008  14.452  0.0489 -0.4468 -0.4536
 7760TIP3    H144771   2.953   0.988  14.360  0.6656  1.2234 -0.7389
 7760TIP3    H244772   2.895   1.095  14.451  0.5500 -0.1679  0.8775
 7761TIP3   OH244773   2.599   2.059   4.811 -0.5763  0.1106  0.1272
 7761TIP3    H144774   2.505   2.069   4.825 -0.8914 -1.3816 -0.6593
 7761TIP3    H244775   2.624   1.981   4.861  0.1759  0.3053  0.0806
 7762TIP3   OH244776   4.916   2.459  13.022 -0.6902 -0.3262  0.3924
 7762TIP3    H144777   4.917   2.551  13.047 -0.6418 -0.0471 -0.6242
 7762TIP3    H244778   5.006   2.439  12.998 -1.3682  0.5369 -3.4765
 7763TIP3   OH244779   4.167   2.576  15.469 -0.3497  0.0418  0.5553
 7763TIP3    H144780   4.184   2.658  15.515 -0.1726 -0.0862  0.7212
 7763TIP3    H244781   4.082   2.589  15.427 -0.6639  0.0413  1.1786
 7764TIP3   OH244782   0.964   6.416  12.350 -0.0983  0.5398 -0.1571
 7764TIP3    H144783   0.982   6.506  12.379 -0.6629  0.4103  0.6334
 7764TIP3    H244784   0.922   6.374  12.425 -3.4120  0.7253 -1.6988
 7765TIP3   OH244785   2.405   4.244  15.868  0.1366 -0.2583 -0.2475
 7765TIP3    H144786   2.374   4.160  15.834  1.1632 -0.5946 -0.4195
 7765TIP3    H244787   2.368   4.309  15.809 -0.4197 -0.6190 -0.2979
 7766TIP3   OH244788   5.847   1.522   0.288  0.8179  0.3516 -0.6151
 7766TIP3    H144789   5.844   1.593   0.352 -2.5700 -0.1079 -0.0787
 7766TIP3    H244790   5.831   1.442   0.339  0.8899 -0.3719 -1.6780
 7767TIP3   OH244791   6.018   5.700   3.432  0.8229 -0.3192 -0.2374
 7767TIP3    H144792   6.048   5.641   3.502  1.4146 -0.5238 -0.6547
 7767TIP3    H244793   6.020   5.787   3.472 -1.5881 -0.6876  0.9069
 7768TIP3   OH244794   3.530   5.280   0.071 -0.6547 -0.0887  0.8908
 7768TIP3    H144795   3.500   5.353   0.125  0.5143 -0.1833  1.7014
 7768TIP3    H244796   3.534   5.315  -0.018 -3.8279 -0.2793  0.5561
 7769TIP3   OH244797   5.651   6.562   4.943  0.3164 -0.1749  0.0571
 7769TIP3    H144798   5.721   6.497   4.953  1.1017  0.6619  0.1720
 7769TIP3    H244799   5.632   6.562   4.849 -1.0406 -1.9122  0.2822
 7770TIP3   OH244800   1.580   0.218   0.654  0.1669 -0.4288 -0.2144
 7770TIP3    H144801   1.655   0.220   0.595  0.1486 -1.2582 -0.2739
 7770TIP3    H244802   1.512   0.266   0.607  0.8208  0.8442  0.0907
 7771TIP3   OH244803   5.238   4.605   1.647  0.3465  0.1943 -0.1392
 7771TIP3    H144804   5.232   4.587   1.553  0.1321 -0.5663  0.0135
 7771TIP3    H244805   5.258   4.520   1.686 -2.3998 -0.1229  0.7679
 7772TIP3   OH244806   5.307   0.978   1.604  0.2345 -0.0413 -0.4586
 7772TIP3    H144807   5.371   1.042   1.633 -1.2939  0.3655  2.4122
 7772TIP3    H244808   5.227   1.029   1.590 -0.5318 -1.0702  0.0591
 7773TIP3   OH244809   3.715   5.762   4.006  0.2512  0.6608 -0.4116
 7773TIP3    H144810   3.795   5.808   4.029 -0.3999  1.2650  0.7293
 7773TIP3    H244811   3.660   5.827   3.963 -0.6455  0.9889  1.1455
 7774TIP3   OH244812   1.186   1.996  17.019 -0.1316  0.0072 -0.3219
 7774TIP3    H144813   1.245   2.069  17.031 -1.1533  0.7410  0.3887
 7774TIP3    H244814   1.206   1.936  17.090  0.2999 -0.1215 -0.5525
 7775TIP3   OH244815   2.543   6.102  10.315 -0.0219 -0.6182 -0.2056
 7775TIP3    H144816   2.570   6.038  10.380 -0.9895 -0.7288  0.1011
 7775TIP3    H244817   2.581   6.185  10.346 -1.5817 -0.3980  1.2773
 7776TIP3   OH244818   2.172   0.637   4.407 -0.5193 -0.7023  0.3043
 7776TIP3    H144819   2.226   0.653   4.484  0.7274  0.0762 -0.7092
 7776TIP3    H244820   2.232   0.599   4.343 -0.9444  0.9589 -1.1390
 7777TIP3   OH244821   5.596   0.545  12.482  0.5206 -0.2967 -0.2537
 7777TIP3    H144822   5.634   0.582  12.562  1.7355  0.7897 -1.2946
 7777TIP3    H244823   5.564   0.621  12.434 -0.9711 -1.0097 -0.4615
 7778TIP3   OH244824   2.636   1.966  17.116 -0.3353  0.7035 -0.4158
 7778TIP3    H144825   2.652   1.984  17.209  1.3170 -1.5700 -0.1723
 7778TIP3    H244826   2.555   1.915  17.115  0.3312 -0.3916 -0.0493
 7779TIP3   OH244827   6.036   3.684  13.595 -0.1488 -0.1174 -0.2670
 7779TIP3    H144828   6.014   3.726  13.512 -0.1864 -0.7617 -0.5959
 7779TIP3    H244829   6.102   3.619  13.572 -1.9510 -2.0659 -0.2682
 7780TIP3   OH244830   3.040   0.357   1.326 -0.1251 -0.0510 -0.4299
 7780TIP3    H144831   3.072   0.447   1.321  0.0915 -0.1445 -0.7653
 7780TIP3    H244832   3.027   0.331   1.234 -1.9915  0.2770 -0.2939
 7781TIP3   OH244833   3.039   5.783   2.291  0.3909 -0.1831  0.5769
 7781TIP3    H144834   2.985   5.789   2.212 -0.3301 -0.0612  1.0690
 7781TIP3    H244835   3.039   5.690   2.314 -0.1710 -0.0922  0.9556
 7782TIP3   OH244836   5.677   0.196   3.797 -0.4433  0.2943 -0.2989
 7782TIP3    H144837   5.631   0.215   3.878  1.2243  2.1233  0.2844
 7782TIP3    H244838   5.729   0.274   3.779  0.1269 -0.5070 -2.5237
 7783TIP3   OH244839   3.202   0.536   3.035  0.0829 -0.3245 -0.1079
 7783TIP3    H144840   3.250   0.619   3.031 -0.6954  0.1897  0.6527
 7783TIP3    H244841   3.165   0.525   2.948  1.1330 -0.4677 -0.5493
 7784TIP3   OH244842   4.817   5.373   2.661  0.0721  0.3916 -0.3244
 7784TIP3    H144843   4.848   5.462   2.673 -1.4052  1.0939 -1.3901
 7784TIP3    H244844   4.725   5.376   2.685  0.1381 -0.9981  0.1950
 7785TIP3   OH244845   1.088   2.256  11.994 -0.1446  0.0123  0.0539
 7785TIP3    H144846   1.111   2.341  12.032 -2.3868 -0.3951  2.5688
 7785TIP3    H244847   1.142   2.193  12.042  0.4214 -0.1417 -0.7652
 7786TIP3   OH244848   3.455   5.225  12.912  0.7140 -0.4358  0.1950
 7786TIP3    H144849   3.434   5.314  12.885 -0.4310 -0.6016  0.4889
 7786TIP3    H244850   3.503   5.236  12.995 -1.0399 -0.1238  1.2206
 7787TIP3   OH244851   0.646   3.167   4.850  0.2337 -0.2700  0.2430
 7787TIP3    H144852   0.726   3.187   4.800  0.1711  2.1376  0.9584
 7787TIP3    H244853   0.674   3.105   4.917  1.9847  1.7955  1.5540
 7788TIP3   OH244854   5.740   0.221   0.302 -0.6036  0.0595 -0.2039
 7788TIP3    H144855   5.786   0.137   0.291 -0.8517 -0.1384  0.2106
 7788TIP3    H244856   5.647   0.197   0.304 -0.6157  0.0773  1.8924
 7789TIP3   OH244857   5.186   5.627   6.230 -0.3505 -0.0948 -0.0282
 7789TIP3    H144858   5.261   5.673   6.191 -0.4124  0.2935  0.3089
 7789TIP3    H244859   5.113   5.647   6.171 -0.3557  0.1551  0.0626
 7790TIP3   OH244860   6.572   4.955  16.817 -0.0891 -0.3375  0.1287
 7790TIP3    H144861   6.501   4.961  16.880 -0.9609  0.9778 -0.9165
 7790TIP3    H244862   6.531   4.922  16.737  0.0711  1.9371 -0.9744
 7791TIP3   OH244863   3.410   1.680  10.913  0.0044  0.2129 -0.1539
 7791TIP3    H144864   3.460   1.599  10.915 -1.8325 -0.9744 -0.3456
 7791TIP3    H244865   3.419   1.712  10.823  2.3765  1.3491  0.4235
 7792TIP3   OH244866   3.015   5.806   6.516 -0.4984 -0.0581 -0.0080
 7792TIP3    H144867   3.049   5.719   6.536  0.9461  0.1128 -1.4841
 7792TIP3    H244868   2.944   5.819   6.579 -1.7254 -2.8747 -0.6105
 7793TIP3   OH244869   0.913   2.288  10.465 -0.4019 -0.3764 -0.2282
 7793TIP3    H144870   0.855   2.255  10.397  1.6186  0.1513 -2.3761
 7793TIP3    H244871   0.998   2.247  10.445  0.2497 -0.2507  2.0589
 7794TIP3   OH244872   1.202   2.006  14.611  0.0663  0.7802 -0.0950
 7794TIP3    H144873   1.175   2.072  14.547 -1.6015 -0.5736 -0.8607
 7794TIP3    H244874   1.213   1.926  14.560 -0.5378 -0.1475  1.1850
 7795TIP3   OH244875   3.691   4.540   3.464  0.3923  0.1989 -0.0079
 7795TIP3    H144876   3.679   4.529   3.558  1.2559  0.6107  0.1548
 7795TIP3    H244877   3.643   4.620   3.443 -0.3031 -0.2161 -0.0313
 7796TIP3   OH244878   1.381   5.593   5.475  0.1903  0.0654 -0.4307
 7796TIP3    H144879   1.338   5.640   5.546  1.0458  1.5968 -0.8676
 7796TIP3    H244880   1.316   5.529   5.446 -1.2246  1.2597 -0.0641
 7797TIP3   OH244881   4.817   0.080  14.338 -0.8645  0.2308  0.5960
 7797TIP3    H144882   4.834  -0.005  14.379 -1.0473  0.9461  2.2505
 7797TIP3    H244883   4.852   0.071  14.250  2.1011 -0.5238  1.7223
 7798TIP3   OH244884   5.096   4.244   1.047  0.4214 -0.0605 -0.4845
 7798TIP3    H144885   5.007   4.218   1.022 -0.1922  0.8845  0.5739
 7798TIP3    H244886   5.095   4.240   1.143  1.3124  0.6471 -0.4367
 7799TIP3   OH244887   5.981   2.731   4.494 -0.2197 -0.1534 -0.4831
 7799TIP3    H144888   5.918   2.791   4.534  0.1352 -0.9418  1.3672
 7799TIP3    H244889   5.949   2.719   4.404 -1.4481  1.1737 -0.2528
 7800TIP3   OH244890   0.733   6.203   4.002 -0.2194  0.0783  0.8690
 7800TIP3    H144891   0.665   6.263   4.032 -0.4823 -0.1916  0.8230
 7800TIP3    H244892   0.685   6.132   3.959  0.1928  0.8726 -0.9702
 7801TIP3   OH244893   6.095   6.809   0.797  0.0993  0.1044  0.4297
 7801TIP3    H144894   6.011   6.772   0.825  0.1593 -0.3168  0.0558
 7801TIP3    H244895   6.158   6.771   0.858  0.2654 -1.0137 -0.4075
 7802TIP3   OH244896   2.428   3.301  16.562 -0.6949  0.2935  0.2183
 7802TIP3    H144897   2.484   3.224  16.573 -0.9954 -0.0114 -0.3538
 7802TIP3    H244898   2.476   3.357  16.501 -0.9866  0.0523 -0.2375
 7803TIP3   OH244899   5.901   5.538   5.383  0.0510  0.2464 -0.2841
 7803TIP3    H144900   5.951   5.461   5.410 -3.3451 -2.2942 -0.5614
 7803TIP3    H244901   5.910   5.599   5.456  1.4602 -1.0836  0.7295
 7804TIP3   OH244902   1.488   6.319   1.751 -0.7093  0.7421 -0.3949
 7804TIP3    H144903   1.393   6.317   1.767 -0.7809  0.8886 -0.7754
 7804TIP3    H244904   1.500   6.261   1.676 -0.5890  1.2365 -0.7661
 7805TIP3   OH244905   5.363   2.879  17.078  0.0091 -0.2503  0.0660
 7805TIP3    H144906   5.373   2.952  17.139 -0.8550  1.8196 -2.1232
 7805TIP3    H244907   5.451   2.840  17.073  1.1077  2.0916 -0.3583
 7806TIP3   OH244908   2.027   4.095  16.104  0.5269  0.5555 -0.0488
 7806TIP3    H144909   2.094   4.161  16.122  1.4293 -0.0924 -0.8870
 7806TIP3    H244910   2.001   4.111  16.013  1.0327 -0.4399 -0.3923
 7807TIP3   OH244911   0.885   1.652  12.202 -0.5653  0.4168  0.0844
 7807TIP3    H144912   0.800   1.670  12.161 -1.7852  1.1840  2.6854
 7807TIP3    H244913   0.913   1.736  12.237  0.9088  0.0063 -0.0356
 7808TIP3   OH244914   2.636   6.713   2.555 -0.1369  0.9249 -0.0510
 7808TIP3    H144915   2.724   6.726   2.590  0.3589  0.6013 -1.1148
 7808TIP3    H244916   2.644   6.636   2.499 -0.8199  1.5532 -1.0393
 7809TIP3   OH244917   4.853   3.401   0.507 -0.7452  0.2465  0.4174
 7809TIP3    H144918   4.882   3.446   0.428 -2.0859 -1.0057 -0.8502
 7809TIP3    H244919   4.888   3.454   0.579  1.7569  0.6208 -0.9667
 7810TIP3   OH244920   0.089   2.339  11.193  0.3080  0.2301 -0.7806
 7810TIP3    H144921   0.075   2.370  11.103  1.7105  1.5179 -0.5957
 7810TIP3    H244922   0.153   2.268  11.183 -1.1122 -1.0754 -0.9669
 7811TIP3   OH244923   0.469   5.078   2.898  0.2706  0.5078 -0.5604
 7811TIP3    H144924   0.518   5.068   2.816 -1.8816 -1.1027 -1.7655
 7811TIP3    H244925   0.377   5.082   2.870 -0.4331  2.1413  1.6584
 7812TIP3   OH244926   6.200   3.443   5.714 -0.3160  0.5300  0.0657
 7812TIP3    H144927   6.166   3.418   5.628  0.2134 -0.2307  0.0645
 7812TIP3    H244928   6.231   3.532   5.703  0.2599  0.2468 -0.6859
 7813TIP3   OH244929   2.398   4.664  15.997  0.4677  0.0968 -0.3920
 7813TIP3    H144930   2.488   4.660  15.966  0.3511 -1.3496 -0.6180
 7813TIP3    H244931   2.403   4.638  16.089  0.1625 -1.2303 -0.7256
 7814TIP3   OH244932   3.989   0.022   4.850 -0.1299 -0.1999 -0.0265
 7814TIP3    H144933   3.910  -0.002   4.802 -0.3362  0.4924 -0.0520
 7814TIP3    H244934   3.957   0.067   4.928  0.2108 -1.1042  0.6437
 7815TIP3   OH244935   2.449   3.238   5.327  0.0256  0.6175  0.2909
 7815TIP3    H144936   2.371   3.193   5.361  0.3944  1.1225  1.9304
 7815TIP3    H244937   2.435   3.242   5.233 -1.9374  0.6820  0.5307
 7816TIP3   OH244938   0.776   3.690  11.734  0.0096  0.7424 -0.6741
 7816TIP3    H144939   0.796   3.714  11.644  1.7912  0.3948 -0.4067
 7816TIP3    H244940   0.769   3.774  11.780  1.8897  0.8978 -0.6046
 7817TIP3   OH244941   2.261   3.684   0.869 -0.0038 -0.5644  0.4538
 7817TIP3    H144942   2.284   3.638   0.788  0.8586  1.2830 -0.3946
 7817TIP3    H244943   2.192   3.630   0.907 -0.9775 -1.1321 -1.8905
 7818TIP3   OH244944   0.470   3.063   5.078 -0.1207  0.2473  0.3593
 7818TIP3    H144945   0.553   3.025   5.106 -0.5966 -1.1122 -0.0200
 7818TIP3    H244946   0.411   3.049   5.152 -0.3547  0.0668  0.1401
 7819TIP3   OH244947   4.608   4.950  11.987 -0.1837 -0.6220  0.4482
 7819TIP3    H144948   4.694   4.927  11.952  0.1549  0.6011  0.4133
 7819TIP3    H244949   4.575   4.869  12.024  0.9682 -1.1311  0.4239
 7820TIP3   OH244950   4.619   1.700  15.959 -0.0548  0.4263 -0.1846
 7820TIP3    H144951   4.687   1.712  16.026  0.9019 -3.0662 -0.3296
 7820TIP3    H244952   4.543   1.669  16.007  0.0067 -0.2426 -0.5184
 7821TIP3   OH244953   0.011   1.922   2.980 -0.0129 -0.1926  0.0842
 7821TIP3    H144954   0.065   1.910   3.058 -0.1363  1.6359  0.4944
 7821TIP3    H244955  -0.068   1.871   2.997  0.4001 -0.6325  0.7037
 7822TIP3   OH244956   1.099   3.341  15.943 -0.2550 -0.1006 -0.4193
 7822TIP3    H144957   1.135   3.257  15.974  0.4482  0.0733 -0.7416
 7822TIP3    H244958   1.025   3.316  15.888 -1.1832 -0.4326  0.9296
 7823TIP3   OH244959   3.465   5.776   3.054 -0.6717 -0.2501  0.4648
 7823TIP3    H144960   3.398   5.835   3.087 -1.1943 -2.0712  2.9424
 7823TIP3    H244961   3.417   5.714   2.999 -0.3463  0.7280 -0.9670
 7824TIP3   OH244962   0.556   3.393   1.737 -0.0575  0.1567  0.0212
 7824TIP3    H144963   0.608   3.314   1.746 -1.2542 -0.4228  3.3307
 7824TIP3    H244964   0.616   3.458   1.701  1.9235 -1.3621  0.4333
 7825TIP3   OH244965   1.808   6.057  12.810 -0.8318 -0.0045  0.2441
 7825TIP3    H144966   1.819   6.061  12.905  0.8274 -2.9639  0.2724
 7825TIP3    H244967   1.737   5.995  12.797 -0.5965 -0.1237 -0.4733
 7826TIP3   OH244968   4.246   0.776  14.901 -0.3727 -0.4913  0.0302
 7826TIP3    H144969   4.204   0.862  14.898 -0.4082 -0.5416 -2.0123
 7826TIP3    H244970   4.187   0.718  14.853  0.4666 -1.2817 -0.0863
 7827TIP3   OH244971   1.968   1.472  13.212  0.2000  0.0238 -0.1375
 7827TIP3    H144972   2.042   1.512  13.166  0.0377 -0.8431 -1.2016
 7827TIP3    H244973   2.008   1.410  13.273  0.3671 -0.1739 -0.4448
 7828TIP3   OH244974   2.639   2.637   1.233 -0.3136 -0.0243  0.1538
 7828TIP3    H144975   2.551   2.671   1.215  0.2765  0.4904 -1.9975
 7828TIP3    H244976   2.633   2.544   1.212 -0.7862 -0.4362  1.8765
 7829TIP3   OH244977   3.739   2.219   3.626 -0.3940  0.4424 -0.2576
 7829TIP3    H144978   3.831   2.226   3.601 -1.1093 -0.7112 -3.8011
 7829TIP3    H244979   3.728   2.127   3.652 -0.5288  0.6415  0.4157
 7830TIP3   OH244980   2.336   6.364  16.807 -0.5046 -0.1288  0.1366
 7830TIP3    H144981   2.314   6.404  16.891 -3.3060 -0.6340 -0.2512
 7830TIP3    H244982   2.283   6.411  16.743  0.2728 -0.8854 -1.1103
 7831TIP3   OH244983   0.610   5.594   4.541  0.7127 -0.0920 -0.0642
 7831TIP3    H144984   0.668   5.666   4.565  3.1693 -2.8875  3.4711
 7831TIP3    H244985   0.628   5.578   4.449  3.4511  1.0186  0.2024
 7832TIP3   OH244986   0.776   6.770   2.717  0.4878 -0.0171  0.4293
 7832TIP3    H144987   0.770   6.751   2.811 -1.3411  0.8933  0.5652
 7832TIP3    H244988   0.814   6.858   2.713  2.6277 -0.8931  0.1546
 7833TIP3   OH244989   4.976   0.322  13.890 -0.2783  0.3461  0.2553
 7833TIP3    H144990   5.044   0.295  13.952 -0.6719 -0.8678  0.1854
 7833TIP3    H244991   5.022   0.329  13.806 -0.5751 -2.6299 -0.2634
 7834TIP3   OH244992   6.420   4.918  16.603  0.1018 -0.0505  0.1123
 7834TIP3    H144993   6.346   4.871  16.564  0.6999 -1.1252  0.2349
 7834TIP3    H244994   6.497   4.878  16.563  0.6204  1.1330 -0.0885
 7835TIP3   OH244995   2.635   3.074   3.080  0.0583 -0.2012  0.0622
 7835TIP3    H144996   2.604   3.156   3.042 -1.1502 -0.2976  0.7862
 7835TIP3    H244997   2.640   3.092   3.174 -0.5574 -1.0479  0.2689
 7836TIP3   OH244998   3.576   1.199  11.760 -0.5189 -0.3632  0.7522
 7836TIP3    H144999   3.627   1.163  11.833 -1.2718 -1.5692  0.6919
 7836TIP3    H245000   3.534   1.124  11.720 -0.2863  0.3052 -0.8240
 7837TIP3   OH245001   1.994   6.089   2.196 -0.1381 -0.2959  0.1941
 7837TIP3    H145002   2.034   6.100   2.283 -1.3388  0.1702  0.7078
 7837TIP3    H245003   1.906   6.057   2.213 -0.1500 -0.9125 -0.9048
 7838TIP3   OH245004   0.064   4.076  13.779  0.0027 -0.1071  0.2720
 7838TIP3    H145005   0.008   4.154  13.783  1.7581  1.2927 -0.9860
 7838TIP3    H245006   0.034   4.029  13.701 -0.8221 -0.5335  0.8306
 7839TIP3   OH245007   1.342   3.830   1.939  0.4682  0.5269  0.7708
 7839TIP3    H145008   1.307   3.849   2.027 -0.1075 -1.5298  1.0405
 7839TIP3    H245009   1.435   3.853   1.945  0.0093  2.5403  1.1818
 7840TIP3   OH245010   4.274   5.736  15.972 -0.0481 -0.3843 -0.0618
 7840TIP3    H145011   4.268   5.754  16.066 -0.4257 -0.1871 -0.1231
 7840TIP3    H245012   4.350   5.678  15.964  1.4577  1.4561  0.1011
 7841TIP3   OH245013   5.938   6.753  13.171  0.4367 -0.1418 -0.2793
 7841TIP3    H145014   5.858   6.709  13.198  0.2855  0.2333 -0.1133
 7841TIP3    H245015   5.945   6.734  13.077  0.4467 -0.6312 -0.1796
 7842TIP3   OH245016   0.891   1.849  17.052 -0.4279  0.2488  0.2957
 7842TIP3    H145017   0.986   1.847  17.057 -0.3416  2.2936  0.1646
 7842TIP3    H245018   0.862   1.835  17.142  0.0171  0.2606  0.4404
 7843TIP3   OH245019   2.672   3.060  15.262 -0.3457 -0.8747 -0.1098
 7843TIP3    H145020   2.691   3.138  15.315 -1.1933 -0.0929 -0.8950
 7843TIP3    H245021   2.583   3.036  15.288 -0.2570 -1.3058 -0.2052
 7844TIP3   OH245022   6.228   5.256   3.695  0.3784 -0.4285 -0.0143
 7844TIP3    H145023   6.143   5.257   3.739 -0.5139  0.4607 -1.6187
 7844TIP3    H245024   6.287   5.214   3.757 -1.1220 -0.6471  1.3499
 7845TIP3   OH245025   5.843   2.832   5.807 -0.1529 -0.2401  0.0094
 7845TIP3    H145026   5.751   2.808   5.812 -0.2081 -0.3948 -1.2509
 7845TIP3    H245027   5.882   2.796   5.887 -1.3191  0.5320  0.9561
 7846TIP3   OH245028   4.885   0.326  15.657 -0.0550  0.1407  0.0312
 7846TIP3    H145029   4.910   0.416  15.679 -0.6962  0.4150 -0.3166
 7846TIP3    H245030   4.891   0.323  15.561  1.6399 -0.7069  0.1429
 7847TIP3   OH245031   4.844   6.562   1.045 -0.1302 -0.1293  0.4313
 7847TIP3    H145032   4.813   6.471   1.044 -1.8753  0.4202 -1.3661
 7847TIP3    H245033   4.878   6.577   0.957 -0.9197  1.2623  0.3257
 7848TIP3   OH245034   1.093   3.359  16.960 -0.7352  0.6148  0.0698
 7848TIP3    H145035   1.042   3.429  17.002 -0.3778  0.6121  0.5177
 7848TIP3    H245036   1.173   3.402  16.930 -0.4032  0.3568  0.5668
 7849TIP3   OH245037   4.727   0.478   0.796 -0.3709  0.0805  0.1800
 7849TIP3    H145038   4.695   0.483   0.706 -0.8801  1.8816  0.4148
 7849TIP3    H245039   4.647   0.476   0.849 -0.0781 -1.4646  0.5888
 7850TIP3   OH245040   3.254   5.998  12.664 -0.1797 -0.1357  0.2925
 7850TIP3    H145041   3.213   5.914  12.642  0.4851 -0.5149  0.4674
 7850TIP3    H245042   3.347   5.977  12.675  0.0350  0.6730  0.0884
 7851TIP3   OH245043   1.314   6.324   4.325 -0.2280  0.4734 -0.3629
 7851TIP3    H145044   1.376   6.256   4.299 -0.9473 -0.8332  1.1484
 7851TIP3    H245045   1.239   6.275   4.359 -0.3131  2.0249  1.8283
 7852TIP3   OH245046   5.950   6.220  16.646  0.7886  0.4218 -0.3052
 7852TIP3    H145047   5.989   6.136  16.673  1.9820  1.3616  1.0737
 7852TIP3    H245048   5.856   6.203  16.643  1.0934 -1.2974 -1.3506
 7853TIP3   OH245049   0.753   1.240   4.609 -0.1117 -0.2304  0.0179
 7853TIP3    H145050   0.847   1.260   4.615 -0.0184 -0.9934  2.5767
 7853TIP3    H245051   0.710   1.312   4.654 -0.7852  0.1173 -1.1511
 7854TIP3   OH245052   4.265   6.249   1.263 -0.0523  0.1475  0.5935
 7854TIP3    H145053   4.320   6.298   1.203 -1.0590 -1.1466 -1.5187
 7854TIP3    H245054   4.183   6.298   1.266  0.1433  0.4374  1.2635
 7855TIP3   OH245055   6.223   3.160  11.702  0.6125  0.6361 -0.1287
 7855TIP3    H145056   6.277   3.139  11.778  0.4570 -0.7503 -0.3665
 7855TIP3    H245057   6.206   3.075  11.661 -1.3439  1.0799 -0.3294
 7856TIP3   OH245058   6.493   0.669  10.647 -0.1687  0.3255  0.8745
 7856TIP3    H145059   6.435   0.623  10.587 -0.1764 -1.0346  1.8919
 7856TIP3    H245060   6.538   0.733  10.592 -1.6278  0.4900 -0.1844
 7857TIP3   OH245061   3.191   4.580   1.920  0.4958 -0.1696 -0.3771
 7857TIP3    H145062   3.242   4.611   1.845 -0.6349  1.0149 -0.7009
 7857TIP3    H245063   3.182   4.486   1.906  0.1930  0.0430 -1.8281
 7858TIP3   OH245064   5.288   1.803   4.633  0.5812  0.4138 -0.4162
 7858TIP3    H145065   5.266   1.882   4.683 -0.2666 -0.4315  0.6015
 7858TIP3    H245066   5.362   1.765   4.681  0.6871  0.3475 -0.6341
 7859TIP3   OH245067   6.270   0.932   4.758  0.0487  0.0407 -0.3041
 7859TIP3    H145068   6.340   0.930   4.823 -0.1650 -0.2313 -0.0806
 7859TIP3    H245069   6.258   1.025   4.740 -0.0797  0.1382  0.2517
 7860TIP3   OH245070   1.213   0.742  12.203 -0.3194 -0.3382 -0.3234
 7860TIP3    H145071   1.276   0.755  12.275 -0.4466 -2.6684  0.3003
 7860TIP3    H245072   1.134   0.787  12.232  0.3469  0.7004 -0.0673
 7861TIP3   OH245073   1.673   2.823   2.137  0.5663 -0.4229 -0.1066
 7861TIP3    H145074   1.719   2.871   2.206  1.2662 -1.8913  0.4879
 7861TIP3    H245075   1.743   2.792   2.079  0.2032 -1.4213 -0.0172
 7862TIP3   OH245076   4.669   4.001   1.364  0.0623 -0.4032 -0.1274
 7862TIP3    H145077   4.626   4.084   1.340  1.1128  0.5826  1.2286
 7862TIP3    H245078   4.655   3.993   1.458  0.5507 -1.4433 -0.1319
 7863TIP3   OH245079   5.161   3.911  16.642 -0.1230  0.1658 -0.0485
 7863TIP3    H145080   5.094   3.953  16.696 -1.7844 -2.2715 -0.0564
 7863TIP3    H245081   5.152   3.817  16.661  1.5930 -0.4627 -1.9692
 7864TIP3   OH245082   6.368   1.029  16.658  0.2202  0.2595  0.3833
 7864TIP3    H145083   6.294   1.087  16.675 -0.4651 -0.0888 -1.1839
 7864TIP3    H245084   6.402   1.058  16.573  0.1144 -1.3329 -0.2422
 7865TIP3   OH245085   0.892   0.428  16.192  0.2544 -0.4170 -0.2478
 7865TIP3    H145086   0.840   0.484  16.135  0.9368  1.3073  0.7263
 7865TIP3    H245087   0.941   0.371  16.133 -0.1108  0.3439 -1.3068
 7866TIP3   OH245088   2.671   4.118   2.607 -0.3023 -0.0561 -0.0732
 7866TIP3    H145089   2.671   4.116   2.512  1.5174 -0.2426 -0.1175
 7866TIP3    H245090   2.739   4.055   2.632 -0.5553  0.1905  1.3365
 7867TIP3   OH245091   3.731   3.096  13.311  0.3553  0.1567  0.0598
 7867TIP3    H145092   3.707   3.113  13.402 -0.4122  0.9250 -0.2682
 7867TIP3    H245093   3.810   3.147  13.297  0.6013 -0.1367  0.3477
 7868TIP3   OH245094   0.251   3.588  16.178 -0.0215 -1.1173  0.0074
 7868TIP3    H145095   0.221   3.498  16.191  1.4954 -1.4763  1.4065
 7868TIP3    H245096   0.197   3.640  16.238  0.6780 -1.4500  0.9433
 7869TIP3   OH245097   1.902   0.761   4.712  0.2899  0.4049 -0.2473
 7869TIP3    H145098   1.985   0.808   4.709  0.2317  0.4866 -3.1113
 7869TIP3    H245099   1.861   0.778   4.627 -1.0019 -2.5668 -0.3380
 7870TIP3   OH245100   5.627   0.977   0.095 -0.2466  0.2554 -0.2352
 7870TIP3    H145101   5.703   1.036   0.102  0.2887 -0.4385 -0.0465
 7870TIP3    H245102   5.631   0.944   0.006  0.6287 -1.0070  0.2369
 7871TIP3   OH245103   3.780   2.881   5.382  0.2040 -0.4585  0.1166
 7871TIP3    H145104   3.761   2.799   5.336 -0.6817  0.2393 -0.8001
 7871TIP3    H245105   3.709   2.940   5.356  1.3196  0.8949  0.0508
 7872TIP3   OH245106   0.341   0.389  12.356  0.7744  0.4635 -0.2804
 7872TIP3    H145107   0.265   0.392  12.415  0.8813  0.3816 -0.1375
 7872TIP3    H245108   0.353   0.479  12.327  0.2063  0.3650 -0.8381
 7873TIP3   OH245109   3.469   0.520   0.026 -0.2881 -0.2903  0.0671
 7873TIP3    H145110   3.531   0.593   0.032  0.6713 -1.1022  0.3036
 7873TIP3    H245111   3.481   0.471   0.108 -1.0437 -0.6214 -0.0074
 7874TIP3   OH245112   4.996   3.407   6.248 -0.5760  0.1730 -0.0853
 7874TIP3    H145113   5.024   3.316   6.253 -0.4728  0.2520  1.0125
 7874TIP3    H245114   4.980   3.422   6.155  1.2225 -0.4146 -0.5312
 7875TIP3   OH245115   3.633   3.457   4.988  0.0778 -0.0006  0.1734
 7875TIP3    H145116   3.595   3.370   4.993  1.5608 -0.6439  0.7750
 7875TIP3    H245117   3.726   3.442   4.970  0.2162  1.4864 -0.5112
 7876TIP3   OH245118   4.136   0.407   1.325 -0.6526  0.1111 -0.6465
 7876TIP3    H145119   4.062   0.388   1.268 -1.3005  2.6209 -0.7831
 7876TIP3    H245120   4.096   0.443   1.405  0.3504 -0.6767  0.2393
 7877TIP3   OH245121   0.707   6.090   4.693  0.0214 -0.2979  0.2493
 7877TIP3    H145122   0.736   6.156   4.630 -0.6737 -0.2462 -0.0137
 7877TIP3    H245123   0.667   6.140   4.764  0.0804 -0.4047  0.3593
 7878TIP3   OH245124   6.800   4.641  13.977 -0.5478 -0.0696  0.0064
 7878TIP3    H145125   6.748   4.613  13.901 -3.2246  1.0262  1.3111
 7878TIP3    H245126   6.820   4.560  14.023  2.5078 -0.9773 -2.4870
 7879TIP3   OH245127   0.342   5.782  13.667 -0.1594 -0.1112 -0.1857
 7879TIP3    H145128   0.349   5.805  13.760 -1.8876 -0.6551  0.1160
 7879TIP3    H245129   0.413   5.830  13.625 -0.4904  1.6623  1.1579
 7880TIP3   OH245130   6.377   0.932   4.496 -0.0848 -0.5488 -0.4640
 7880TIP3    H145131   6.331   0.914   4.578  0.3051 -0.2884 -0.1864
 7880TIP3    H245132   6.345   0.864   4.436  1.1950 -2.0598  0.5019
 7881TIP3   OH245133   5.050   6.824  15.919  0.6082 -0.1089  0.2441
 7881TIP3    H145134   4.969   6.847  15.966  0.0200 -2.0935  0.3034
 7881TIP3    H245135   5.024   6.820  15.827  0.7822 -0.1712  0.1984
 7882TIP3   OH245136   2.212   5.324   2.605  0.2315  0.3272  0.3427
 7882TIP3    H145137   2.158   5.299   2.680  0.2789  0.6052  0.4724
 7882TIP3    H245138   2.256   5.405   2.633 -0.0392  0.6411 -0.1233
 7883TIP3   OH245139   3.265   1.350  10.264 -0.0312  0.3638  0.2154
 7883TIP3    H145140   3.295   1.439  10.243 -0.4582  0.3941 -0.2942
 7883TIP3    H245141   3.242   1.353  10.357 -0.3709  0.8783  0.1158
 7884TIP3   OH245142   3.417   2.654   4.674 -0.1638  0.4597 -0.0225
 7884TIP3    H145143   3.416   2.567   4.715  0.1440  1.5746  2.5819
 7884TIP3    H245144   3.469   2.643   4.595  0.0687 -1.6704  0.3562
 7885TIP3   OH245145   4.780   1.847  12.401  0.2960 -0.3308  0.0452
 7885TIP3    H145146   4.735   1.817  12.480  1.0203 -0.5866  0.3683
 7885TIP3    H245147   4.734   1.805  12.329  0.8296 -1.6451  0.4479
 7886TIP3   OH245148   6.049   2.413  12.312 -0.0107  0.1535 -0.2667
 7886TIP3    H145149   6.062   2.378  12.224  1.5708 -0.7726  0.2828
 7886TIP3    H245150   5.968   2.464  12.306 -0.6372 -0.9362 -1.9287
 7887TIP3   OH245151   6.694   5.469  11.429  0.2631  0.0589 -0.1568
 7887TIP3    H145152   6.749   5.544  11.453 -1.5541  1.0149  1.2570
 7887TIP3    H245153   6.658   5.493  11.344 -0.0378  0.6373  0.1293
 7888TIP3   OH245154   6.229   4.972   4.616 -0.1423 -0.5345 -0.1814
 7888TIP3    H145155   6.291   4.900   4.610  2.1921  1.4550 -1.6674
 7888TIP3    H245156   6.144   4.929   4.632  0.8295 -3.6892 -2.4484
 7889TIP3   OH245157   5.710   0.331  17.121 -0.2912 -0.0068 -0.0822
 7889TIP3    H145158   5.634   0.339  17.179 -0.1477 -0.4824  0.1743
 7889TIP3    H245159   5.684   0.266  17.056 -0.0782 -0.2168  0.0430
 7890TIP3   OH245160   2.026   4.875   5.748 -0.2740 -0.6498 -0.3619
 7890TIP3    H145161   2.094   4.811   5.769 -0.4873 -0.6850  0.2355
 7890TIP3    H245162   1.964   4.870   5.821 -0.3943  0.0960 -0.3988
 7891TIP3   OH245163   3.615   6.239   6.684  0.8602  0.1764 -0.4235
 7891TIP3    H145164   3.666   6.181   6.741  0.0855  0.1503  0.2558
 7891TIP3    H245165   3.595   6.185   6.607 -1.2463 -1.0636  0.9006
 7892TIP3   OH245166   5.659   1.857  16.435 -0.2632 -0.5546 -0.1331
 7892TIP3    H145167   5.728   1.897  16.487 -1.0047  0.4483  0.1082
 7892TIP3    H245168   5.688   1.767  16.421  2.2390  0.4564 -2.1178
 7893TIP3   OH245169   5.151   3.764  12.406  0.0711  0.2016 -0.0045
 7893TIP3    H145170   5.090   3.830  12.438  0.3417  0.4469  0.0039
 7893TIP3    H245171   5.231   3.812  12.385  1.0130 -0.4020  1.9829
 7894TIP3   OH245172   2.214   5.772   2.739  0.3318  0.5979  0.3330
 7894TIP3    H145173   2.123   5.764   2.712  0.2438 -0.5889  0.9175
 7894TIP3    H245174   2.241   5.858   2.708 -0.5364  0.3537 -1.1873
 7895TIP3   OH245175   1.354   2.334  12.061 -0.0426  0.3223  0.1949
 7895TIP3    H145176   1.347   2.245  12.094  1.1948  0.1377  0.0197
 7895TIP3    H245177   1.446   2.358  12.075 -0.0201  1.0549 -1.0303
 7896TIP3   OH245178   6.253   2.260   4.149 -0.0106  0.3562 -0.0545
 7896TIP3    H145179   6.218   2.207   4.077  0.8956  0.2719 -0.4507
 7896TIP3    H245180   6.255   2.201   4.224  2.6657 -0.8301 -0.9018
 7897TIP3   OH245181   3.482   0.955   5.479 -0.1588  0.4944  0.6264
 7897TIP3    H145182   3.458   0.903   5.402 -0.7246 -0.6655  1.5607
 7897TIP3    H245183   3.398   0.986   5.513  0.1032  1.1427  0.6935
 7898TIP3   OH245184   0.241   2.585  11.837  0.2234  0.1742 -0.4781
 7898TIP3    H145185   0.293   2.521  11.788 -1.5047 -0.4405 -1.5812
 7898TIP3    H245186   0.254   2.667  11.789  0.0901 -0.0045 -0.8263
 7899TIP3   OH245187   3.685   6.201   5.149 -0.1060 -0.2171  0.5734
 7899TIP3    H145188   3.654   6.115   5.178  0.2009 -0.4707  0.1710
 7899TIP3    H245189   3.607   6.256   5.150 -0.9957 -1.2530 -1.9979
 7900TIP3   OH245190   6.833   0.316   1.958 -0.3129 -0.0912  0.1991
 7900TIP3    H145191   6.822   0.389   2.020  4.7963 -0.2778  1.8133
 7900TIP3    H245192   6.851   0.359   1.874  1.3172  0.5811  0.8463
 7901TIP3   OH245193   3.574   0.949  15.477  1.2012 -0.4795  0.2823
 7901TIP3    H145194   3.576   0.932  15.571 -1.6760  0.4546  0.6072
 7901TIP3    H245195   3.512   0.884  15.443  1.0905  0.1438 -0.7289
 7902TIP3   OH245196   4.004   0.233   2.569  0.4790  0.3664  0.1103
 7902TIP3    H145197   3.932   0.190   2.616 -0.7981  2.8286  0.5751
 7902TIP3    H245198   4.044   0.291   2.634  1.9784  0.0826 -0.5389
 7903TIP3   OH245199   3.643   4.502  14.440  0.0903 -0.7127 -0.0613
 7903TIP3    H145200   3.585   4.527  14.512  0.7113  2.0926 -0.4142
 7903TIP3    H245201   3.586   4.456  14.378 -1.3841  0.4215  0.3927
 7904TIP3   OH245202   1.060   2.505  16.311 -0.0321  0.3060 -0.4222
 7904TIP3    H145203   1.096   2.442  16.373  0.5465 -0.2533 -1.2890
 7904TIP3    H245204   0.967   2.511  16.332 -0.1805 -1.1610 -0.5847
 7905TIP3   OH245205   0.129   1.475  12.037  0.2230  0.0367 -0.2923
 7905TIP3    H145206   0.034   1.469  12.024 -0.1549  1.1522  1.4922
 7905TIP3    H245207   0.139   1.547  12.100  2.0018 -2.1501  2.1056
 7906TIP3   OH245208   2.083   5.513  14.027 -0.2982 -0.0395 -0.7936
 7906TIP3    H145209   2.040   5.514  13.942 -1.7510 -0.3020 -0.0935
 7906TIP3    H245210   2.176   5.500  14.007 -0.5637  0.2731 -2.3372
 7907TIP3   OH245211   5.350   3.909   0.202  0.3293  0.2060 -0.0378
 7907TIP3    H145212   5.377   3.998   0.223  1.4869 -0.1263 -0.0511
 7907TIP3    H245213   5.432   3.863   0.185 -0.0819 -1.4025  2.0321
 7908TIP3   OH245214   1.819   1.663   4.058  0.4696 -0.4402 -0.3323
 7908TIP3    H145215   1.772   1.746   4.050  0.5762 -0.4198 -0.7934
 7908TIP3    H245216   1.906   1.681   4.021  1.7941  0.2563  2.8243
 7909TIP3   OH245217   2.528   6.533  11.847 -1.1596 -0.4545  0.3535
 7909TIP3    H145218   2.540   6.546  11.753 -1.3631 -0.2363  0.3559
 7909TIP3    H245219   2.616   6.518  11.880 -1.0891 -0.5501  0.1252
 7910TIP3   OH245220   6.211   1.636   1.629 -0.1021 -0.2316  0.1247
 7910TIP3    H145221   6.127   1.607   1.594 -0.1186 -0.4218  0.3149
 7910TIP3    H245222   6.272   1.627   1.556  0.5243 -3.4730  0.8649
 7911TIP3   OH245223   5.703   5.062  14.254  0.2634 -0.1020 -0.3755
 7911TIP3    H145224   5.672   4.978  14.222  0.0124  0.2318 -1.0261
 7911TIP3    H245225   5.663   5.071  14.341 -0.4257 -0.2544 -0.6729
 7912TIP3   OH245226   5.695   3.830  11.198 -0.4066  0.2514 -0.4087
 7912TIP3    H145227   5.745   3.754  11.227 -1.0518 -0.6119 -1.4952
 7912TIP3    H245228   5.744   3.905  11.231 -0.6369 -0.6341  2.1066
 7913TIP3   OH245229   4.623   4.042  13.433 -0.0411  0.1230  0.3598
 7913TIP3    H145230   4.625   4.078  13.344 -2.0546 -0.8644 -0.1362
 7913TIP3    H245231   4.596   4.115  13.488 -1.1206  0.1701 -0.2036
 7914TIP3   OH245232   3.805   3.853  15.395  0.5454 -0.1107 -0.2592
 7914TIP3    H145233   3.743   3.925  15.381  0.7278  0.4219  1.4936
 7914TIP3    H245234   3.888   3.888  15.364  0.6070  0.4091  0.4575
 7915TIP3   OH245235   6.337   5.476  16.778  0.5748 -0.1357 -0.3212
 7915TIP3    H145236   6.324   5.382  16.765  2.2759 -0.4224 -0.2194
 7915TIP3    H245237   6.407   5.481  16.843 -0.8279  1.2270  1.1656
 7916TIP3   OH245238   1.958   4.003   5.632  0.1188 -0.2302  0.3431
 7916TIP3    H145239   2.049   3.974   5.630 -0.8402 -3.8453  1.9616
 7916TIP3    H245240   1.909   3.933   5.589 -2.0323  1.2634  0.1777
 7917TIP3   OH245241   4.870   3.893   3.568  0.1598  0.5461  0.1020
 7917TIP3    H145242   4.923   3.878   3.647 -1.0585  0.0178  0.8358
 7917TIP3    H245243   4.782   3.911   3.601 -0.2910  0.6723 -1.1316
 7918TIP3   OH245244   6.469   6.061  10.729  0.4444  0.8438 -0.0785
 7918TIP3    H145245   6.423   6.081  10.647  1.0400  2.1985 -0.1162
 7918TIP3    H245246   6.469   5.966  10.734 -0.9017  0.7768 -0.9042
 7919TIP3   OH245247   1.346   2.286  16.153 -0.2306 -0.4227 -0.1583
 7919TIP3    H145248   1.335   2.239  16.235 -0.6085  0.7192  0.4683
 7919TIP3    H245249   1.258   2.288  16.114 -0.3052  0.1346  0.0316
 7920TIP3   OH245250   0.535   5.081  13.501 -0.0146  0.6428 -0.0705
 7920TIP3    H145251   0.458   5.024  13.499  0.8751 -0.6057 -2.0255
 7920TIP3    H245252   0.539   5.112  13.591 -0.8478 -2.0253  0.9874
 7921TIP3   OH245253   1.153   4.238  14.321 -0.5048  0.3017 -0.3906
 7921TIP3    H145254   1.101   4.260  14.398  1.8566  1.2462  1.0780
 7921TIP3    H245255   1.199   4.320  14.299 -0.3865 -0.2033 -2.2350
 7922TIP3   OH245256   1.998   2.186  15.324  0.5887  0.0777  0.0915
 7922TIP3    H145257   1.983   2.097  15.292 -1.6169  0.6723 -0.6853
 7922TIP3    H245258   1.979   2.182  15.418 -1.7374  0.1402 -0.3244
 7923TIP3   OH245259   3.279   1.451   6.568  0.0717 -0.3387 -0.5011
 7923TIP3    H145260   3.282   1.391   6.643 -0.6016  0.8362  0.5110
 7923TIP3    H245261   3.188   1.447   6.538 -0.9064  2.5004  1.6390
 7924TIP3   OH245262   6.517   3.986   0.184 -0.5019  0.1232 -0.0585
 7924TIP3    H145263   6.440   3.975   0.128 -1.3849 -1.7907  1.4000
 7924TIP3    H245264   6.491   4.054   0.247 -0.0519  1.2148 -1.0116
 7925TIP3   OH245265   5.855   1.854   5.670  0.3818  0.1497  0.1402
 7925TIP3    H145266   5.763   1.838   5.690  0.5720  0.1836  1.0649
 7925TIP3    H245267   5.854   1.897   5.584 -0.4327 -0.2217 -0.0427
 7926TIP3   OH245268   3.769   0.261   3.845 -0.5676 -0.0831  0.4388
 7926TIP3    H145269   3.812   0.177   3.827  0.2030  0.0495  1.5478
 7926TIP3    H245270   3.756   0.300   3.759  0.8404 -0.4878  0.0149
 7927TIP3   OH245271   5.870   4.666  13.585  0.3725  0.6420  0.7327
 7927TIP3    H145272   5.781   4.687  13.555 -0.1883  1.6739  2.9043
 7927TIP3    H245273   5.908   4.615  13.514 -2.7692 -1.9395  0.6439
 7928TIP3   OH245274   3.999   5.740   1.653  0.0877  0.2517  0.5279
 7928TIP3    H145275   3.959   5.726   1.739 -0.7695  1.2449  0.3193
 7928TIP3    H245276   4.070   5.802   1.669 -0.1103  0.4838  0.5207
 7929TIP3   OH245277   5.039   1.973   1.602  0.4615 -0.3125 -0.8203
 7929TIP3    H145278   5.119   1.964   1.551  1.1183 -0.4980  0.2048
 7929TIP3    H245279   5.010   1.883   1.618  0.1420 -0.2503 -1.0364
 7930TIP3   OH245280   4.371   1.824   1.871 -0.0583 -0.0831  0.2705
 7930TIP3    H145281   4.324   1.831   1.954  0.3892 -0.4612  0.5603
 7930TIP3    H245282   4.303   1.830   1.804 -0.3347  1.0881  0.6330
 7931TIP3   OH245283   4.772   0.329  13.439 -0.7530  0.3847 -0.6793
 7931TIP3    H145284   4.782   0.277  13.360  2.3429  0.3033 -0.3635
 7931TIP3    H245285   4.774   0.266  13.510  0.5698  0.7091 -0.4013
 7932TIP3   OH245286   2.481   4.977   5.894  0.2779  0.2033 -0.3715
 7932TIP3    H145287   2.514   4.902   5.944  0.7886  0.1167 -0.8371
 7932TIP3    H245288   2.468   4.944   5.806 -2.5795 -0.2031  0.1156
 7933TIP3   OH245289   2.006   2.357   2.984 -0.1984  0.2424 -0.3897
 7933TIP3    H145290   2.075   2.301   3.020 -1.1457 -1.2728 -0.8441
 7933TIP3    H245291   1.932   2.347   3.045 -1.0405 -0.5648 -1.5095
 7934TIP3   OH245292   5.445   3.409   4.148  0.0225  0.3711 -0.0966
 7934TIP3    H145293   5.457   3.320   4.115  0.0357 -0.0928  1.1258
 7934TIP3    H245294   5.525   3.429   4.196 -0.4372  0.6164  0.5845
 7935TIP3   OH245295   1.415   5.579  16.274  0.3373 -0.6930 -0.4935
 7935TIP3    H145296   1.327   5.545  16.294 -0.4026  0.0157 -2.3157
 7935TIP3    H245297   1.424   5.656  16.329  0.3471 -1.4587  0.6178
 7936TIP3   OH245298   3.175   0.477   0.646 -0.4476  0.6746  0.2626
 7936TIP3    H145299   3.218   0.508   0.567 -3.2964  0.1508 -1.6120
 7936TIP3    H245300   3.220   0.394   0.666 -0.0794  0.5098 -1.1441
 7937TIP3   OH245301   4.808   4.130  15.045  0.3665  0.3783  0.4241
 7937TIP3    H145302   4.804   4.083  15.129 -0.5111  2.6649  1.7506
 7937TIP3    H245303   4.846   4.067  14.984 -0.9056 -2.0884  2.0292
 7938TIP3   OH245304   5.647   5.010   2.065 -0.5725  0.1155  0.1393
 7938TIP3    H145305   5.626   4.924   2.028  1.0429 -0.6717  0.9495
 7938TIP3    H245306   5.689   5.056   1.992 -1.3538  0.1902 -0.2720
 7939TIP3   OH245307   4.934   3.151   3.852 -0.4353 -0.6519 -0.1971
 7939TIP3    H145308   4.985   3.070   3.848  0.2331 -0.1856 -1.7149
 7939TIP3    H245309   4.899   3.162   3.764  0.9421  1.5858 -0.5525
 7940TIP3   OH245310   0.636   6.207  11.995  0.2330 -0.2215  0.4348
 7940TIP3    H145311   0.625   6.240  12.084 -0.9161  1.0151 -0.1292
 7940TIP3    H245312   0.549   6.177  11.970  0.2838  0.4708 -0.6463
 7941TIP3   OH245313   5.628   4.449  14.050 -0.4595 -0.0750 -0.0646
 7941TIP3    H145314   5.651   4.360  14.023 -1.0078 -0.4407  0.6464
 7941TIP3    H245315   5.699   4.475  14.109  1.0268  0.9264 -2.1458
 7942TIP3   OH245316   2.822   2.582  16.727 -0.0482 -0.2628  0.4982
 7942TIP3    H145317   2.883   2.633  16.674 -0.4880 -0.2131  0.0358
 7942TIP3    H245318   2.736   2.617  16.705 -0.4554 -1.8350 -0.5581
 7943TIP3   OH245319   4.290   5.871  16.638 -0.5082 -0.1986  1.2351
 7943TIP3    H145320   4.349   5.927  16.588 -0.2506 -0.2173  1.5152
 7943TIP3    H245321   4.262   5.804  16.576 -0.6720  0.1319  0.9498
 7944TIP3   OH245322   6.715   2.260  14.083  0.0051  0.2776  0.8128
 7944TIP3    H145323   6.797   2.289  14.041 -0.4848 -0.1168 -0.4713
 7944TIP3    H245324   6.673   2.204  14.017 -1.4808  0.7782  1.2998
 7945TIP3   OH245325   2.441   6.149  10.890  0.2524 -0.3859 -0.4942
 7945TIP3    H145326   2.347   6.138  10.873  0.3212 -0.3978 -0.8681
 7945TIP3    H245327   2.468   6.220  10.833  0.0873  0.9094  0.9702
 7946TIP3   OH245328   1.141   2.101  10.313  0.1908 -0.0999 -0.1850
 7946TIP3    H145329   1.205   2.167  10.340 -1.6188  1.3408  0.8565
 7946TIP3    H245330   1.111   2.062  10.395 -1.0958  0.0837 -0.5510
 7947TIP3   OH245331   0.766   6.001   3.334  0.1179  0.2108  0.3582
 7947TIP3    H145332   0.737   5.981   3.245  2.3065 -0.8777 -0.1838
 7947TIP3    H245333   0.736   5.927   3.387  1.0176 -0.4194  0.0001
 7948TIP3   OH245334   3.037   4.676   2.127  0.3463 -0.4894 -0.7075
 7948TIP3    H145335   3.087   4.643   2.201 -1.0161 -0.2381  0.3641
 7948TIP3    H245336   3.091   4.655   2.050  2.6896  0.8995  0.4437
 7949TIP3   OH245337   5.228   3.381  13.787 -0.2598 -0.9215 -0.2597
 7949TIP3    H145338   5.303   3.439  13.775  0.3190 -1.6267 -0.1041
 7949TIP3    H245339   5.249   3.329  13.864 -0.1448 -2.2894 -1.1865
 7950TIP3   OH245340   3.835   3.078  13.778  0.1425  0.4892 -0.4160
 7950TIP3    H145341   3.877   3.132  13.845 -2.6354  0.3300  1.6107
 7950TIP3    H245342   3.892   3.001  13.770  3.3027  2.7956 -2.1915
 7951TIP3   OH245343   5.081   6.204   2.849 -0.3613  0.0870 -0.6204
 7951TIP3    H145344   5.034   6.274   2.894  2.6212  0.3719  2.4141
 7951TIP3    H245345   5.032   6.125   2.870 -1.3531  0.7228 -0.4404
 7952TIP3   OH245346   4.324   0.829  13.368  0.2930  0.1209  0.1583
 7952TIP3    H145347   4.397   0.871  13.323 -1.6811  2.0837 -1.4447
 7952TIP3    H245348   4.308   0.883  13.445 -0.6788  0.9277 -0.5762
 7953TIP3   OH245349   5.543   2.506  10.668 -0.0602 -0.0811  0.1776
 7953TIP3    H145350   5.484   2.431  10.659  0.8581 -0.8728  0.5426
 7953TIP3    H245351   5.493   2.580  10.633 -1.2596 -0.7186  0.4770
 7954TIP3   OH245352   5.605   4.163   0.441  0.9349 -0.7246 -0.6460
 7954TIP3    H145353   5.514   4.183   0.423  1.1271  0.3233 -0.5380
 7954TIP3    H245354   5.654   4.232   0.396  1.4577  1.6475  3.0727
 7955TIP3   OH245355   0.656   0.591  15.602  0.1309 -0.2122 -0.3398
 7955TIP3    H145356   0.739   0.630  15.573  0.0971 -0.6600 -1.0631
 7955TIP3    H245357   0.605   0.582  15.522  1.1478 -4.2457 -0.7586
 7956TIP3   OH245358   3.509   3.449   4.569  0.8628 -0.0818  0.4743
 7956TIP3    H145359   3.586   3.506   4.570  0.8456 -0.0692  1.4799
 7956TIP3    H245360   3.544   3.362   4.547  0.9876  0.1508 -0.2980
 7957TIP3   OH245361   0.084   6.600   1.519  0.4830 -0.1575 -0.2550
 7957TIP3    H145362   0.144   6.525   1.522  0.5074 -0.1407 -0.3379
 7957TIP3    H245363   0.137   6.674   1.548  0.0501 -0.4460  1.4107
 7958TIP3   OH245364   3.550   4.059   5.848 -0.0730  1.1608 -0.0791
 7958TIP3    H145365   3.556   4.126   5.916  0.6647  1.4114 -0.3788
 7958TIP3    H245366   3.501   4.101   5.777 -1.4739  0.6640  0.5497
 7959TIP3   OH245367   4.583   5.627   4.512 -0.2542 -0.5106  0.2722
 7959TIP3    H145368   4.488   5.616   4.505 -0.1941 -0.8338 -0.0710
 7959TIP3    H245369   4.618   5.538   4.512  0.1271 -0.3884 -0.9107
 7960TIP3   OH245370   5.090   5.150  12.873 -0.3352  0.8398  0.3332
 7960TIP3    H145371   5.085   5.108  12.958 -0.2096 -0.5013 -0.3059
 7960TIP3    H245372   5.178   5.133  12.842 -0.0375  2.2083  0.3534
 7961TIP3   OH245373   6.112   6.737  14.013 -0.6356  0.0097 -0.1297
 7961TIP3    H145374   6.149   6.810  14.063 -0.4250  0.2195 -0.5928
 7961TIP3    H245375   6.132   6.660  14.066 -0.6144  0.2558  0.2246
 7962TIP3   OH245376   4.755   6.668  12.772 -0.4143 -0.3781  0.7217
 7962TIP3    H145377   4.661   6.684  12.770 -0.0944  1.8636 -1.4234
 7962TIP3    H245378   4.785   6.711  12.852 -0.8676  1.9764 -0.2767
 7963TIP3   OH245379   3.199   2.876   1.042  0.5105 -0.4021  0.4209
 7963TIP3    H145380   3.126   2.822   1.072  1.2876 -0.5326  2.1588
 7963TIP3    H245381   3.227   2.924   1.119  0.2671  2.0793 -0.9114
 7964TIP3   OH245382   5.174   5.179  13.144 -0.0836 -0.2625  0.3588
 7964TIP3    H145383   5.259   5.164  13.186  0.6652 -0.3093 -1.0986
 7964TIP3    H245384   5.163   5.274  13.146  1.6006  0.0745 -2.3149
 7965TIP3   OH245385   1.027   1.388  13.090 -0.3112 -0.6489  0.0209
 7965TIP3    H145386   1.049   1.418  13.178  0.4844 -3.1514  0.7455
 7965TIP3    H245387   1.104   1.340  13.061 -1.6232 -2.3183 -0.8680
 7966TIP3   OH245388   5.955   5.364   2.170  0.1529  0.8038  0.2910
 7966TIP3    H145389   5.962   5.450   2.209  1.1525  0.2475  1.3858
 7966TIP3    H245390   6.044   5.341   2.144  0.2459 -0.6832  1.7709
 7967TIP3   OH245391   2.976   4.685  12.746 -0.7269 -0.6709 -0.3922
 7967TIP3    H145392   2.955   4.677  12.653 -2.6394  0.5046 -0.1348
 7967TIP3    H245393   2.956   4.777  12.766  2.8657  0.0503  0.4737
 7968TIP3   OH245394   3.213   1.970  17.141 -0.1219 -0.5158 -0.2352
 7968TIP3    H145395   3.214   1.874  17.132 -0.3568 -0.4176 -1.4416
 7968TIP3    H245396   3.249   2.002  17.059 -0.2349  0.4423  0.0826
 7969TIP3   OH245397   2.672   2.678  16.279  0.7350  0.6550  0.2184
 7969TIP3    H145398   2.652   2.671  16.185 -1.0122 -0.3717  0.6337
 7969TIP3    H245399   2.635   2.762  16.305  3.5959  2.2746 -0.4971
 7970TIP3   OH245400   3.250   1.393  15.961 -0.1597  0.3060 -0.0704
 7970TIP3    H145401   3.294   1.476  15.980  0.7177 -0.8262  3.5348
 7970TIP3    H245402   3.288   1.365  15.878  1.3866  2.3174 -0.1213
 7971TIP3   OH245403   1.804   4.476   1.807 -0.1636 -0.0228  0.7006
 7971TIP3    H145404   1.863   4.425   1.864 -0.3970 -1.7653 -0.5480
 7971TIP3    H245405   1.776   4.414   1.740  0.0489  1.9558 -1.3043
 7972TIP3   OH245406   3.733   1.898  15.727 -0.3007  0.3564  0.3012
 7972TIP3    H145407   3.737   1.900  15.631  0.1558 -0.0424  0.3030
 7972TIP3    H245408   3.659   1.841  15.747 -0.6077  0.7105  0.1917
 7973TIP3   OH245409   0.743   1.902  14.843 -0.2516 -0.2290 -0.1581
 7973TIP3    H145410   0.761   1.887  14.750 -1.6451  1.9197 -0.8578
 7973TIP3    H245411   0.663   1.954  14.844 -1.0931 -1.3934  2.3482
 7974TIP3   OH245412   4.904   5.982  15.285  0.7530 -0.6368 -0.5329
 7974TIP3    H145413   4.977   6.044  15.282 -1.4694  2.2445  0.3734
 7974TIP3    H245414   4.922   5.921  15.214  2.1317  2.2397 -2.8739
 7975TIP3   OH245415   1.921   5.391  16.753 -0.3703  0.0548 -0.0337
 7975TIP3    H145416   1.911   5.429  16.665 -0.0088  0.0392 -0.0851
 7975TIP3    H245417   1.921   5.467  16.811  1.9884  0.3267 -0.2700
 7976TIP3   OH245418   1.801   1.432   3.899  0.3133  0.2468 -0.0609
 7976TIP3    H145419   1.844   1.445   3.815 -0.5619 -0.7893 -0.6931
 7976TIP3    H245420   1.850   1.488   3.960  1.3943  0.4758 -1.1054
 7977TIP3   OH245421   5.808   5.777  15.255 -0.2986  0.3910  0.0534
 7977TIP3    H145422   5.784   5.862  15.290  1.9338  1.3833 -0.6222
 7977TIP3    H245423   5.800   5.786  15.161 -3.0237 -1.2042  0.0214
 7978TIP3   OH245424   6.015   0.838   0.521  0.0938 -0.6959 -0.0451
 7978TIP3    H145425   6.074   0.774   0.481  0.2509  0.7847 -2.4052
 7978TIP3    H245426   5.929   0.796   0.517  0.2600 -0.9604 -1.1600
 7979TIP3   OH245427   4.270   2.590  16.393  0.3065  0.4795 -0.3748
 7979TIP3    H145428   4.281   2.504  16.352 -2.8551 -0.0886 -0.2714
 7979TIP3    H245429   4.249   2.648  16.320  0.4238  0.7147 -0.2187
 7980TIP3   OH245430   1.962   6.208   5.659  0.1180 -0.3871  0.2784
 7980TIP3    H145431   1.935   6.289   5.703  1.6205  0.4942 -0.3377
 7980TIP3    H245432   2.009   6.160   5.727 -0.0833 -0.3723  0.4300
 7981TIP3   OH245433   3.157   5.563  11.058 -0.1761 -0.0835  0.0996
 7981TIP3    H145434   3.107   5.644  11.049  0.1985  0.2877  1.1955
 7981TIP3    H245435   3.090   5.494  11.064 -0.4872 -0.0088 -1.8299
 7982TIP3   OH245436   5.089   5.881   3.986  0.6286  0.2685  0.5145
 7982TIP3    H145437   5.027   5.824   4.032 -0.7121  0.8179 -0.5202
 7982TIP3    H245438   5.175   5.851   4.014 -0.0410 -2.0432  0.3010
 7983TIP3   OH245439   5.294   0.945  11.213 -0.5589  0.6780 -0.4270
 7983TIP3    H145440   5.369   1.003  11.225  0.7368 -0.7892 -1.0126
 7983TIP3    H245441   5.238   0.991  11.151  1.8685  0.1713 -3.2471
 7984TIP3   OH245442   3.348   0.758  16.646  0.1962  0.6130  0.8013
 7984TIP3    H145443   3.336   0.692  16.577 -1.9393 -1.1567  2.7256
 7984TIP3    H245444   3.273   0.747  16.704  0.6709  3.6333  2.1924
 7985TIP3   OH245445   2.206   1.451   1.071  0.3796 -0.2970  0.5827
 7985TIP3    H145446   2.180   1.425   1.159 -1.4181 -0.7750 -0.0580
 7985TIP3    H245447   2.151   1.399   1.013  1.3534  0.2002 -0.8312
 7986TIP3   OH245448   0.835   6.343  16.600 -0.1354  0.0677  0.1278
 7986TIP3    H145449   0.741   6.352  16.615  0.1450  2.6259  0.7485
 7986TIP3    H245450   0.873   6.337  16.688  0.5218  2.7769  0.1022
 7987TIP3   OH245451   4.232   5.992   2.100  0.0573 -0.0685  1.0072
 7987TIP3    H145452   4.181   6.048   2.043 -0.4306 -0.9671  0.5518
 7987TIP3    H245453   4.200   6.011   2.188 -0.8192 -0.3753  0.7569
 7988TIP3   OH245454   0.467   5.413  16.524 -0.0261 -0.0774  0.3772
 7988TIP3    H145455   0.502   5.368  16.447 -1.9503 -0.0724 -0.5448
 7988TIP3    H245456   0.415   5.347  16.570 -0.5594  0.4482  0.5502
 7989TIP3   OH245457   0.836   0.159  12.981 -0.0863  0.1140  0.1500
 7989TIP3    H145458   0.916   0.149  13.033  0.5111  2.4609 -0.1973
 7989TIP3    H245459   0.765   0.141  13.043  0.6650 -0.0000  1.0053
 7990TIP3   OH245460   2.702   1.991   0.768 -0.5705 -0.4795  0.0906
 7990TIP3    H145461   2.760   2.045   0.714 -0.5122  0.1739  0.7788
 7990TIP3    H245462   2.614   2.024   0.749 -0.3890  1.2751  1.9861
 7991TIP3   OH245463   5.879   0.852   5.897 -0.2414 -0.0264  0.4925
 7991TIP3    H145464   5.919   0.846   5.983  0.0615 -0.2405  0.3383
 7991TIP3    H245465   5.798   0.801   5.905  0.4154 -1.1558  0.2948
 7992TIP3   OH245466   5.334   3.416  11.459 -0.2525  0.1187 -0.3971
 7992TIP3    H145467   5.259   3.476  11.460 -1.2255 -0.9153  3.1517
 7992TIP3    H245468   5.408   3.471  11.436 -1.4814  2.1404  0.2294
 7993TIP3   OH245469   3.598   2.266  13.394  0.3347  0.3112  0.3285
 7993TIP3    H145470   3.628   2.200  13.456 -1.4856 -0.9149 -0.0152
 7993TIP3    H245471   3.645   2.247  13.313 -0.4178 -0.8052  0.1388
 7994TIP3   OH245472   3.521   3.011   6.285 -0.3610  0.8458 -0.1980
 7994TIP3    H145473   3.586   3.077   6.259  1.4322 -0.1986  1.3705
 7994TIP3    H245474   3.551   2.931   6.241 -0.7661  0.4165  0.3085
 7995TIP3   OH245475   0.847   1.607   2.649 -0.1805  0.0667 -0.2327
 7995TIP3    H145476   0.889   1.525   2.626 -1.3781 -0.8389  0.6829
 7995TIP3    H245477   0.759   1.583   2.675 -1.2104  1.8621 -1.7697
 7996TIP3   OH245478   1.493   0.842   4.436  0.1900  0.1257 -0.0756
 7996TIP3    H145479   1.459   0.803   4.355  0.1229  1.3150 -0.6361
 7996TIP3    H245480   1.418   0.841   4.496  0.5003 -1.6645  0.3368
 7997TIP3   OH245481   5.885   3.070  13.685  0.6844  0.3456  0.4399
 7997TIP3    H145482   5.890   3.058  13.780 -0.7915 -1.5932  0.3371
 7997TIP3    H245483   5.882   3.165  13.673  4.3063  0.8324  2.0484
 7998TIP3   OH245484   0.513   3.791   1.033 -0.1633 -0.2907 -0.0542
 7998TIP3    H145485   0.469   3.780   1.117  0.0540 -0.7176  0.0089
 7998TIP3    H245486   0.490   3.713   0.983 -1.1554  0.4579 -0.7972
 7999TIP3   OH245487   2.246   4.987  14.895 -0.2875  0.1615  0.8365
 7999TIP3    H145488   2.223   5.072  14.857 -0.8698  0.4297  1.7544
 7999TIP3    H245489   2.164   4.936  14.892 -0.2243  0.0269  1.2886
 8000TIP3   OH245490   1.401   0.358  13.061  0.0232 -0.3491 -0.2261
 8000TIP3    H145491   1.342   0.283  13.055  0.3741 -0.8158  1.6555
 8000TIP3    H245492   1.358   0.418  13.122  0.8301 -0.0592  0.0727
 8001TIP3   OH245493   2.188   3.789  14.565  0.2289  0.2976 -0.4974
 8001TIP3    H145494   2.175   3.788  14.660 -2.0049  2.4725 -0.6957
 8001TIP3    H245495   2.118   3.733  14.531  1.4936 -1.1180 -0.8960
 8002TIP3   OH245496   2.752   1.476  11.176  0.5374 -0.0391  0.1515
 8002TIP3    H145497   2.785   1.459  11.088  1.3701  0.7805  0.2908
 8002TIP3    H245498   2.777   1.566  11.195 -0.5509  0.1389  0.8364
 8003TIP3   OH245499   4.530   1.139  11.608  0.5481  0.9083  0.0464
 8003TIP3    H145500   4.592   1.166  11.541 -0.1276 -1.7067 -1.7906
 8003TIP3    H245501   4.444   1.163  11.573  0.1430 -1.0391 -0.3870
 8004TIP3   OH245502   0.446   3.681  15.964 -0.0312 -0.2825 -0.6164
 8004TIP3    H145503   0.384   3.667  16.035  1.1861 -0.0846  0.5243
 8004TIP3    H245504   0.407   3.751  15.912 -1.3053 -0.9458 -0.6075
 8005TIP3   OH245505   1.510   1.480  12.710 -0.7271 -1.0893 -0.1907
 8005TIP3    H145506   1.570   1.451  12.779  0.3919 -0.2121 -0.7485
 8005TIP3    H245507   1.511   1.576  12.716 -0.8276 -1.0065 -1.2373
 8006TIP3   OH245508   6.704   1.833   1.450  0.8987  0.0318  0.2911
 8006TIP3    H145509   6.611   1.812   1.460  0.8694 -1.1515 -1.9209
 8006TIP3    H245510   6.748   1.748   1.454  1.5397  0.2239 -1.6318
 8007TIP3   OH245511   1.219   6.391  14.070 -0.7989 -0.1449 -0.8041
 8007TIP3    H145512   1.222   6.478  14.031 -1.2002  0.3685  0.2795
 8007TIP3    H245513   1.133   6.357  14.046 -1.2375  0.3619  0.0115
 8008TIP3   OH245514   0.495   2.351   5.510  0.5736  0.7601 -0.5036
 8008TIP3    H145515   0.428   2.411   5.543 -0.1145  0.2156 -0.8995
 8008TIP3    H245516   0.548   2.331   5.587 -1.2353 -0.7992  0.4164
 8009TIP3   OH245517   1.447   1.170   1.131 -0.0284 -0.7284 -0.2030
 8009TIP3    H145518   1.366   1.213   1.104 -0.4693 -0.5571  1.3126
 8009TIP3    H245519   1.468   1.111   1.059 -0.3568  0.7408 -1.5492
 8010TIP3   OH245520   4.847   0.957   2.717  0.0766  0.1602 -0.0932
 8010TIP3    H145521   4.918   0.895   2.702  0.1926  0.0874  0.6905
 8010TIP3    H245522   4.792   0.951   2.639  1.4971  0.9924 -1.2030
 8011TIP3   OH245523   0.618   2.830   0.167 -0.0200 -0.0410  0.2438
 8011TIP3    H145524   0.659   2.744   0.176  0.9562  0.0762 -2.2983
 8011TIP3    H245525   0.681   2.891   0.206  1.0891 -0.1287 -1.3440
 8012TIP3   OH245526   0.617   0.909  16.598 -0.1314 -0.0379 -0.2858
 8012TIP3    H145527   0.605   0.861  16.516 -0.5442 -0.7465  0.1778
 8012TIP3    H245528   0.635   0.999  16.570  0.3569 -0.3893 -1.1632
 8013TIP3   OH245529   0.539   2.214  15.861 -0.0731 -0.1237 -0.6989
 8013TIP3    H145530   0.584   2.290  15.826  0.0363 -0.4111 -1.2022
 8013TIP3    H245531   0.498   2.244  15.942 -1.1430  0.8207 -1.5627
 8014TIP3   OH245532   4.204   1.156   6.012  0.2399  0.3513  0.1201
 8014TIP3    H145533   4.161   1.218   5.953 -0.6322 -1.3787 -1.1222
 8014TIP3    H245534   4.239   1.088   5.954  0.2207 -0.8883  1.5211
 8015TIP3   OH245535   3.154   2.463   0.881  0.7405  1.0573 -0.0566
 8015TIP3    H145536   3.144   2.407   0.957 -0.2866  2.0187  0.5451
 8015TIP3    H245537   3.247   2.456   0.858  0.3733 -2.1243 -1.0226
 8016TIP3   OH245538   0.175   6.823  11.847  0.0242 -0.0042 -0.1209
 8016TIP3    H145539   0.182   6.727  11.852 -0.3306  0.0296  2.3914
 8016TIP3    H245540   0.256   6.854  11.888  0.1201  0.7965 -0.8904
 8017TIP3   OH245541   5.434   5.156  16.905 -0.7229 -0.1564  0.0320
 8017TIP3    H145542   5.409   5.237  16.859  1.4471 -0.8014 -2.5538
 8017TIP3    H245543   5.356   5.101  16.899 -2.3671  1.7237  2.1316
 8018TIP3   OH245544   6.185   0.464   1.253  0.6116 -0.7233 -0.1174
 8018TIP3    H145545   6.147   0.467   1.340  0.2459 -0.3930 -0.2816
 8018TIP3    H245546   6.271   0.504   1.262  0.9031 -1.4242  0.2475
 8019TIP3   OH245547   6.305   5.873  11.799  0.1842 -0.1808  0.0904
 8019TIP3    H145548   6.213   5.852  11.782  0.1923 -0.1632  0.0259
 8019TIP3    H245549   6.347   5.788  11.812  0.1585 -0.1885  0.1217
 8020TIP3   OH245550   0.871   5.620  15.236 -0.0112 -0.1985 -0.1058
 8020TIP3    H145551   0.919   5.576  15.166 -0.0088  0.8906 -0.8017
 8020TIP3    H245552   0.813   5.681  15.190 -0.2380  0.3049  0.8407
 8021TIP3   OH245553   5.760   3.396  14.639  0.3588 -0.1237  0.1978
 8021TIP3    H145554   5.722   3.369  14.555 -1.4629 -2.0425  1.5509
 8021TIP3    H245555   5.692   3.450  14.680  0.9568  0.2269  0.7430
 8022TIP3   OH245556   0.425   3.455  11.314  0.1840  0.0505 -0.0011
 8022TIP3    H145557   0.472   3.439  11.232 -0.1317  0.9710 -0.3849
 8022TIP3    H245558   0.464   3.536  11.349 -0.5922  0.4174  0.0490
 8023TIP3   OH245559   2.507   0.611  11.451 -0.4472 -0.1705  0.2563
 8023TIP3    H145560   2.424   0.599  11.497 -0.6713  0.6305  0.0781
 8023TIP3    H245561   2.494   0.691  11.399 -0.2300 -1.0824 -1.2542
 8024TIP3   OH245562   1.328   0.696  15.576 -0.6504  0.8765  0.4400
 8024TIP3    H145563   1.295   0.783  15.600  2.3611  1.4699  3.1316
 8024TIP3    H245564   1.373   0.665  15.655  0.8955 -1.8707 -1.3698
 8025TIP3   OH245565   2.754   0.437   0.843  0.5186 -0.7556 -0.6874
 8025TIP3    H145566   2.688   0.455   0.911  1.5613 -0.8945  0.4040
 8025TIP3    H245567   2.830   0.489   0.869  0.4254  0.4383 -2.6573
 8026TIP3   OH245568   3.659   6.119  12.200  0.3774 -0.5978  1.0869
 8026TIP3    H145569   3.573   6.130  12.158  0.6391 -1.0872  0.4135
 8026TIP3    H245570   3.669   6.025  12.209  0.8084 -0.5363  1.2547
 8027TIP3   OH245571   1.956   2.068   1.078  0.0365 -0.4699 -0.0800
 8027TIP3    H145572   1.892   2.063   1.008  0.7536 -0.4459 -0.7602
 8027TIP3    H245573   2.031   2.017   1.046  1.0499  0.9434 -0.0883
 8028TIP3   OH245574   6.272   5.865   0.056 -0.2053  0.2258 -0.0026
 8028TIP3    H145575   6.343   5.805   0.081 -0.0739  0.5126  0.3260
 8028TIP3    H245576   6.198   5.808   0.037 -0.0164 -0.0557  0.0890
 8029TIP3   OH245577   3.193   3.663   0.205  0.1628 -0.2428  0.2214
 8029TIP3    H145578   3.209   3.656   0.111  0.8084 -2.1371  0.4141
 8029TIP3    H245579   3.126   3.730   0.214  0.8093  0.6918 -1.4957
 8030TIP3   OH245580   0.380   4.981   1.769  0.1398 -0.2600 -0.0034
 8030TIP3    H145581   0.297   4.990   1.721 -1.5068 -0.0983  2.6714
 8030TIP3    H245582   0.446   5.012   1.708 -1.6037 -1.3297 -2.6471
 8031TIP3   OH245583   1.533   4.014   3.165  0.1105  0.3632  0.3626
 8031TIP3    H145584   1.499   3.969   3.088 -1.6460  1.3902  0.4729
 8031TIP3    H245585   1.536   3.947   3.233 -0.6695 -0.0221  0.0298
 8032TIP3   OH245586   2.029   4.339   0.922 -0.0298  0.7551  0.2561
 8032TIP3    H145587   2.014   4.380   1.007 -2.0690 -0.9979  0.8153
 8032TIP3    H245588   2.038   4.246   0.941  0.4558  0.4267 -1.3773
 8033TIP3   OH245589   4.536   6.040   6.498  0.4483  0.1443  0.1525
 8033TIP3    H145590   4.505   6.025   6.587  0.8253 -0.0644  0.2527
 8033TIP3    H245591   4.469   6.000   6.442 -1.0135  2.3251  0.2241
 8034TIP3   OH245592   5.292   4.808   2.238 -0.4801 -0.1319 -0.4027
 8034TIP3    H145593   5.353   4.867   2.282  0.1442 -0.1363 -1.2266
 8034TIP3    H245594   5.348   4.754   2.181 -1.2729  0.0364 -1.3682
 8035TIP3   OH245595   1.408   1.765  12.071  0.4904 -0.8484  0.3735
 8035TIP3    H145596   1.500   1.750  12.094  0.4270  0.0935  1.3501
 8035TIP3    H245597   1.410   1.835  12.006  0.4689 -0.8038  0.4209
 8036TIP3   OH245598   3.898   3.414   4.892 -0.3179 -0.2696 -0.0622
 8036TIP3    H145599   3.924   3.351   4.959  0.5545 -1.8504 -1.7774
 8036TIP3    H245600   3.956   3.395   4.818 -0.7761  1.8543 -1.0328
 8037TIP3   OH245601   3.665   1.827  16.204 -0.8411  0.4450 -0.0615
 8037TIP3    H145602   3.663   1.775  16.124  0.8576 -0.7832  0.6261
 8037TIP3    H245603   3.744   1.797  16.249  0.5740  4.0088  0.1396
 8038TIP3   OH245604   4.039   6.559   3.950  0.1230  0.1695 -0.0382
 8038TIP3    H145605   4.090   6.563   4.031  0.5046 -2.0562 -0.1028
 8038TIP3    H245606   4.057   6.472   3.914 -1.2848  0.5012 -1.7011
 8039TIP3   OH245607   0.964   1.012   1.702 -0.0118 -0.3542  0.2501
 8039TIP3    H145608   0.915   0.936   1.730 -2.4291  1.9165  2.7751
 8039TIP3    H245609   0.912   1.049   1.630 -0.3807  0.3837  0.8822
 8040TIP3   OH245610   4.912   0.798   3.314  0.4191 -0.2353 -0.3553
 8040TIP3    H145611   4.942   0.887   3.293 -0.2990  0.3560  0.9399
 8040TIP3    H245612   4.864   0.770   3.236 -3.1465  2.3204  0.6404
 8041TIP3   OH245613   2.183   5.978  14.328 -0.0465 -0.2022 -0.1576
 8041TIP3    H145614   2.198   5.941  14.241 -0.3424  2.7110 -1.5625
 8041TIP3    H245615   2.111   6.040  14.315  0.3120  0.7496  2.0356
 8042TIP3   OH245616   6.580   1.373  15.060 -0.1954 -0.2917  0.2598
 8042TIP3    H145617   6.546   1.285  15.041 -0.0564 -0.6092  1.4354
 8042TIP3    H245618   6.654   1.358  15.119 -1.3624  0.7096  2.0669
 8043TIP3   OH245619   5.120   0.136  12.531  0.3159  0.0171  0.1946
 8043TIP3    H145620   5.189   0.112  12.470 -0.1543 -0.4025 -0.1858
 8043TIP3    H245621   5.061   0.060  12.531  0.7042 -0.3187  1.7511
 8044TIP3   OH245622   5.649   6.318  11.899  0.0980  0.1398  0.6385
 8044TIP3    H145623   5.653   6.397  11.844  1.5658  0.0140  0.5424
 8044TIP3    H245624   5.717   6.261  11.864 -1.0091 -1.2428  0.6466
 8045TIP3   OH245625   5.517   2.367   2.174 -0.0399 -0.2622 -0.4085
 8045TIP3    H145626   5.457   2.417   2.229  0.6470 -0.6309  0.7299
 8045TIP3    H245627   5.461   2.317   2.115 -0.8156 -0.0331  0.1262
 8046TIP3   OH245628   1.278   2.179  12.495  0.4069 -0.5506  0.1943
 8046TIP3    H145629   1.286   2.268  12.461 -0.4724 -1.1762 -1.7283
 8046TIP3    H245630   1.319   2.124  12.429 -0.2659 -1.7108  0.7117
 8047TIP3   OH245631   0.798   5.232  12.703  0.9923 -0.3837  0.5853
 8047TIP3    H145632   0.826   5.271  12.786 -0.7827 -1.1351  1.5996
 8047TIP3    H245633   0.817   5.138  12.713 -0.1425 -0.6347  0.5925
 8048TIP3   OH245634   0.583   1.723   2.025 -0.3653 -0.2434 -0.2892
 8048TIP3    H145635   0.508   1.663   2.021 -1.8177  1.4562  0.5607
 8048TIP3    H245636   0.551   1.800   2.071  1.0548  1.7657 -2.4089
 8049TIP3   OH245637   5.593   0.698  15.271 -0.1801  0.6978 -0.6195
 8049TIP3    H145638   5.541   0.643  15.212 -0.5696  1.6180 -1.1430
 8049TIP3    H245639   5.626   0.637  15.337 -3.3660  0.3102  0.8007
 8050TIP3   OH245640   2.942   6.176  15.527  0.2664 -0.3508 -0.6237
 8050TIP3    H145641   2.865   6.227  15.551 -0.1515 -1.4035  0.3277
 8050TIP3    H245642   2.923   6.142  15.439  0.6629  1.2950 -1.3982
 8051TIP3   OH245643   0.693   4.142   1.125 -0.0434  0.1539  0.0316
 8051TIP3    H145644   0.756   4.202   1.085 -0.4523  0.9237  0.5117
 8051TIP3    H245645   0.723   4.055   1.099  0.9598  0.5257 -0.1070
 8052TIP3   OH245646   3.982   5.994   5.597 -0.1436 -0.3502 -0.1875
 8052TIP3    H145647   3.966   6.083   5.565  1.9981 -0.0241 -0.5127
 8052TIP3    H245648   3.996   5.942   5.518  1.4992 -0.3206  0.0450
 8053TIP3   OH245649   4.191   0.791   0.608 -0.0913 -0.6930 -0.2730
 8053TIP3    H145650   4.216   0.876   0.643  1.2160 -1.6722  1.3438
 8053TIP3    H245651   4.104   0.774   0.644 -0.8599  0.4017 -1.5257
 8054TIP3   OH245652   1.757   6.115  13.081  0.2967  0.1181  0.6557
 8054TIP3    H145653   1.705   6.042  13.113 -1.9798  1.0098 -0.7231
 8054TIP3    H245654   1.735   6.188  13.139 -0.9870  0.7925 -0.6096
 8055TIP3   OH245655   3.068   1.577  11.665  0.3395  0.5937 -0.3056
 8055TIP3    H145656   3.121   1.653  11.691  3.8630 -2.8645  4.1157
 8055TIP3    H245657   2.986   1.588  11.713  0.6722  1.7062  0.0503
 8056TIP3   OH245658   2.581   0.778   3.794 -0.2649 -0.6432 -0.0874
 8056TIP3    H145659   2.500   0.809   3.835  0.9368  1.6244  0.7908
 8056TIP3    H245660   2.557   0.697   3.750 -2.7951 -0.4987  0.8744
 8057TIP3   OH245661   4.043   3.070   0.308 -0.1474  0.8446  0.4742
 8057TIP3    H145662   4.100   3.105   0.240 -0.7898  0.2673 -0.3746
 8057TIP3    H245663   4.014   2.985   0.274 -0.0987  0.3215  1.6748
 8058TIP3   OH245664   0.102   4.853  13.719  0.1315 -0.0642  0.5212
 8058TIP3    H145665   0.088   4.801  13.640 -0.3156 -0.0593  0.5958
 8058TIP3    H245666   0.069   4.940  13.696 -0.5650 -0.2212  0.9137
 8059TIP3   OH245667   0.008   0.033  16.628 -0.4709  0.0792  0.0712
 8059TIP3    H145668   0.015   0.112  16.574  0.1922  1.0388  1.5113
 8059TIP3    H245669  -0.077  -0.005  16.604  0.7452 -0.9020 -3.3862
 8060TIP3   OH245670   2.130   5.705  11.925  0.3458  0.9167 -0.5921
 8060TIP3    H145671   2.170   5.619  11.935 -1.5766 -0.0729 -0.9896
 8060TIP3    H245672   2.196   5.756  11.877  1.3129 -0.4924 -0.8298
 8061TIP3   OH245673   1.175   5.803   3.063  0.0493  0.1008 -0.0901
 8061TIP3    H145674   1.141   5.728   3.111 -0.2081  0.9598  1.1018
 8061TIP3    H245675   1.259   5.774   3.029 -0.7431 -1.2411 -1.0007
 8062TIP3   OH245676   1.025   3.442   0.601  0.6066 -0.7173  0.4039
 8062TIP3    H145677   0.976   3.495   0.539  3.1067 -0.0626 -1.1510
 8062TIP3    H245678   1.027   3.494   0.681 -1.2050 -0.8086  0.5639
 8063TIP3   OH245679   5.542   5.651   3.331  0.2369  0.5764 -0.2499
 8063TIP3    H145680   5.490   5.731   3.321 -0.5325  0.0625 -0.4233
 8063TIP3    H245681   5.493   5.584   3.285  0.1145 -0.3352  1.1354
 8064TIP3   OH245682   5.296   4.057  12.048  0.8382 -0.2260 -0.3696
 8064TIP3    H145683   5.285   4.152  12.041  0.3092 -0.3152 -0.7864
 8064TIP3    H245684   5.277   4.038  12.140 -0.0857 -0.0533 -0.5144
 8065TIP3   OH245685   4.064   4.859   1.167  0.3249  0.0966  0.2235
 8065TIP3    H145686   4.002   4.848   1.239  0.1308  0.1433  0.0640
 8065TIP3    H245687   4.107   4.773   1.159 -0.0477 -0.0714  0.0303
 8066TIP3   OH245688   1.586   5.963  13.220  0.3142  0.1209  0.1585
 8066TIP3    H145689   1.543   5.890  13.176 -1.2256 -0.0755  1.8944
 8066TIP3    H245690   1.580   5.942  13.313  2.9257  0.8086  0.5665
 8067TIP3   OH245691   4.275   1.458   2.355  0.1172  0.9828 -0.2908
 8067TIP3    H145692   4.345   1.495   2.409  0.3022  2.2774 -1.3422
 8067TIP3    H245693   4.320   1.427   2.276 -0.2984  0.3395 -0.2738
 8068TIP3   OH245694   1.002   6.191   1.874 -0.4562 -0.5427 -0.5527
 8068TIP3    H145695   0.960   6.119   1.827 -0.7612 -0.6020 -0.2020
 8068TIP3    H245696   0.951   6.199   1.955  1.8834 -2.4804  1.2688
 8069TIP3   OH245697   0.916   4.034   4.855  0.0797  0.0733 -0.5281
 8069TIP3    H145698   0.973   4.035   4.931 -0.6644  0.2804  0.0346
 8069TIP3    H245699   0.976   4.032   4.780  0.8083 -0.8486  0.0656
 8070TIP3   OH245700   2.176   4.317   1.917  0.0892  0.2499  0.4016
 8070TIP3    H145701   2.231   4.330   1.994  0.1604 -0.8156  0.5405
 8070TIP3    H245702   2.208   4.236   1.877 -0.0130  0.7273 -0.6968
 8071TIP3   OH245703   1.464   0.524  15.734 -0.5244 -0.1112 -0.1882
 8071TIP3    H145704   1.454   0.431  15.713 -0.9581 -0.4320  1.3189
 8071TIP3    H245705   1.545   0.550  15.690  0.7000 -1.7194  0.9574
 8072TIP3   OH245706   3.834   5.851   2.140  0.4541 -0.0309 -0.0208
 8072TIP3    H145707   3.797   5.786   2.199  2.0936 -1.2650 -0.2841
 8072TIP3    H245708   3.867   5.921   2.198 -1.9569  0.9929  0.2245
 8073TIP3   OH245709   3.608   0.974  11.289 -0.3162  0.1712 -0.5764
 8073TIP3    H145710   3.615   1.001  11.197 -0.9137  0.3891 -0.5625
 8073TIP3    H245711   3.666   1.034  11.336  1.5601 -1.1838 -1.0310
 8074TIP3   OH245712   2.786   4.423   3.475  0.3852 -0.2136  0.2134
 8074TIP3    H145713   2.781   4.495   3.538  2.7481 -1.2103  1.6757
 8074TIP3    H245714   2.697   4.415   3.441 -0.3696  2.1317  1.3931
 8075TIP3   OH245715   1.967   0.328   4.519 -0.1032 -0.0626 -0.2855
 8075TIP3    H145716   1.951   0.259   4.583  3.6236 -1.2261 -0.4118
 8075TIP3    H245717   1.998   0.402   4.572  1.3816 -0.4664 -0.5562
 8076TIP3   OH245718   3.710   3.183   6.633  0.1616  0.1128 -0.3897
 8076TIP3    H145719   3.693   3.090   6.649  0.8093  0.1436  0.5915
 8076TIP3    H245720   3.795   3.199   6.676  1.4035  0.5393 -2.8205
 8077TIP3   OH245721   5.240   4.820   0.463  0.1486 -0.2500  0.4521
 8077TIP3    H145722   5.241   4.916   0.468 -2.4333 -0.1491  0.4015
 8077TIP3    H245723   5.250   4.801   0.370 -1.5389  0.1047  0.1743
 8078TIP3   OH245724   2.585   4.936  16.252 -0.3439 -0.0044 -0.3150
 8078TIP3    H145725   2.649   4.877  16.292 -1.1518  0.1749  1.2939
 8078TIP3    H245726   2.504   4.885  16.249 -0.2872 -0.0507 -1.8718
 8079TIP3   OH245727   2.078   6.189  14.158 -0.3695 -0.3882  0.9597
 8079TIP3    H145728   2.161   6.141  14.152  0.6104  0.9519  2.7250
 8079TIP3    H245729   2.090   6.264  14.100  0.3893  0.6964  2.4227
 8080TIP3   OH245730   4.462   0.186  14.069 -0.9142 -0.0795 -0.6224
 8080TIP3    H145731   4.503   0.211  14.152  1.2212  0.8521 -1.8773
 8080TIP3    H245732   4.535   0.162  14.012 -2.2703 -0.1799 -2.4131
 8081TIP3   OH245733   2.242   6.573  11.951 -0.2636  0.4067 -0.0984
 8081TIP3    H145734   2.313   6.571  12.014 -0.5703 -0.4709  0.2461
 8081TIP3    H245735   2.284   6.558  11.866 -0.2430 -3.0115  0.3648
 8082TIP3   OH245736   2.632   5.458   0.066 -0.0123  0.2216  0.2599
 8082TIP3    H145737   2.603   5.481   0.155  2.1202  2.3983  0.4951
 8082TIP3    H245738   2.640   5.542   0.022  2.0827 -0.5611 -0.9590
 8083TIP3   OH245739   2.723   5.919   4.112 -0.0327 -0.5829  0.1759
 8083TIP3    H145740   2.698   5.938   4.022 -0.8601  0.2589  0.5685
 8083TIP3    H245741   2.751   5.827   4.110 -1.4335 -1.0355 -0.6644
 8084TIP3   OH245742   3.808   4.796  12.666 -0.3373 -0.4004  0.0501
 8084TIP3    H145743   3.853   4.712  12.659 -0.0572 -0.1718 -1.0518
 8084TIP3    H245744   3.839   4.833  12.748 -1.0541 -1.7028  0.9522
 8085TIP3   OH245745   2.980   1.702   0.127 -0.0800 -0.5069  0.3927
 8085TIP3    H145746   2.916   1.743   0.186  0.0349 -0.0889  0.2360
 8085TIP3    H245747   2.981   1.610   0.152 -2.2523 -0.9602 -0.9456
 8086TIP3   OH245748   1.440   1.098   4.438 -0.2293 -0.5887  0.3636
 8086TIP3    H145749   1.348   1.076   4.425 -0.9112  1.3163  1.5025
 8086TIP3    H245750   1.485   1.014   4.433 -2.1836 -1.7560  1.0094
 8087TIP3   OH245751   0.458   6.655  17.053 -0.9723  0.2953 -0.1314
 8087TIP3    H145752   0.400   6.587  17.018  0.2695 -0.5730 -0.5585
 8087TIP3    H245753   0.409   6.694  17.125 -2.2331 -0.1639 -0.7129
 8088TIP3   OH245754   2.436   1.248  16.021 -0.4007  0.0917  0.3811
 8088TIP3    H145755   2.381   1.266  16.098  0.5849  2.1427  0.6567
 8088TIP3    H245756   2.429   1.327  15.968  0.8455 -0.3537 -0.4755
 8089TIP3   OH245757   2.556   6.302  12.783  0.3659  0.2145  0.7819
 8089TIP3    H145758   2.504   6.333  12.709  1.3232 -0.1153 -0.0445
 8089TIP3    H245759   2.492   6.290  12.853 -0.6747 -0.1789 -0.2059
 8090TIP3   OH245760   3.538   0.135  11.151  0.3897  0.0115  0.3859
 8090TIP3    H145761   3.517   0.084  11.230  1.2425  0.8152  1.1694
 8090TIP3    H245762   3.633   0.147  11.155  0.5530 -0.5438 -1.1717
 8091TIP3   OH245763   0.940   6.564   2.055  0.4572 -0.0933 -0.4784
 8091TIP3    H145764   0.894   6.647   2.058  1.2925  0.3507  0.9482
 8091TIP3    H245765   0.888   6.506   2.110  1.1669  0.1905  0.5076
 8092TIP3   OH245766   3.890   5.002   2.490  0.3575  0.4166  0.3484
 8092TIP3    H145767   3.922   5.089   2.514  0.1647  0.9911 -1.3415
 8092TIP3    H245768   3.966   4.958   2.452  0.2086  0.1872  0.3110
 8093TIP3   OH245769   0.236   2.835  11.136  0.0502  0.3206 -0.0573
 8093TIP3    H145770   0.287   2.755  11.151 -0.9867 -0.5197 -0.8382
 8093TIP3    H245771   0.162   2.828  11.197  0.2443  0.9594  0.2560
 8094TIP3   OH245772   3.491   1.600   6.493  0.4053 -0.7134  0.3401
 8094TIP3    H145773   3.465   1.690   6.509  1.8104 -0.6306  2.5014
 8094TIP3    H245774   3.415   1.548   6.522 -0.8817 -0.2733 -2.0043
 8095TIP3   OH245775   4.659   5.958   1.647  0.1691  0.0329  0.0523
 8095TIP3    H145776   4.586   5.904   1.679  0.3445 -0.2409 -0.0013
 8095TIP3    H245777   4.677   5.924   1.560 -1.5007  1.9674 -1.1365
 8096TIP3   OH245778   5.862   1.442  12.954 -0.3655  0.3334  0.4481
 8096TIP3    H145779   5.872   1.524  13.003 -1.1123  1.7459 -1.6114
 8096TIP3    H245780   5.838   1.470  12.865 -0.1445 -2.1224 -0.4639
 8097TIP3   OH245781   2.209   6.218  11.252 -0.1221  0.0288 -0.0378
 8097TIP3    H145782   2.300   6.194  11.269  0.4456  1.6709 -0.6366
 8097TIP3    H245783   2.184   6.164  11.178  0.6498  0.1847 -0.4253
 8098TIP3   OH245784   5.407   0.260   6.251 -0.1123 -0.2608  0.4610
 8098TIP3    H145785   5.314   0.284   6.248  0.0896  0.4822 -0.2975
 8098TIP3    H245786   5.410   0.170   6.219 -0.3855  0.3718 -1.4908
 8099TIP3   OH245787   4.516   3.984   0.343 -0.7969  0.3048  0.1994
 8099TIP3    H145788   4.451   3.965   0.276  0.3067 -3.2463 -0.0824
 8099TIP3    H245789   4.487   3.933   0.419 -1.9432  4.1064  2.5650
 8100TIP3   OH245790   0.856   0.287  12.085 -0.1037  0.0365  0.5562
 8100TIP3    H145791   0.947   0.296  12.112 -0.3051  0.1071  1.2516
 8100TIP3    H245792   0.841   0.359  12.025  0.2492  0.1378  0.5879
 8101TIP3   OH245793   4.292   0.098   1.844  0.0342  0.2491  0.2857
 8101TIP3    H145794   4.205   0.081   1.807  0.3324 -2.2948  0.6184
 8101TIP3    H245795   4.275   0.114   1.937 -0.0018 -1.7910  0.6709
 8102TIP3   OH245796   4.876   4.581  12.304  0.1894 -0.0589  0.2180
 8102TIP3    H145797   4.903   4.663  12.262 -0.0894  0.5006  1.1190
 8102TIP3    H245798   4.918   4.582  12.389 -0.2944 -0.5740  0.4722
 8103TIP3   OH245799   0.988   0.125   1.550  0.3200  0.0834 -0.6365
 8103TIP3    H145800   1.060   0.166   1.501  0.4469  1.3957  0.5884
 8103TIP3    H245801   0.971   0.043   1.503  2.8305 -0.4452 -0.7853
 8104TIP3   OH245802   3.707   5.757  16.933  0.2277 -0.4955 -0.0004
 8104TIP3    H145803   3.750   5.829  16.888 -0.1333 -1.3180 -1.7626
 8104TIP3    H245804   3.769   5.684  16.926 -0.3849 -0.9956 -0.3528
 8105TIP3   OH245805   3.104   1.131  12.901 -0.1593  0.0385  0.0357
 8105TIP3    H145806   3.188   1.089  12.879 -1.0701 -0.7580 -2.2021
 8105TIP3    H245807   3.045   1.058  12.917 -0.8381  0.5635 -0.0605
 8106TIP3   OH245808   6.606   3.856  13.098  0.0489  0.6290  0.3210
 8106TIP3    H145809   6.580   3.768  13.128 -3.1562  1.5382  0.5086
 8106TIP3    H245810   6.646   3.841  13.013  0.5158 -1.0935  0.7902
 8107TIP3   OH245811   1.110   5.582  13.780 -0.3014 -0.0781  0.0712
 8107TIP3    H145812   1.087   5.628  13.861 -0.3897 -0.9416  0.5460
 8107TIP3    H245813   1.096   5.647  13.711 -1.0537  0.4072  0.6653
 8108TIP3   OH245814   4.496   2.721   0.950  0.2314  0.0627 -0.2621
 8108TIP3    H145815   4.478   2.767   0.867 -0.1679  0.0006 -0.2103
 8108TIP3    H245816   4.514   2.791   1.012  0.0760  0.1303 -0.2925
 8109TIP3   OH245817   0.463   1.108  15.734  0.4053 -0.4002 -0.2515
 8109TIP3    H145818   0.499   1.058  15.662 -0.5868 -1.2579 -0.1797
 8109TIP3    H245819   0.507   1.074  15.812  3.0750  1.9978 -0.5739
 8110TIP3   OH245820   6.828   5.984   4.998  0.1418 -0.0356 -0.2805
 8110TIP3    H145821   6.779   5.975   4.916 -2.3556 -0.4288  1.1431
 8110TIP3    H245822   6.840   6.079   5.007 -0.4038  0.0800 -0.6626
 8111TIP3   OH245823   3.798   6.413  15.006  0.8281 -0.0280 -0.6325
 8111TIP3    H145824   3.877   6.373  14.971 -0.1738 -0.4813 -2.5395
 8111TIP3    H245825   3.744   6.430  14.928 -1.5816 -1.1650  0.6851
 8112TIP3   OH245826   3.601   3.957   0.501  0.0168  0.0233  0.1787
 8112TIP3    H145827   3.673   3.965   0.439 -0.9113 -1.7779 -1.2165
 8112TIP3    H245828   3.631   4.006   0.578  3.1126 -1.3304  0.0152
 8113TIP3   OH245829   6.221   1.703  12.291 -0.4095  0.7641 -0.1618
 8113TIP3    H145830   6.290   1.673  12.233  0.4657 -0.8245  1.6135
 8113TIP3    H245831   6.260   1.701  12.378 -2.0504  1.8795  0.6506
 8114TIP3   OH245832   5.354   5.340   2.025  0.4934  0.0237 -0.6403
 8114TIP3    H145833   5.288   5.271   2.018 -1.7187  1.9692 -0.1205
 8114TIP3    H245834   5.402   5.320   2.106 -1.8275  0.4297  0.9249
 8115TIP3   OH245835   1.675   5.501   1.529 -0.2376 -0.5194 -0.3081
 8115TIP3    H145836   1.706   5.591   1.529  1.5304 -1.0158  2.8101
 8115TIP3    H245837   1.618   5.495   1.605  0.7679 -2.3313  0.3645
 8116TIP3   OH245838   6.118   3.495   3.226  0.8590  0.3741 -0.3902
 8116TIP3    H145839   6.029   3.463   3.244  1.0602  0.3015  0.4919
 8116TIP3    H245840   6.106   3.559   3.156 -0.1026  1.5201  0.7702
 8117TIP3   OH245841   6.354   5.168   1.543  0.3967  0.3293 -0.1880
 8117TIP3    H145842   6.288   5.169   1.613  1.0124 -1.1633  0.4558
 8117TIP3    H245843   6.389   5.079   1.545  4.4880  1.7471  1.4400
 8118TIP3   OH245844   0.984   5.577   4.440 -0.2854 -0.3208  0.0556
 8118TIP3    H145845   0.959   5.493   4.478 -1.9568  0.4871  0.8427
 8118TIP3    H245846   0.928   5.587   4.364  0.6280 -0.3549 -0.6420
 8119TIP3   OH245847   6.810   2.878  10.187 -0.1759  0.2860  0.5420
 8119TIP3    H145848   6.741   2.943  10.197 -1.6070 -0.6912 -1.9513
 8119TIP3    H245849   6.763   2.796  10.168  1.6192 -0.7842  0.4753
 8120TIP3   OH245850   1.217   1.080   5.341 -0.4178 -0.2654 -0.1842
 8120TIP3    H145851   1.183   1.166   5.316 -1.5620 -0.9210 -1.0127
 8120TIP3    H245852   1.243   1.090   5.432 -0.3985  0.9995 -0.3081
 8121TIP3   OH245853   6.441   5.440   3.464 -0.1031  0.3796 -0.2549
 8121TIP3    H145854   6.413   5.486   3.385  0.9640  0.6501 -0.5028
 8121TIP3    H245855   6.535   5.459   3.469  0.0824 -0.6756  0.3791
 8122TIP3   OH245856   4.928   4.170  12.976  0.0190  0.0526  0.1433
 8122TIP3    H145857   4.878   4.242  13.015 -0.8216 -0.3425 -0.1785
 8122TIP3    H245858   4.898   4.092  13.023 -0.3393 -0.3089 -0.6627
 8123TIP3   OH245859   6.535   2.542  14.983  0.3373  0.3950 -0.0373
 8123TIP3    H145860   6.554   2.526  15.075  2.4150 -0.3707 -0.5474
 8123TIP3    H245861   6.567   2.631  14.967  0.0742  0.4884 -0.0549
 8124TIP3   OH245862   2.475   4.588  15.282  0.0335  0.0048 -0.3442
 8124TIP3    H145863   2.485   4.519  15.216 -1.7961 -1.9696  1.2849
 8124TIP3    H245864   2.383   4.613  15.278 -0.4687 -1.0593  2.1514
 8125TIP3   OH245865   2.474   0.774   3.008  0.0818  0.3641 -0.3059
 8125TIP3    H145866   2.505   0.830   3.079  0.5171  0.1438 -0.3235
 8125TIP3    H245867   2.480   0.685   3.043  1.4007  0.1615 -1.0244
 8126TIP3   OH245868   2.469   6.086   5.307 -0.5858 -0.1212 -0.5525
 8126TIP3    H145869   2.472   6.181   5.301 -1.8051  0.0933  1.5378
 8126TIP3    H245870   2.490   6.066   5.398  3.7764 -2.1831 -1.7081
 8127TIP3   OH245871   6.297   0.303  12.559  0.0205  0.4848 -0.4390
 8127TIP3    H145872   6.243   0.233  12.595  0.2175 -0.1336 -1.3227
 8127TIP3    H245873   6.359   0.324  12.629  0.6026 -0.9156 -0.5037
 8128TIP3   OH245874   2.948   2.637  15.631 -0.0333 -0.1342 -0.2636
 8128TIP3    H145875   2.944   2.712  15.690 -2.1938 -1.5297  1.5214
 8128TIP3    H245876   3.032   2.596  15.651  0.8494  1.3503 -0.7596
 8129TIP3   OH245877   6.645   4.532  17.126 -0.5555 -0.3741 -0.5431
 8129TIP3    H145878   6.600   4.469  17.070 -2.8586  0.9897 -0.3454
 8129TIP3    H245879   6.674   4.601  17.066 -0.5946 -0.2340 -0.4015
 8130TIP3   OH245880   3.717   1.414   1.977 -0.6739 -0.1283  0.5113
 8130TIP3    H145881   3.711   1.428   2.071 -0.7425 -0.3539  0.5408
 8130TIP3    H245882   3.729   1.320   1.968  0.9169  0.0606  0.3734
 8131TIP3   OH245883   0.553   4.781  16.811  0.2959 -0.1204 -0.2443
 8131TIP3    H145884   0.554   4.790  16.906  1.8039  0.8636 -0.3117
 8131TIP3    H245885   0.646   4.774  16.787  0.2919  3.3035 -1.8901
 8132TIP3   OH245886   2.176   2.744   0.657  0.2312  0.1661 -0.3800
 8132TIP3    H145887   2.179   2.661   0.611 -1.3394  0.1874 -0.5631
 8132TIP3    H245888   2.107   2.794   0.614 -0.2131  0.7920  0.9841
 8133TIP3   OH245889   1.586   0.183   2.376 -0.4470  0.5442  0.0767
 8133TIP3    H145890   1.536   0.127   2.436  2.1351 -2.3134 -0.2208
 8133TIP3    H245891   1.552   0.161   2.289 -0.5008  0.6123  0.0805
 8134TIP3   OH245892   3.985   2.973   4.464  0.0101 -0.8101  0.8408
 8134TIP3    H145893   3.974   3.001   4.555  0.9234 -0.8552  0.9827
 8134TIP3    H245894   3.972   3.053   4.413  0.4966 -0.5634  1.0906
 8135TIP3   OH245895   0.498   3.027  12.422  0.2315 -0.0319  0.0377
 8135TIP3    H145896   0.517   2.967  12.349 -0.1876  0.8093 -0.7794
 8135TIP3    H245897   0.538   3.110  12.396  2.3745 -0.3630  1.9487
 8136TIP3   OH245898   3.739   3.393   6.161 -0.0905  0.4628 -0.0716
 8136TIP3    H145899   3.689   3.313   6.144  0.0982  0.2823  0.2119
 8136TIP3    H245900   3.770   3.384   6.251 -1.3338  1.5566  0.4928
 8137TIP3   OH245901   1.251   4.981  13.373 -0.2861  0.4487  0.2725
 8137TIP3    H145902   1.258   5.014  13.283 -0.7252 -1.1552 -0.4014
 8137TIP3    H245903   1.341   4.978  13.404 -0.0610  0.4035 -0.3637
 8138TIP3   OH245904   1.720   5.007  16.644  0.2568 -0.1007 -0.5828
 8138TIP3    H145905   1.652   4.966  16.697 -0.5234  1.3651 -0.3899
 8138TIP3    H245906   1.674   5.040  16.567  1.2411 -1.4955 -1.8304
 8139TIP3   OH245907   2.225   0.209   2.663  0.0835  0.3963 -0.1143
 8139TIP3    H145908   2.267   0.202   2.578 -0.0039  2.0926 -0.3323
 8139TIP3    H245909   2.295   0.191   2.726  0.8463  1.7958 -0.5054
 8140TIP3   OH245910   5.950   1.566   0.819 -0.0675  0.2356  0.3349
 8140TIP3    H145911   5.907   1.642   0.859 -0.6501 -0.5055  1.1437
 8140TIP3    H245912   6.044   1.580   0.835 -0.2502  0.2565  1.4330
 8141TIP3   OH245913   6.591   3.554   6.288  0.4474 -0.1995 -0.0650
 8141TIP3    H145914   6.541   3.635   6.287  0.8608  0.0547 -0.6757
 8141TIP3    H245915   6.577   3.518   6.376  1.3069  1.1824  0.6709
 8142TIP3   OH245916   2.047   6.601  14.247  0.1137  0.1291  1.0097
 8142TIP3    H145917   2.045   6.614  14.341 -1.2095  0.8343  0.9159
 8142TIP3    H245918   2.104   6.525  14.233 -0.9364 -0.9860  2.4981
 8143TIP3   OH245919   0.767   1.292  13.849 -0.5115 -0.2026 -0.4257
 8143TIP3    H145920   0.822   1.237  13.793 -0.1312 -1.3591  0.9969
 8143TIP3    H245921   0.801   1.277  13.937 -2.2612  0.0715  0.3479
 8144TIP3   OH245922   4.304   2.631  12.881 -0.6684 -0.3233 -0.0889
 8144TIP3    H145923   4.315   2.673  12.796  3.3234  1.5734  1.1295
 8144TIP3    H245924   4.237   2.683  12.925  0.0609  1.1828 -0.7009
 8145TIP3   OH245925   3.863   1.072  17.031 -0.0558 -0.1237  0.0549
 8145TIP3    H145926   3.848   1.011  17.103  0.4763  1.3534  1.4989
 8145TIP3    H245927   3.862   1.158  17.073  1.4708  0.7132 -1.5160
 8146TIP3   OH245928   1.111   5.159   0.150 -0.1136  0.2737  0.2420
 8146TIP3    H145929   1.060   5.078   0.147 -0.2023  0.3152  0.6118
 8146TIP3    H245930   1.053   5.225   0.113  0.1658  0.0648 -0.6045
 8147TIP3   OH245931   0.924   5.335  11.712 -0.1035  0.5460  0.3014
 8147TIP3    H145932   1.011   5.297  11.706 -0.2608  0.0771  0.8716
 8147TIP3    H245933   0.925   5.386  11.793 -0.3518  0.5694  0.2927
 8148TIP3   OH245934   6.694   5.774   4.239  0.4060  0.0447 -0.3784
 8148TIP3    H145935   6.614   5.731   4.209  0.8779 -0.8865 -0.3416
 8148TIP3    H245936   6.698   5.855   4.189  1.6239 -1.8444 -3.6494
 8149TIP3   OH245937   6.116   2.668  11.489  0.1412  0.1352  0.2601
 8149TIP3    H145938   6.192   2.634  11.441  0.6180 -0.3015  1.3049
 8149TIP3    H245939   6.044   2.663  11.426  1.1175  1.3202 -1.0244
 8150TIP3   OH245940   5.302   5.780   1.104 -0.1789 -0.5822  0.5813
 8150TIP3    H145941   5.270   5.691   1.092 -0.2729 -0.3721 -0.8389
 8150TIP3    H245942   5.318   5.813   1.015  0.1131  0.7252  1.0887
 8151TIP3   OH245943   1.758   1.083   5.021 -0.1396  0.2756 -0.1271
 8151TIP3    H145944   1.759   1.000   4.973 -1.3368  0.5307 -0.6359
 8151TIP3    H245945   1.797   1.146   4.960 -0.7677  0.4083 -0.3975
 8152TIP3   OH245946   2.509   4.012  15.220  0.1579  0.5445 -0.3551
 8152TIP3    H145947   2.444   3.953  15.257 -1.2461  0.2707 -3.0391
 8152TIP3    H245948   2.586   4.002  15.276 -1.5746 -0.2687  2.0134
 8153TIP3   OH245949   3.559   1.059   2.317  0.2865 -0.1554  0.2846
 8153TIP3    H145950   3.529   1.072   2.227  1.2011 -0.8639 -0.1409
 8153TIP3    H245951   3.651   1.085   2.316  0.4798 -0.7805  0.8543
 8154TIP3   OH245952   4.787   1.839   1.379 -0.3684 -0.2017 -0.1559
 8154TIP3    H145953   4.777   1.788   1.459  0.2741 -2.5017 -1.4361
 8154TIP3    H245954   4.698   1.849   1.346 -0.5798  0.2350  0.5345
 8155TIP3   OH245955   6.434   2.932  15.107  0.7990  0.1415 -0.0916
 8155TIP3    H145956   6.436   3.006  15.167 -1.4625 -0.1594  0.4529
 8155TIP3    H245957   6.447   2.855  15.163  2.5956  0.0490 -0.5786
 8156TIP3   OH245958   3.184   1.474   5.868 -0.3214 -0.5245  0.4135
 8156TIP3    H145959   3.238   1.538   5.821 -1.0775  1.2067  1.7753
 8156TIP3    H245960   3.161   1.410   5.801  0.9828  0.2693 -0.8890
 8157TIP3   OH245961   1.290   4.092   2.857 -0.0777  0.1979 -0.4293
 8157TIP3    H145962   1.296   4.174   2.907  0.6622 -0.1498  0.0639
 8157TIP3    H245963   1.233   4.037   2.910  0.3697 -0.0213 -0.1722
 8158TIP3   OH245964   3.972   0.893  16.563 -0.0181  0.0339  0.8905
 8158TIP3    H145965   4.040   0.848  16.613  0.9856  0.6091  0.0662
 8158TIP3    H245966   3.890   0.863  16.603  0.6575 -1.4782  1.2265
 8159TIP3   OH245967   3.247   5.778   5.677 -0.2918  0.0433  0.2721
 8159TIP3    H145968   3.297   5.859   5.681 -4.3731  2.7629  1.1159
 8159TIP3    H245969   3.211   5.776   5.589 -1.6354  0.1589  0.7924
 8160TIP3   OH245970   5.894   3.097  10.715  0.5711 -0.2033 -0.2791
 8160TIP3    H145971   5.895   3.028  10.649  0.1993 -1.0754  0.6098
 8160TIP3    H245972   5.905   3.178  10.664 -0.6759 -0.7649 -1.5061
 8161TIP3   OH245973   2.737   3.535  14.343  0.3954  0.3732 -0.4748
 8161TIP3    H145974   2.769   3.462  14.396  0.2610  0.6401 -0.0309
 8161TIP3    H245975   2.790   3.530  14.263 -1.1966 -1.6501 -1.4905
 8162TIP3   OH245976   5.557   3.553  13.858  0.2692 -0.6424  0.9426
 8162TIP3    H145977   5.630   3.602  13.821 -0.0126 -0.2362  0.9214
 8162TIP3    H245978   5.530   3.494  13.787  0.6366 -0.8662  0.9846
 8163TIP3   OH245979   3.639   0.291   4.073 -0.3004 -0.4780  0.1794
 8163TIP3    H145980   3.673   0.316   3.987  1.1028 -0.4777  0.7146
 8163TIP3    H245981   3.551   0.257   4.055 -0.4559  0.5397 -1.1102
 8164TIP3   OH245982   4.127   0.632   2.667  0.1032 -0.2433  0.2141
 8164TIP3    H145983   4.043   0.593   2.691  0.2044 -1.6106 -1.4875
 8164TIP3    H245984   4.190   0.589   2.724 -0.2496  0.4342  1.1574
 8165TIP3   OH245985   0.144   6.539   0.825 -0.0812  0.3809 -0.6872
 8165TIP3    H145986   0.149   6.459   0.773  1.5626  0.6790 -1.0495
 8165TIP3    H245987   0.097   6.601   0.769 -3.3194 -0.8654  0.4261
 8166TIP3   OH245988   4.693   2.652  16.322 -0.4622 -0.1623 -0.2350
 8166TIP3    H145989   4.639   2.661  16.401 -0.1927  1.5281 -0.1963
 8166TIP3    H245990   4.729   2.564  16.327 -0.8495 -0.2641  1.2808
 8167TIP3   OH245991   6.762   4.117  15.694 -0.0198 -0.3415  0.3471
 8167TIP3    H145992   6.690   4.165  15.735  0.0553 -0.3314  0.4669
 8167TIP3    H245993   6.802   4.069  15.767  1.4900  1.3526  0.6990
 8168TIP3   OH245994   2.801   2.990  16.154  0.2238  0.4012  0.3977
 8168TIP3    H145995   2.763   3.020  16.071 -0.0344  0.0504  0.3865
 8168TIP3    H245996   2.725   2.975  16.211  0.4597  2.0464  1.1889
 8169TIP3   OH245997   4.156   1.551  13.625  0.2584  0.2561 -0.0274
 8169TIP3    H145998   4.190   1.547  13.536 -1.5988 -1.3141 -0.7257
 8169TIP3    H245999   4.121   1.640  13.633  1.3882  0.7644 -0.4515
 8170TIP3   OH246000   3.808   4.768   5.666  0.0066 -0.0231 -0.2652
 8170TIP3    H146001   3.826   4.699   5.729  1.0255 -0.8687 -1.4309
 8170TIP3    H246002   3.716   4.790   5.680  0.0803 -0.5283  1.1461
 8171TIP3   OH246003   6.669   5.214   3.465  0.4156  0.7749  0.4843
 8171TIP3    H146004   6.708   5.293   3.501  0.3802  0.1166  2.0751
 8171TIP3    H246005   6.710   5.143   3.514  0.8203 -0.2494 -1.2523
 8172TIP3   OH246006   3.456   4.266  12.393  0.4972  0.1832 -0.2357
 8172TIP3    H146007   3.530   4.244  12.449  1.9127  0.3556 -1.9654
 8172TIP3    H246008   3.379   4.249  12.447  1.7767 -0.3397  1.4925
 8173TIP3   OH246009   3.975   4.340  12.311 -0.0068 -0.0555  0.6027
 8173TIP3    H146010   3.922   4.266  12.342 -0.3746 -0.0506  0.0044
 8173TIP3    H246011   4.057   4.333  12.360 -0.1378 -0.7126  0.7348
 8174TIP3   OH246012   4.546   5.682   5.495 -0.3655  0.0014  0.5700
 8174TIP3    H146013   4.639   5.705   5.499 -0.0749 -1.2215  1.9082
 8174TIP3    H246014   4.542   5.610   5.432 -0.7354  1.2588 -0.9152
 8175TIP3   OH246015   1.335   6.214   2.005  0.0205 -0.2686 -0.0940
 8175TIP3    H146016   1.322   6.160   1.927  2.3932  1.1468 -1.6182
 8175TIP3    H246017   1.317   6.303   1.975  1.8891  0.4074  0.6808
 8176TIP3   OH246018   4.023   4.126   4.513  0.2329 -0.3154 -0.4362
 8176TIP3    H146019   4.029   4.176   4.594 -1.9809  0.7148 -0.8421
 8176TIP3    H246020   3.990   4.040   4.540  1.7419 -0.7879 -0.0156
 8177TIP3   OH246021   1.055   0.133  15.829 -0.5180 -0.7165 -0.4712
 8177TIP3    H146022   1.072   0.122  15.735  0.7993 -1.6501 -0.1501
 8177TIP3    H246023   1.108   0.065  15.871 -2.0647 -1.1496  0.8866
 8178TIP3   OH246024   4.954   3.636  16.888 -0.4523 -0.4073  0.1955
 8178TIP3    H146025   5.001   3.701  16.940 -0.5490 -1.0442  1.1121
 8178TIP3    H246026   4.977   3.655  16.797 -0.8982  1.2233  0.4024
 8179TIP3   OH246027   2.359   3.230   5.796  0.0422  0.7595 -0.7209
 8179TIP3    H146028   2.388   3.148   5.835  0.1562  1.6721  1.1826
 8179TIP3    H246029   2.271   3.210   5.763 -1.0043  0.5089  2.0138
 8180TIP3   OH246030   0.343   1.433  15.341 -0.5014  0.0475 -0.4739
 8180TIP3    H146031   0.429   1.401  15.370 -0.7373 -1.2384 -1.1288
 8180TIP3    H246032   0.294   1.446  15.423  0.6099  1.7809 -0.0251
 8181TIP3   OH246033   5.704   1.215   0.860  0.2420  0.0867  0.6108
 8181TIP3    H146034   5.661   1.182   0.781  0.3227 -0.1563  0.6671
 8181TIP3    H246035   5.747   1.139   0.897  0.0940  0.1722  0.9634
 8182TIP3   OH246036   1.182   2.439   4.736 -0.1809  0.0521 -0.3221
 8182TIP3    H146037   1.111   2.398   4.785  0.2123 -1.7126 -1.1506
 8182TIP3    H246038   1.196   2.382   4.661  0.0288  2.0519 -1.8894
 8183TIP3   OH246039   4.900   4.597  12.865  0.1172  0.5834 -0.1416
 8183TIP3    H146040   4.918   4.590  12.959  0.3799  1.6375 -0.0999
 8183TIP3    H246041   4.859   4.683  12.855 -0.7852  0.0743 -0.8727
 8184TIP3   OH246042   2.817   5.338   0.987 -0.3654 -0.0755  0.0567
 8184TIP3    H146043   2.845   5.253   0.952 -0.4701 -0.2877  0.4777
 8184TIP3    H246044   2.891   5.368   1.039 -0.7296 -0.4199  0.7918
 8185TIP3   OH246045   0.077   2.866   4.398  0.1450 -0.2967  0.8137
 8185TIP3    H146046   0.022   2.854   4.321 -0.4454  0.8012  1.0442
 8185TIP3    H246047   0.149   2.804   4.386  1.1088  1.1421 -1.5755
 8186TIP3   OH246048   3.107   0.552  16.228 -0.8552  0.0784 -0.2043
 8186TIP3    H146049   3.110   0.647  16.212  0.3717 -0.1246 -1.2490
 8186TIP3    H246050   3.089   0.514  16.143 -1.0776 -0.6632  0.1682
 8187TIP3   OH246051   2.075   0.190   0.469 -0.1375  0.6052  0.1583
 8187TIP3    H146052   2.116   0.159   0.389 -0.8928 -0.4595  0.1652
 8187TIP3    H246053   2.119   0.143   0.540 -2.0117 -1.3736  0.1003
 8188TIP3   OH246054   1.109   2.506   3.830 -0.0501 -0.7240  0.2918
 8188TIP3    H146055   1.065   2.588   3.849 -0.9693 -0.9785 -0.7053
 8188TIP3    H246056   1.093   2.452   3.908 -2.2744 -1.1269 -0.3927
 8189TIP3   OH246057   2.661   6.196  12.099  0.3729 -0.0665 -0.0447
 8189TIP3    H146058   2.633   6.260  12.033  0.1975 -1.9739 -1.9388
 8189TIP3    H246059   2.754   6.215  12.112  0.4828  0.1944 -1.0591
 8190TIP3   OH246060   1.927   3.509  16.362 -0.5618 -0.4341 -0.4995
 8190TIP3    H146061   1.854   3.539  16.417  0.0146 -1.6060  0.9871
 8190TIP3    H246062   1.998   3.569  16.381 -0.6464 -0.2767 -0.6831
 8191TIP3   OH246063   2.643   3.722   5.741  0.5244  0.0057 -0.0849
 8191TIP3    H146064   2.713   3.689   5.686 -0.3896  0.4760 -1.5890
 8191TIP3    H246065   2.616   3.646   5.793  2.1376 -0.1606  0.5770
 8192TIP3   OH246066   3.564   4.568   5.287  0.0302  0.2882 -0.1178
 8192TIP3    H146067   3.650   4.594   5.321  0.3355 -1.3727  0.4678
 8192TIP3    H246068   3.503   4.592   5.357 -0.0018  1.4708 -0.5339
 8193TIP3   OH246069   1.999   5.704   0.766 -0.7361  0.5285  0.2411
 8193TIP3    H146070   2.087   5.699   0.803 -0.0526  0.7909 -1.2750
 8193TIP3    H246071   1.945   5.654   0.827  0.5506 -0.1212  0.9008
 8194TIP3   OH246072   5.841   4.473  14.256 -0.1471  0.3115 -0.5053
 8194TIP3    H146073   5.877   4.391  14.222 -0.1479  0.5115 -1.0014
 8194TIP3    H246074   5.914   4.534  14.254 -0.2033  0.3839 -0.3478
 8195TIP3   OH246075   6.204   3.553  12.418  0.4385  0.0017  0.3855
 8195TIP3    H146076   6.266   3.511  12.477 -0.5368  1.2969  2.4401
 8195TIP3    H246077   6.120   3.551  12.464 -0.3579  1.1561 -0.8999
 8196TIP3   OH246078   6.169   0.524  16.441 -0.3774 -1.0501 -0.1160
 8196TIP3    H146079   6.154   0.556  16.352  2.6143  2.3501  0.3447
 8196TIP3    H246080   6.097   0.562  16.492 -0.9070 -1.1768 -0.7604
 8197TIP3   OH246081   1.381   4.416   3.952  0.5244  0.1159  0.1279
 8197TIP3    H146082   1.375   4.469   3.873 -0.9426 -0.6703 -0.3073
 8197TIP3    H246083   1.354   4.474   4.023 -1.4066 -0.0892 -0.3890
 8198TIP3   OH246084   1.589   6.396   0.682  0.4408 -0.6794  0.0465
 8198TIP3    H146085   1.671   6.364   0.645  0.4679 -0.6328  0.0654
 8198TIP3    H246086   1.565   6.331   0.749  0.4053 -0.7500 -0.0342
 8199TIP3   OH246087   1.475   6.826   3.528  0.0162 -0.2955 -0.0182
 8199TIP3    H146088   1.545   6.883   3.561 -1.4242  1.2198  0.6153
 8199TIP3    H246089   1.446   6.777   3.605 -0.7289  0.3530  0.1329
 8200TIP3   OH246090   0.985   1.254   2.816 -0.0343 -0.5648  0.3006
 8200TIP3    H146091   0.977   1.316   2.744  0.7103 -0.4798  0.2914
 8200TIP3    H246092   0.969   1.169   2.776  1.2312 -0.6063 -0.1453
 8201TIP3   OH246093   5.805   3.453  15.183  0.0096 -0.9145  0.2367
 8201TIP3    H146094   5.899   3.471  15.173  0.1640 -0.9736  1.4359
 8201TIP3    H246095   5.784   3.398  15.107  0.9174 -0.8259 -0.1022
 8202TIP3   OH246096   4.022   6.838  10.728 -0.2724 -0.4494  0.1109
 8202TIP3    H146097   4.023   6.826  10.823  2.1100 -0.8629  0.0972
 8202TIP3    H246098   4.065   6.760  10.694  0.8973  0.6920 -1.1316
 8203TIP3   OH246099   1.399   2.004  10.906  0.0258  0.4260 -0.2712
 8203TIP3    H146100   1.430   1.938  10.968  1.3941  1.8273  0.6247
 8203TIP3    H246101   1.329   2.050  10.953 -0.5922 -0.0524 -0.7089
 8204TIP3   OH246102   6.449   2.645   0.901  0.0536 -0.5281 -0.8138
 8204TIP3    H146103   6.373   2.698   0.924  0.2021 -0.6585  0.0194
 8204TIP3    H246104   6.495   2.697   0.835  0.3784  0.5615  0.2329
 8205TIP3   OH246105   4.011   6.238   2.053  0.0572  0.0586 -0.0039
 8205TIP3    H146106   4.073   6.297   2.095  1.4720  0.6015 -2.6306
 8205TIP3    H246107   3.980   6.287   1.977  0.3817 -2.1260 -1.6276
 8206TIP3   OH246108   2.723   4.877   3.278 -0.5489  0.0702 -0.0646
 8206TIP3    H146109   2.771   4.859   3.360 -0.1631  0.1638 -0.2664
 8206TIP3    H246110   2.762   4.818   3.214 -0.2367  0.6217 -0.3938
 8207TIP3   OH246111   2.609   1.532   3.239  0.0048  0.3051  0.0412
 8207TIP3    H146112   2.680   1.469   3.229  1.0457  1.4138  0.2699
 8207TIP3    H246113   2.551   1.516   3.165  1.0424  0.0856 -0.7355
 8208TIP3   OH246114   2.348   6.086   3.828 -0.4625 -0.0750  0.2648
 8208TIP3    H146115   2.393   6.040   3.899 -1.8003 -1.9781 -0.0103
 8208TIP3    H246116   2.399   6.067   3.750  0.2505  0.8630  0.4923
 8209TIP3   OH246117   5.886   2.682   4.996  0.1799  0.0139  0.2874
 8209TIP3    H146118   5.879   2.588   4.981 -1.1834 -0.2143  2.0073
 8209TIP3    H246119   5.980   2.701   4.993  0.5916 -1.6753  1.3734
 8210TIP3   OH246120   2.410   1.055  16.553  0.0499  0.1615 -0.0468
 8210TIP3    H146121   2.327   1.050  16.505 -0.6512  0.8998  1.0540
 8210TIP3    H246122   2.475   1.026  16.490 -0.5780  2.8576 -2.1036
 8211TIP3   OH246123   6.772   3.302  11.578  0.0372  0.2946  0.1926
 8211TIP3    H146124   6.775   3.286  11.484 -0.2300  0.0295  0.2268
 8211TIP3    H246125   6.739   3.392  11.586  1.1387  0.7270  0.0117
 8212TIP3   OH246126   6.353   0.674  14.752 -0.2468  0.3303  0.0958
 8212TIP3    H146127   6.401   0.635  14.679 -1.3040 -0.2413 -0.3213
 8212TIP3    H246128   6.416   0.732  14.794  0.5157  0.3322 -1.0055
 8213TIP3   OH246129   6.229   0.960   5.712  0.1868 -0.0124 -0.1006
 8213TIP3    H146130   6.205   0.890   5.772  2.6015 -2.2704 -1.5386
 8213TIP3    H246131   6.318   0.984   5.738  1.0550 -0.6063 -2.2777
 8214TIP3   OH246132   2.640   0.603   3.336 -0.2695  0.1962  0.2488
 8214TIP3    H146133   2.724   0.643   3.311  0.2188 -0.4241  0.8338
 8214TIP3    H246134   2.608   0.564   3.254  0.4884 -0.3637  0.1938
 8215TIP3   OH246135   1.643   1.260  15.930 -0.2485 -0.3694  0.4804
 8215TIP3    H146136   1.627   1.345  15.972 -0.3861 -0.2531  0.2011
 8215TIP3    H246137   1.618   1.275  15.839  0.8995 -0.3528  0.1577
 8216TIP3   OH246138   1.613   3.071   1.186  0.1220  0.0984  0.5405
 8216TIP3    H146139   1.616   3.144   1.247 -0.6408 -0.3196  1.1033
 8216TIP3    H246140   1.572   3.000   1.236 -0.0232 -0.4161 -0.2911
 8217TIP3   OH246141   5.558   3.711  15.000  0.2877 -0.3254 -0.3347
 8217TIP3    H146142   5.530   3.796  14.966  0.4208 -0.6719 -1.3712
 8217TIP3    H246143   5.638   3.730  15.049  0.4094  0.1311 -0.6988
 8218TIP3   OH246144   3.384   5.731   3.897 -0.6478 -0.6649 -0.3466
 8218TIP3    H146145   3.352   5.725   3.807 -0.7176 -1.1280 -0.2944
 8218TIP3    H246146   3.453   5.665   3.903  0.6826  0.6533 -0.5954
 8219TIP3   OH246147   6.327   2.338  12.384 -0.0598 -0.6725 -0.7155
 8219TIP3    H146148   6.235   2.328  12.358 -0.4406  0.5747  0.0516
 8219TIP3    H246149   6.325   2.339  12.480  0.4806  1.2827 -0.6700
 8220TIP3   OH246150   4.609   1.344  13.745 -0.0346  0.3632  0.0537
 8220TIP3    H146151   4.649   1.394  13.816  0.9039 -0.8959  0.4553
 8220TIP3    H246152   4.539   1.400  13.712 -1.0090  0.6683  2.4689
 8221TIP3   OH246153   4.326   2.833  14.496  0.1999  0.6205 -0.0373
 8221TIP3    H146154   4.335   2.753  14.548  1.7213  0.3208 -0.6926
 8221TIP3    H246155   4.249   2.876  14.532 -0.5875 -1.0731  0.4177
 8222TIP3   OH246156   3.332   6.057  14.193 -0.3803  0.0696 -0.7868
 8222TIP3    H146157   3.269   6.011  14.248 -0.4537  0.6052 -0.4188
 8222TIP3    H246158   3.285   6.073  14.111 -0.4382 -0.2817 -0.8227
 8223TIP3   OH246159   1.473   5.322  15.702  0.2422  0.4447 -0.2834
 8223TIP3    H146160   1.479   5.323  15.606  0.5019 -1.1402 -0.3067
 8223TIP3    H246161   1.401   5.382  15.722 -1.8400 -1.4158 -1.6935
 8224TIP3   OH246162   0.818   4.728   6.164 -0.3514  0.3119  0.0283
 8224TIP3    H146163   0.822   4.632   6.159 -0.3986  0.3084  0.0494
 8224TIP3    H246164   0.788   4.746   6.253  1.0756  0.3962  0.5185
 8225TIP3   OH246165   1.694   3.391  13.143  0.0587  0.0740 -0.4520
 8225TIP3    H146166   1.692   3.450  13.219 -1.6912  0.6167 -0.8685
 8225TIP3    H246167   1.644   3.314  13.170  1.1097 -0.6022 -0.4003
 8226TIP3   OH246168   2.231   5.885   4.772  0.3407 -0.0941  0.0961
 8226TIP3    H146169   2.205   5.904   4.681  0.1683  0.6854  0.2962
 8226TIP3    H246170   2.184   5.950   4.824  2.2847  1.0872  0.5225
 8227TIP3   OH246171   3.553   6.674   4.407 -0.8997 -0.5165 -0.3567
 8227TIP3    H146172   3.565   6.590   4.362 -0.6668  0.1373 -1.5416
 8227TIP3    H246173   3.597   6.738   4.351 -0.3763  0.2902  0.9472
 8228TIP3   OH246174   4.401   1.910   4.448 -0.1583  0.3775  0.0451
 8228TIP3    H146175   4.465   1.940   4.385 -1.1814 -0.6740 -1.5590
 8228TIP3    H246176   4.415   1.815   4.455 -0.9396  0.2682  0.3407
 8229TIP3   OH246177   3.104   1.593  13.871  0.2331 -0.5019 -0.2343
 8229TIP3    H146178   3.009   1.586  13.856  0.0729 -0.6493  0.8071
 8229TIP3    H246179   3.118   1.685  13.893  0.2327 -0.6167  0.2530
 8230TIP3   OH246180   2.414   2.755   1.178  0.1229  0.3470 -0.1710
 8230TIP3    H146181   2.333   2.716   1.144  0.4507  1.0826 -1.9180
 8230TIP3    H246182   2.385   2.832   1.227 -0.2449  0.5473 -0.6990
 8231TIP3   OH246183   1.023   3.007   0.728 -0.0047  0.0580  0.3852
 8231TIP3    H146184   1.072   3.052   0.797  2.0898  0.7889 -1.4254
 8231TIP3    H246185   1.018   3.071   0.657 -0.1597 -1.3642 -0.9447
 8232TIP3   OH246186   2.020   0.374  16.569 -0.1297 -0.1777  0.4757
 8232TIP3    H146187   2.070   0.388  16.650  0.2080  1.1148  0.0737
 8232TIP3    H246188   2.002   0.463  16.537 -1.1600 -0.6619 -0.3218
 8233TIP3   OH246189   4.293   3.612   4.400  0.1230 -0.1546  0.3917
 8233TIP3    H146190   4.262   3.703   4.390  1.1403  0.0315 -1.6043
 8233TIP3    H246191   4.213   3.561   4.412 -0.8009  0.6637 -1.6845
 8234TIP3   OH246192   1.743   3.452  12.886 -0.3380  0.3689  0.1715
 8234TIP3    H146193   1.839   3.456  12.894 -0.4125  0.1064  1.3091
 8234TIP3    H246194   1.713   3.419  12.970 -1.5011  1.2782  0.1448
 8235TIP3   OH246195   4.432   5.348  12.774 -0.2041 -0.0970 -0.5315
 8235TIP3    H146196   4.492   5.416  12.743 -0.1796  0.8471  1.4609
 8235TIP3    H246197   4.488   5.274  12.794 -0.0315 -0.1298 -1.1066
 8236TIP3   OH246198   1.727   2.572  13.844 -0.0541 -0.1043 -0.3862
 8236TIP3    H146199   1.723   2.634  13.771  0.0496  0.4286  0.0558
 8236TIP3    H246200   1.664   2.504  13.821  0.3924 -0.2344 -1.2401
 8237TIP3   OH246201   2.874   4.156  13.249  0.0441 -0.9162  0.2707
 8237TIP3    H146202   2.804   4.153  13.314  0.9571 -0.4937  1.2883
 8237TIP3    H246203   2.952   4.182  13.297  0.7813 -0.7198 -0.9659
 8238TIP3   OH246204   0.325   5.807   1.955  0.3446  0.4101 -0.1164
 8238TIP3    H146205   0.355   5.794   2.045 -2.0024  1.4745  0.9009
 8238TIP3    H246206   0.296   5.720   1.927  2.1213 -0.1647 -0.3265
 8239TIP3   OH246207   4.880   1.955  12.738 -0.2603  0.2564 -0.0200
 8239TIP3    H146208   4.947   1.889  12.758 -1.3248 -1.1127 -0.7964
 8239TIP3    H246209   4.798   1.915  12.767 -0.8506  1.6116  0.2497
 8240TIP3   OH246210   2.425   6.096   5.017  0.1666 -0.1545 -0.2619
 8240TIP3    H146211   2.344   6.081   5.065 -0.1114  1.3215 -0.2084
 8240TIP3    H246212   2.492   6.048   5.066 -0.7334 -1.8675 -0.6285
 8241TIP3   OH246213   4.384   2.319  15.016  0.1716  0.1589 -0.1769
 8241TIP3    H146214   4.363   2.294  14.926  0.1294 -1.4061  0.2389
 8241TIP3    H246215   4.418   2.408  15.009  0.5656 -0.0884 -1.7927
 8242TIP3   OH246216   1.116   5.902  12.937 -0.0191 -0.0280  0.3461
 8242TIP3    H146217   1.056   5.843  12.984 -0.0262  0.5512  1.0747
 8242TIP3    H246218   1.161   5.845  12.874  0.6443 -0.9977  1.6570
 8243TIP3   OH246219   1.381   1.638   3.221  0.0737 -0.9289 -0.1262
 8243TIP3    H146220   1.366   1.666   3.131 -2.4264 -1.8568 -0.0836
 8243TIP3    H246221   1.331   1.701   3.274  0.1603 -1.3609  0.4742
 8244TIP3   OH246222   1.352   2.001   0.696 -0.3385  0.8022  0.0169
 8244TIP3    H146223   1.377   1.976   0.785  1.2280  0.4461 -0.5024
 8244TIP3    H246224   1.338   1.918   0.650 -0.6583  0.9763 -0.2069
 8245TIP3   OH246225   5.638   0.554  13.375 -0.0639 -0.3575  0.2204
 8245TIP3    H146226   5.583   0.523  13.446  0.5943 -0.1178  0.8500
 8245TIP3    H246227   5.579   0.561  13.300 -0.7885 -0.5169  0.7621
 8246TIP3   OH246228   6.505   0.059   6.054  0.2729 -0.4731 -0.5176
 8246TIP3    H146229   6.499  -0.036   6.061 -1.8495 -0.3512 -0.0206
 8246TIP3    H246230   6.488   0.078   5.962 -0.8992 -0.5145 -0.3243
 8247TIP3   OH246231   2.019   1.558   4.577 -0.2467  0.9124  0.0355
 8247TIP3    H146232   1.955   1.616   4.618 -0.7612  0.6236 -0.3408
 8247TIP3    H246233   2.019   1.583   4.485 -0.6507  0.1791 -0.1782
 8248TIP3   OH246234   5.470   5.943   2.203 -0.4511  0.2052  0.2094
 8248TIP3    H146235   5.543   5.987   2.246  0.4385 -0.7028 -0.3474
 8248TIP3    H246236   5.437   5.882   2.269  0.1724 -0.3569  0.0110
 8249TIP3   OH246237   1.056   1.097   2.446  0.1523 -0.2205  0.3988
 8249TIP3    H146238   1.056   1.192   2.443 -2.3955 -0.1592  0.3307
 8249TIP3    H246239   1.046   1.069   2.355  0.1496 -0.5150  0.4865
 8250TIP3   OH246240   1.887   0.889  13.666 -0.2967  0.1058 -0.0012
 8250TIP3    H146241   1.797   0.857  13.670  0.3941 -1.9424  0.4342
 8250TIP3    H246242   1.926   0.864  13.750  1.1037 -0.4911 -0.7875
 8251TIP3   OH246243   0.047   6.169  12.374  0.4965 -0.2689  0.0985
 8251TIP3    H146244   0.055   6.115  12.295 -0.5940  0.7792 -0.7759
 8251TIP3    H246245   0.103   6.127  12.438 -0.0408 -2.2311 -0.6516
 8252TIP3   OH246246   2.053   4.485   1.425  0.3113  0.0881  0.2381
 8252TIP3    H146247   2.086   4.575   1.420  0.6875 -0.0883 -0.5530
 8252TIP3    H246248   1.958   4.494   1.414  0.0845  0.5581  2.1244
 8253TIP3   OH246249   3.382   2.027  11.844 -0.5528  0.3483  0.4986
 8253TIP3    H146250   3.430   2.036  11.926  0.0992 -1.3021  0.3325
 8253TIP3    H246251   3.419   2.094  11.787  2.5158 -1.6084 -0.0354
 8254TIP3   OH246252   6.277   5.177   4.391  0.0777 -0.2557  0.0262
 8254TIP3    H146253   6.314   5.229   4.462 -3.2690  0.4652  1.4612
 8254TIP3    H246254   6.193   5.146   4.426 -2.2576  0.9392 -3.8410
 8255TIP3   OH246255   2.023   1.905  15.287 -0.0693  0.1862  0.9375
 8255TIP3    H146256   2.008   1.858  15.206 -0.6641 -1.5704  2.0289
 8255TIP3    H246257   1.972   1.858  15.353  2.1610  0.1781  2.7765
 8256TIP3   OH246258   2.470   5.982   2.700  0.1604  0.4540  0.4542
 8256TIP3    H146259   2.488   6.074   2.682 -2.2810  1.1212  1.0381
 8256TIP3    H246260   2.443   5.945   2.616  0.6775  0.3807  0.3171
 8257TIP3   OH246261   0.201   0.807   3.197  0.3205 -0.2525  0.6893
 8257TIP3    H146262   0.178   0.781   3.108 -0.9807 -0.1582  0.9772
 8257TIP3    H246263   0.291   0.777   3.208  0.9586  0.8446 -1.0702
 8258TIP3   OH246264   2.691   2.736  14.211 -0.5542  0.3009 -0.0768
 8258TIP3    H146265   2.725   2.732  14.300  0.5978 -0.7416 -0.5370
 8258TIP3    H246266   2.646   2.821  14.207  2.0059  1.8096  0.5943
 8259TIP3   OH246267   2.195   3.643  17.160 -0.5395 -0.4356  0.3468
 8259TIP3    H146268   2.225   3.615  17.246 -0.5851 -0.7260  0.2692
 8259TIP3    H246269   2.255   3.713  17.134 -0.6170 -0.2446  0.6785
 8260TIP3   OH246270   2.693   1.027  14.207  0.9984  0.3612 -0.0811
 8260TIP3    H146271   2.740   0.948  14.183 -3.1422 -2.2864 -0.4384
 8260TIP3    H246272   2.698   1.083  14.130  1.6059 -0.8327 -0.9315
 8261TIP3   OH246273   4.610   5.141  12.771 -0.0768 -0.0635  0.5675
 8261TIP3    H146274   4.658   5.156  12.690 -0.6669 -1.8258 -0.1540
 8261TIP3    H246275   4.678   5.132  12.838  0.4183  1.2129  0.2556
 8262TIP3   OH246276   3.315   1.397  16.858  0.0673  0.2434 -0.4126
 8262TIP3    H146277   3.359   1.481  16.845  1.3004 -0.3087  0.1186
 8262TIP3    H246278   3.376   1.332  16.823 -0.5690 -0.4949 -0.1724
 8263TIP3   OH246279   4.096   3.925   0.327 -0.1774 -0.0548  0.3236
 8263TIP3    H146280   4.166   3.885   0.275  0.2992  0.6931  0.3827
 8263TIP3    H246281   4.106   3.886   0.413  0.9101  0.8922  0.6506
 8264TIP3   OH246282   2.173   1.947  11.234  0.0857  0.2071  0.6451
 8264TIP3    H146283   2.223   1.931  11.153 -1.0458  0.5594 -0.1491
 8264TIP3    H246284   2.135   1.862  11.256 -2.4801  0.7376 -1.2193
 8265TIP3   OH246285   4.444   1.048  16.562 -0.1074  0.2219  0.2955
 8265TIP3    H146286   4.408   1.048  16.651  1.3586  0.4662  0.9112
 8265TIP3    H246287   4.433   0.958  16.532 -0.6947  0.1562  0.6912
 8266TIP3   OH246288   0.464   4.654  13.282 -0.3819  0.5493  0.0081
 8266TIP3    H146289   0.533   4.720  13.288 -0.9141  1.4889 -2.7483
 8266TIP3    H246290   0.505   4.580  13.237 -0.1918 -0.4476  1.7582
 8267TIP3   OH246291   5.149   0.616  13.320  0.6051  0.3554  0.2408
 8267TIP3    H146292   5.228   0.592  13.273 -0.0811  0.2781 -0.9125
 8267TIP3    H246293   5.100   0.534  13.327  0.5505  0.4289  0.8272
 8268TIP3   OH246294   4.435   4.931  11.768  0.1719  0.0569  0.1861
 8268TIP3    H146295   4.394   5.017  11.765  1.4038  0.6738  0.5688
 8268TIP3    H246296   4.505   4.939  11.833 -0.2562 -1.4863  0.8784
 8269TIP3   OH246297   5.532   0.979   1.043  0.7205  0.7143  0.2554
 8269TIP3    H146298   5.598   1.002   1.109  0.8889  1.1016 -0.0460
 8269TIP3    H246299   5.539   1.048   0.978 -0.5902  1.2444  0.6583
 8270TIP3   OH246300   4.167   3.000   1.849  0.0413  0.0269  0.2055
 8270TIP3    H146301   4.144   3.057   1.923 -1.6096  0.3958 -0.5557
 8270TIP3    H246302   4.107   2.926   1.857  0.9472 -0.7373  0.1363
 8271TIP3   OH246303   3.539   2.439  15.460  0.1579  0.0668  0.3964
 8271TIP3    H146304   3.628   2.414  15.482  0.7997  0.7206 -1.3231
 8271TIP3    H246305   3.501   2.468  15.543  1.1765 -1.2045  1.3515
 8272TIP3   OH246306   3.896   5.331   1.144  0.1887 -0.0682 -0.3795
 8272TIP3    H146307   3.801   5.330   1.129  0.4286 -0.4715 -2.0437
 8272TIP3    H246308   3.927   5.250   1.105  1.0726 -0.6783  1.4711
 8273TIP3   OH246309   2.909   4.007  13.833 -0.5622 -0.3992 -0.3872
 8273TIP3    H146310   2.825   3.985  13.792 -0.9081 -1.7561  0.9578
 8273TIP3    H246311   2.973   4.000  13.762 -1.6826  1.9480 -1.7588
 8274TIP3   OH246312   4.054   0.288  12.572  0.3216 -0.0465  0.1219
 8274TIP3    H146313   4.048   0.214  12.512  1.5888 -1.3925  1.5960
 8274TIP3    H246314   4.035   0.252  12.658 -0.7167  1.6962  0.6851
 8275TIP3   OH246315   4.093   0.919   4.650  0.3275  0.2275  0.2649
 8275TIP3    H146316   4.031   0.854   4.616 -0.7080 -0.0925  2.5574
 8275TIP3    H246317   4.065   1.002   4.611 -1.1650 -0.0337  0.7123
 8276TIP3   OH246318   2.643   2.216  16.327 -0.1031  0.0954 -0.0644
 8276TIP3    H146319   2.660   2.272  16.403  0.4370 -0.5303  0.2825
 8276TIP3    H246320   2.631   2.129  16.363 -0.7999 -0.0484 -0.6192
 8277TIP3   OH246321   3.494   0.663   2.331 -0.4711 -0.0334  0.3163
 8277TIP3    H146322   3.406   0.694   2.307  0.4685 -0.1864 -4.2565
 8277TIP3    H246323   3.493   0.569   2.311  0.2344 -0.4561  2.1029
 8278TIP3   OH246324   2.498   2.366  13.516  0.5756 -0.1011 -1.0377
 8278TIP3    H146325   2.490   2.271  13.517  0.6282 -0.1137  0.3283
 8278TIP3    H246326   2.580   2.383  13.470  1.3925 -0.8041  0.1274
 8279TIP3   OH246327   6.165   5.862  14.072 -0.1400 -0.6613  0.1578
 8279TIP3    H146328   6.109   5.812  14.131 -1.5079  1.0233  0.3603
 8279TIP3    H246329   6.112   5.873  13.993 -0.8889  2.4140  0.9712
 8280TIP3   OH246330   4.012   2.988  15.724  0.3710  0.3783 -0.1745
 8280TIP3    H146331   3.973   2.955  15.805 -0.0407  0.9655 -0.1291
 8280TIP3    H246332   4.089   3.038  15.752  0.0013  0.9209 -0.1073
 8281TIP3   OH246333   4.265   3.823   5.438  0.5646 -0.4536 -0.3791
 8281TIP3    H146334   4.170   3.822   5.451  0.4907  0.5584 -0.7812
 8281TIP3    H246335   4.291   3.731   5.449 -0.5677 -0.8790 -1.0669
 8282TIP3   OH246336   0.297   5.148  10.544 -0.3789  0.1376 -0.4390
 8282TIP3    H146337   0.392   5.144  10.528  0.0044  1.2524  1.2679
 8282TIP3    H246338   0.268   5.226  10.497 -0.1544  0.6380  0.2337
 8283TIP3   OH246339   2.250   6.112  16.199  0.1049  0.8590  0.3040
 8283TIP3    H146340   2.197   6.048  16.152 -1.6682  1.8143  0.9122
 8283TIP3    H246341   2.338   6.101  16.164 -0.8247  0.4314 -2.0905
 8284TIP3   OH246342   6.398   2.951  14.210  0.1383  0.1902  0.5497
 8284TIP3    H146343   6.386   2.878  14.150  0.3321 -0.4221  1.2404
 8284TIP3    H246344   6.478   2.930  14.257  2.1119  2.4746 -1.5296
 8285TIP3   OH246345   6.198   4.785  16.495  0.0253  0.5741  0.4927
 8285TIP3    H146346   6.235   4.757  16.411  0.5597 -0.6908  1.1196
 8285TIP3    H246347   6.140   4.858  16.473 -0.6256 -0.3828 -1.1174
 8286TIP3   OH246348   0.367   0.161  14.305 -0.5250 -0.1995  0.1198
 8286TIP3    H146349   0.383   0.233  14.365 -1.2550 -1.4058  1.8703
 8286TIP3    H246350   0.333   0.202  14.226 -1.8420  1.3278  1.4070
 8287TIP3   OH246351   4.929   0.372   3.924 -0.3242 -0.1254 -0.0619
 8287TIP3    H146352   4.967   0.438   3.866  0.0871  0.0907  0.4513
 8287TIP3    H246353   5.004   0.334   3.969 -0.4624 -1.5766 -0.9868
 8288TIP3   OH246354   2.020   3.465   2.969  0.6018  0.5273 -0.3984
 8288TIP3    H146355   2.075   3.469   3.047 -0.3828 -0.6257  0.3775
 8288TIP3    H246356   2.073   3.507   2.901  2.2953 -0.2082  0.4015
 8289TIP3   OH246357   3.928   1.391   3.313 -0.0106 -0.7565 -0.2740
 8289TIP3    H146358   3.857   1.445   3.280  0.3877 -0.2037 -0.2488
 8289TIP3    H246359   4.004   1.449   3.314  0.2319 -1.0614  0.5956
 8290TIP3   OH246360   6.794   1.143  13.428 -0.0324 -0.4733 -0.0522
 8290TIP3    H146361   6.888   1.162  13.439  0.1021 -0.0729 -1.5914
 8290TIP3    H246362   6.765   1.113  13.513  0.7853  2.4567  1.4032
 8291TIP3   OH246363   0.750   4.412  13.427 -0.1057 -0.1733  0.1869
 8291TIP3    H146364   0.752   4.409  13.523 -0.3229  0.9256  0.2349
 8291TIP3    H246365   0.792   4.494  13.404 -0.2686 -0.3150 -0.6554
 8292TIP3   OH246366   2.336   5.580  15.060 -0.0170 -0.8003 -0.1682
 8292TIP3    H146367   2.273   5.509  15.048  0.7389 -1.4403 -0.3606
 8292TIP3    H246368   2.284   5.652  15.096 -0.8451 -1.3431 -0.2652
 8293TIP3   OH246369   4.469   4.983   6.630 -0.1785 -0.0104 -0.1368
 8293TIP3    H146370   4.402   4.924   6.595 -0.3285  0.1480 -0.1181
 8293TIP3    H246371   4.548   4.929   6.634  0.2081  0.3343 -2.0366
 8294TIP3   OH246372   5.740   6.075  13.008 -0.0494  0.5417 -0.4370
 8294TIP3    H146373   5.827   6.089  12.972  0.0691  0.3894 -0.2097
 8294TIP3    H246374   5.681   6.121  12.947  0.0086 -0.8745 -1.6123
 8295TIP3   OH246375   3.993   3.500  11.894  0.4097  0.0656  0.6285
 8295TIP3    H146376   3.898   3.506  11.884  0.5352  0.4510 -0.6151
 8295TIP3    H246377   4.018   3.585  11.930  0.2754 -0.0869  1.0875
 8296TIP3   OH246378   3.485   6.083   1.565 -0.3960  0.0927  0.1534
 8296TIP3    H146379   3.433   6.004   1.552 -1.8849  0.9814  0.4384
 8296TIP3    H246380   3.562   6.053   1.613 -0.8333 -1.2131  0.0827
 8297TIP3   OH246381   5.450   3.873   0.614  0.0765 -0.5848  0.0660
 8297TIP3    H146382   5.427   3.964   0.635  0.3105 -0.5225  0.0675
 8297TIP3    H246383   5.371   3.836   0.576 -0.9141 -1.1900  2.5411
 8298TIP3   OH246384   2.033   3.304   3.319 -0.3230  0.1103  0.5741
 8298TIP3    H146385   2.109   3.297   3.261 -0.4441 -0.4499  0.4740
 8298TIP3    H246386   1.978   3.230   3.294 -1.4612  1.1550 -0.1471
 8299TIP3   OH246387   1.617   3.283   2.340 -0.8727 -0.8059 -0.5007
 8299TIP3    H146388   1.568   3.259   2.419 -1.2124 -0.2509 -0.5330
 8299TIP3    H246389   1.658   3.202   2.311  1.6576 -0.5306  1.8617
 8300TIP3   OH246390   3.840   1.757  16.749 -0.0173  0.6330  0.2332
 8300TIP3    H146391   3.787   1.780  16.672  0.6850  1.0085 -0.1421
 8300TIP3    H246392   3.870   1.668  16.731  0.0235  0.6647  0.1422
 8301TIP3   OH246393   2.256   1.950   1.630 -0.2520 -0.1877 -0.2637
 8301TIP3    H146394   2.342   1.992   1.634  1.0062 -2.6244  0.4442
 8301TIP3    H246395   2.231   1.955   1.538  0.5663  0.6745 -0.4572
 8302TIP3   OH246396   2.874   3.391   5.330  0.9260  0.3095 -0.0232
 8302TIP3    H146397   2.961   3.427   5.311  1.5903 -1.1882 -0.0037
 8302TIP3    H246398   2.840   3.366   5.244  1.0004 -0.1367  0.0746
 8303TIP3   OH246399   1.131   0.360  12.148 -0.0814 -0.0346 -0.1002
 8303TIP3    H146400   1.207   0.303  12.133 -0.1650  0.0501 -0.8707
 8303TIP3    H246401   1.145   0.433  12.089 -1.1927 -0.4275 -0.8655
 8304TIP3   OH246402   0.356   4.543   3.779  0.6737  0.2107 -0.6302
 8304TIP3    H146403   0.434   4.488   3.780  1.6825  1.4799  2.6749
 8304TIP3    H246404   0.382   4.620   3.730  1.1177  0.1461 -0.4984
 8305TIP3   OH246405   2.691   1.719   4.466  0.1672  0.3168  0.2642
 8305TIP3    H146406   2.761   1.766   4.511  1.0887 -0.5211 -0.2632
 8305TIP3    H246407   2.675   1.642   4.521  1.7044 -1.0235 -1.0653
 8306TIP3   OH246408   1.698   5.471  14.363 -0.4055  0.2941  0.3382
 8306TIP3    H146409   1.626   5.520  14.323 -0.2205 -0.0130 -0.4029
 8306TIP3    H246410   1.769   5.535  14.369 -0.7345  0.5980  1.0750
 8307TIP3   OH246411   1.466   2.764   0.546 -0.9214 -0.0197 -0.0370
 8307TIP3    H146412   1.446   2.838   0.488 -0.1516 -0.2230 -0.5663
 8307TIP3    H246413   1.534   2.714   0.500 -1.7421 -1.3147  0.1119
 8308TIP3   OH246414   4.274   0.109  11.290  0.0997  0.1219 -0.8246
 8308TIP3    H146415   4.320   0.087  11.208 -0.4535 -1.8382 -0.6632
 8308TIP3    H246416   4.278   0.028  11.342 -0.3425  1.0623  0.7261
 8309TIP3   OH246417   0.614   6.571   4.058  0.0783  0.2570  0.2833
 8309TIP3    H146418   0.571   6.491   4.088 -1.9712  0.8533 -0.9008
 8309TIP3    H246419   0.615   6.564   3.963  0.1267  1.5196  0.1762
 8310TIP3   OH246420   5.773   3.808   3.235 -0.2020 -0.2307 -0.6558
 8310TIP3    H146421   5.850   3.838   3.188  0.3736  0.2654  0.5824
 8310TIP3    H246422   5.807   3.756   3.308 -1.0690 -0.7323 -0.5878
 8311TIP3   OH246423   6.221   2.544  16.794 -0.3638  0.5661  0.1930
 8311TIP3    H146424   6.199   2.633  16.766 -0.8939 -0.3071 -2.5104
 8311TIP3    H246425   6.315   2.537  16.777 -0.5607  0.2449 -0.8327
 8312TIP3   OH246426   2.530   5.402  14.562  0.2025  0.5513 -0.4428
 8312TIP3    H146427   2.493   5.441  14.641 -1.7143  2.9209 -2.3556
 8312TIP3    H246428   2.622   5.389  14.583  0.0330  2.2764  1.7705
 8313TIP3   OH246429   0.082   2.456  16.143 -0.2223 -0.4129  0.5471
 8313TIP3    H146430   0.097   2.414  16.228  1.6415 -0.9247  0.0055
 8313TIP3    H246431   0.165   2.498  16.122 -0.4968 -0.6945 -1.2273
 8314TIP3   OH246432   4.872   3.335  11.679  0.1879  0.1336  0.2620
 8314TIP3    H146433   4.869   3.314  11.773  1.6357  0.9919  0.5330
 8314TIP3    H246434   4.806   3.278  11.640 -1.1127  0.4135  1.9236
 8315TIP3   OH246435   1.214   1.471  15.492 -0.5051 -0.2330  0.5504
 8315TIP3    H146436   1.158   1.527  15.437 -0.9651  0.3160  1.5386
 8315TIP3    H246437   1.265   1.533  15.544  0.6933 -0.7407 -0.0013
 8316TIP3   OH246438   0.508   2.050   3.792 -0.1245  0.2900 -0.2217
 8316TIP3    H146439   0.417   2.074   3.775  0.6838  2.5095 -1.8657
 8316TIP3    H246440   0.551   2.053   3.706  1.1075 -2.9341  0.1288
 8317TIP3   OH246441   5.794   2.118   2.007  0.9431 -0.8356 -0.9689
 8317TIP3    H146442   5.800   2.160   2.092 -2.4955  2.0817 -1.9100
 8317TIP3    H246443   5.883   2.089   1.988  1.7393 -2.4932  3.8718
 8318TIP3   OH246444   2.585   5.144   2.402 -0.6930  0.0363 -0.7916
 8318TIP3    H146445   2.651   5.190   2.455  0.7994 -3.0717  0.2515
 8318TIP3    H246446   2.626   5.135   2.316 -0.4087 -0.4927 -0.6047
 8319TIP3   OH246447   1.967   2.252   0.806 -0.0796  0.4129 -0.0465
 8319TIP3    H146448   1.962   2.251   0.710 -1.4109 -2.1821 -0.0481
 8319TIP3    H246449   1.889   2.205   0.834  0.7171  0.3782  2.3013
 8320TIP3   OH246450   0.549   1.258  15.391  0.3743 -0.3478 -0.3930
 8320TIP3    H146451   0.508   1.269  15.306  0.6480  0.9392 -0.3874
 8320TIP3    H246452   0.636   1.297  15.381  0.1651  0.4513  0.6449
 8321TIP3   OH246453   3.685   4.048   5.360 -0.5715  0.1053  0.4909
 8321TIP3    H146454   3.734   4.099   5.425  1.2552 -1.0788  0.1065
 8321TIP3    H246455   3.663   4.111   5.291  2.9455  0.2177 -0.7241
 8322TIP3   OH246456   3.281   5.734   4.338 -0.0154  0.6126  0.0875
 8322TIP3    H146457   3.303   5.669   4.272  0.3927 -0.5401  1.3283
 8322TIP3    H246458   3.251   5.684   4.414 -0.7467  1.9111  0.7022
 8323TIP3   OH246459   2.847   0.359   3.491  0.5553  0.4538 -0.6542
 8323TIP3    H146460   2.834   0.388   3.401  0.7310  1.4506 -0.3723
 8323TIP3    H246461   2.780   0.405   3.541 -0.6404 -1.3516 -0.4789
 8324TIP3   OH246462   5.396   4.051   2.499  0.1378 -0.2035  0.0475
 8324TIP3    H146463   5.474   4.066   2.446  2.2671 -0.4502  2.8392
 8324TIP3    H246464   5.409   4.106   2.576 -1.0788 -2.2882  1.8499
 8325TIP3   OH246465   2.655   0.194   4.146 -0.3301  0.1152  0.1396
 8325TIP3    H146466   2.575   0.220   4.192  0.6209  2.3935  0.6415
 8325TIP3    H246467   2.671   0.104   4.176 -1.3664  0.4790  1.9673
 8326TIP3   OH246468   1.490   3.102   5.387  0.1809  0.2391  0.3686
 8326TIP3    H146469   1.464   3.062   5.303  2.0596  2.4762 -1.4093
 8326TIP3    H246470   1.437   3.056   5.452 -2.9239 -0.2325 -2.2090
 8327TIP3   OH246471   0.924   4.422   3.545  0.0295 -0.3422 -0.3834
 8327TIP3    H146472   0.986   4.495   3.545 -1.7873  1.2790  0.3830
 8327TIP3    H246473   0.893   4.418   3.454  1.4633 -1.4333 -0.8767
 8328TIP3   OH246474   4.631   0.217   4.664  0.2748  0.4987  0.3109
 8328TIP3    H146475   4.590   0.278   4.603 -0.9023 -0.9689 -0.4485
 8328TIP3    H246476   4.681   0.272   4.723  1.4622  2.0096 -1.9474
 8329TIP3   OH246477   4.242   1.736  12.150  0.0521  0.2139  0.5259
 8329TIP3    H146478   4.192   1.690  12.217 -0.1812  0.4065  0.4846
 8329TIP3    H246479   4.322   1.684  12.140  0.8783  1.0869  2.1753
 8330TIP3   OH246480   1.573   1.922   2.660  0.1272  0.7069 -0.0441
 8330TIP3    H146481   1.542   1.882   2.578  0.2547  1.6607 -0.5630
 8330TIP3    H246482   1.584   1.848   2.719  0.2265 -0.0226 -0.9496
 8331TIP3   OH246483   2.476   3.141   4.827 -0.2749 -0.0604 -0.2905
 8331TIP3    H146484   2.434   3.121   4.744 -1.0480  2.0369 -0.4619
 8331TIP3    H246485   2.537   3.212   4.807 -0.7606  0.7478  0.9688
 8332TIP3   OH246486   3.484   2.710   2.418 -0.7485 -0.5488 -0.8776
 8332TIP3    H146487   3.538   2.736   2.493 -0.5582 -1.9894 -0.4833
 8332TIP3    H246488   3.509   2.771   2.348 -1.8785  1.6900  0.5526
 8333TIP3   OH246489   2.534   1.190  12.395  0.5520 -0.0957  0.0585
 8333TIP3    H146490   2.583   1.201  12.314 -1.3006  0.2479 -1.0846
 8333TIP3    H246491   2.494   1.104  12.387  0.9765 -0.3924  0.9858
 8334TIP3   OH246492   2.806   6.526   3.344 -0.0079 -0.1194 -0.8280
 8334TIP3    H146493   2.846   6.568   3.268  1.1354 -0.4592 -0.4350
 8334TIP3    H246494   2.759   6.597   3.389  0.8848  0.4897 -0.8287
 8335TIP3   OH246495   0.825   4.345  12.502 -0.3124  0.3456 -0.0426
 8335TIP3    H146496   0.815   4.293  12.581  1.3123 -0.2291 -0.1806
 8335TIP3    H246497   0.735   4.359  12.471 -0.8430 -1.4865  0.5551
 8336TIP3   OH246498   4.410   4.396  12.647  0.0709  0.2361  0.4630
 8336TIP3    H146499   4.353   4.389  12.724 -0.5491  1.0608  0.0946
 8336TIP3    H246500   4.372   4.335  12.584 -0.4997  0.8716  0.1747
 8337TIP3   OH246501   6.315   6.061  14.212 -0.1745 -0.8516  0.2795
 8337TIP3    H146502   6.311   6.086  14.304 -0.8720 -0.6240  0.1912
 8337TIP3    H246503   6.235   6.011  14.196 -0.9974  0.6911 -0.6470
 8338TIP3   OH246504   2.269   0.824  14.063 -0.6532 -0.6160  0.3131
 8338TIP3    H146505   2.204   0.768  14.105 -0.9840  0.8885  1.9363
 8338TIP3    H246506   2.219   0.899  14.030 -0.0831 -0.7335 -0.8614
 8339TIP3   OH246507   4.736   3.630  13.543  0.3001  0.2055 -0.7572
 8339TIP3    H146508   4.677   3.706  13.541  0.9437  0.7437  0.1391
 8339TIP3    H246509   4.754   3.616  13.636  0.7677 -0.6004 -0.9612
 8340TIP3   OH246510   2.888   6.593   4.025  0.6613 -0.4412  0.2194
 8340TIP3    H146511   2.814   6.617   4.080 -0.2046 -0.6152 -0.8547
 8340TIP3    H246512   2.871   6.503   4.000  0.0264  0.2394 -1.9361
 8341TIP3   OH246513   3.592   1.754  15.949  0.1390  0.8160  0.2526
 8341TIP3    H146514   3.514   1.797  15.915  0.0565  0.6477  0.2285
 8341TIP3    H246515   3.564   1.663  15.966 -0.1118  1.1410  1.7351
 8342TIP3   OH246516   6.435   2.256   3.266  0.0364 -0.3570  0.6561
 8342TIP3    H146517   6.462   2.180   3.317  0.5218 -1.3919 -1.0796
 8342TIP3    H246518   6.494   2.258   3.191 -1.8681 -0.0615 -0.9294
 8343TIP3   OH246519   3.538   4.909   4.362  0.3877  0.4629 -0.3279
 8343TIP3    H146520   3.586   4.830   4.336 -1.4599 -0.7474 -0.3059
 8343TIP3    H246521   3.573   4.931   4.448  0.2765 -0.9805  0.1295
 8344TIP3   OH246522   2.744   0.750   5.686  0.2279  0.1271 -0.0794
 8344TIP3    H146523   2.692   0.791   5.755  0.8195 -0.9270  1.0371
 8344TIP3    H246524   2.727   0.656   5.696  0.5335 -0.0600 -1.2105
 8345TIP3   OH246525   6.110   1.305  16.917 -0.5661  0.0207 -0.0043
 8345TIP3    H146526   6.157   1.237  16.964 -0.1661  0.4478  0.2264
 8345TIP3    H246527   6.162   1.384  16.932 -1.1123  0.4079 -0.1287
 8346TIP3   OH246528   2.792   3.828  16.199  0.3271 -0.3026 -0.2662
 8346TIP3    H146529   2.724   3.856  16.137  2.3841  1.0475 -2.0530
 8346TIP3    H246530   2.811   3.906  16.250 -2.1296 -1.6644  3.0652
 8347TIP3   OH246531   3.768   4.492  11.628 -0.0566 -0.3450  0.2800
 8347TIP3    H146532   3.758   4.422  11.564  1.0221 -1.6429  1.4390
 8347TIP3    H246533   3.859   4.483  11.658  0.2505  1.8549  0.1585
 8348TIP3   OH246534   6.576   1.112  12.487  0.5389 -0.0606 -0.5332
 8348TIP3    H146535   6.543   1.121  12.398 -1.5387 -2.3724 -0.1140
 8348TIP3    H246536   6.609   1.023  12.492 -0.4051 -0.3582  1.2799
 8349TIP3   OH246537   2.170   5.637  15.951  0.0574 -0.0654 -0.5774
 8349TIP3    H146538   2.161   5.547  15.981 -0.5762  0.0557 -0.3991
 8349TIP3    H246539   2.122   5.640  15.868 -1.2747  0.4789  0.1770
 8350TIP3   OH246540   4.706   4.366   5.671 -0.2292  0.3262  1.0761
 8350TIP3    H146541   4.611   4.356   5.671 -0.4297  1.2118 -1.5967
 8350TIP3    H246542   4.740   4.278   5.653 -0.6926  0.3098  0.2004
 8351TIP3   OH246543   5.588   6.784   0.427  0.4280  0.4584  0.0191
 8351TIP3    H146544   5.514   6.835   0.396  0.4067  0.9403  0.8209
 8351TIP3    H246545   5.560   6.693   0.419  0.9886  0.4386 -2.7740
 8352TIP3   OH246546   3.937   0.881  16.868  0.0929 -0.1538  0.4361
 8352TIP3    H146547   3.918   0.949  16.933  0.4078  1.4722 -1.1002
 8352TIP3    H246548   3.858   0.875  16.815  0.0050 -1.1333  0.6551
 8353TIP3   OH246549   1.548   1.793   3.983  0.1353 -0.1400 -0.1590
 8353TIP3    H146550   1.504   1.729   4.040 -1.1203  0.5288 -0.3327
 8353TIP3    H246551   1.565   1.745   3.902 -0.3704 -0.3943 -0.1193
 8354TIP3   OH246552   4.896   0.784   3.812  0.0872  0.1733  0.3271
 8354TIP3    H146553   4.927   0.810   3.725  0.7342 -0.6228  0.3123
 8354TIP3    H246554   4.862   0.696   3.800  0.4647 -0.0634  0.9404
 8355TIP3   OH246555   2.677   6.227   6.035 -0.4905  0.1847  0.5809
 8355TIP3    H146556   2.620   6.235   6.112 -2.0129 -1.0045 -0.3666
 8355TIP3    H246557   2.710   6.316   6.020 -2.9938  1.1818  0.5384
 8356TIP3   OH246558   3.736   1.702  11.200  0.0113 -0.4253 -0.3537
 8356TIP3    H146559   3.681   1.780  11.213  0.3771 -0.3359  0.7909
 8356TIP3    H246560   3.683   1.630  11.235  1.1503 -0.1342  2.2367
 8357TIP3   OH246561   3.551   0.680  12.670 -0.1446 -0.2454  0.1361
 8357TIP3    H146562   3.517   0.671  12.581  1.1073 -1.3109 -0.2769
 8357TIP3    H246563   3.474   0.682  12.726 -0.9147 -1.3477 -0.8415
 8358TIP3   OH246564   6.155   0.526   6.346 -0.1532  0.0908  0.0012
 8358TIP3    H146565   6.110   0.531   6.431  0.0520  2.0168  0.0318
 8358TIP3    H246566   6.248   0.534   6.367  0.0278 -1.0441 -0.3002
 8359TIP3   OH246567   3.532   3.370  11.463  0.4479 -0.8617 -0.5923
 8359TIP3    H146568   3.497   3.336  11.381  1.0461 -0.8987 -0.8340
 8359TIP3    H246569   3.551   3.462  11.445 -1.5058 -0.2478  0.1631
 8360TIP3   OH246570   2.866   5.036  14.451 -0.1638 -0.9541  0.4454
 8360TIP3    H146571   2.812   4.958  14.454  0.9661 -1.7476  0.6831
 8360TIP3    H246572   2.868   5.068  14.541 -0.4618 -0.7631  0.3845
 8361TIP3   OH246573   1.679   1.842   0.766 -0.0350 -0.1154 -0.5747
 8361TIP3    H146574   1.773   1.825   0.775  0.5749  2.3328 -1.3393
 8361TIP3    H246575   1.639   1.800   0.842  1.8158 -0.4032  0.2904
 8362TIP3   OH246576   2.013   6.012  11.933  0.6917  0.2596 -0.4990
 8362TIP3    H146577   2.066   5.940  11.900  0.2708 -0.5587  0.5740
 8362TIP3    H246578   1.978   6.053  11.855 -0.5422 -1.8281 -1.1062
 8363TIP3   OH246579   2.063   3.328  14.137  0.5974  0.6585 -0.2792
 8363TIP3    H146580   2.037   3.408  14.091  0.7418  1.4157  0.9160
 8363TIP3    H246581   2.126   3.357  14.202 -0.2126 -0.2465  0.9541
 8364TIP3   OH246582   5.096   5.523   0.012 -0.1098 -0.0905  0.3316
 8364TIP3    H146583   5.131   5.585   0.077 -1.4058  0.9040  0.1110
 8364TIP3    H246584   5.155   5.447   0.018  1.1513  0.8998  1.0452
 8365TIP3   OH246585   4.805   6.812  15.353 -0.4569  0.1138  0.1822
 8365TIP3    H146586   4.861   6.743  15.317 -1.3337 -0.4606 -0.0903
 8365TIP3    H246587   4.719   6.772  15.361 -1.0845  1.3140 -0.3941
 8366TIP3   OH246588   6.460   2.690   2.764 -0.4572  0.4362  0.6062
 8366TIP3    H146589   6.539   2.642   2.789 -1.8640 -1.5780  1.5785
 8366TIP3    H246590   6.410   2.697   2.846 -1.9154  0.3319 -0.2445
 8367TIP3   OH246591   5.858   1.821  11.514 -0.5758 -0.1581  0.0271
 8367TIP3    H146592   5.831   1.869  11.592  1.8054 -0.7847  1.3612
 8367TIP3    H246593   5.948   1.793  11.534 -0.5772 -1.9898 -2.1730
 8368TIP3   OH246594   5.385   2.488  11.384  0.1870 -0.3747  0.0813
 8368TIP3    H146595   5.297   2.498  11.349 -0.2803 -0.8877  1.0815
 8368TIP3    H246596   5.399   2.567  11.437  0.7868  0.2645 -0.9790
 8369TIP3   OH246597   6.356   2.445  16.565  0.3440  0.7250 -0.2440
 8369TIP3    H146598   6.272   2.409  16.592  0.1876  0.6283 -0.8498
 8369TIP3    H246599   6.415   2.370  16.563  0.6632  0.9159  0.9782
 8370TIP3   OH246600   2.062   3.595  13.777 -0.2349 -0.0954 -0.5468
 8370TIP3    H146601   2.150   3.567  13.803 -1.0665 -2.2370  0.1466
 8370TIP3    H246602   2.011   3.596  13.858 -0.5614  2.6379 -0.6796
 8371TIP3   OH246603   4.658   1.940  10.813 -0.0958 -0.1203 -0.2262
 8371TIP3    H146604   4.595   1.870  10.830 -0.0402 -0.2908 -0.7017
 8371TIP3    H246605   4.606   2.020  10.819 -1.0258 -0.3640 -3.3356
 8372TIP3   OH246606   5.808   3.742   2.036 -0.0446  0.6451  0.3119
 8372TIP3    H146607   5.757   3.822   2.027 -1.0720  0.2554  2.0980
 8372TIP3    H246608   5.797   3.697   1.953 -1.0748  1.4538 -0.0089
 8373TIP3   OH246609   3.842   0.507   0.176 -0.8375 -0.2103 -0.0125
 8373TIP3    H146610   3.780   0.564   0.220 -0.7635 -1.5528  1.9891
 8373TIP3    H246611   3.924   0.518   0.225  0.1396  0.4792 -1.7262
 8374TIP3   OH246612   5.904   5.493   1.108 -0.1120 -0.3220  0.1133
 8374TIP3    H146613   5.878   5.512   1.018 -0.1374 -0.8144  0.0161
 8374TIP3    H246614   5.940   5.405   1.105 -0.0339 -0.3100  0.5722
 8375TIP3   OH246615   4.055   2.417  11.877  0.1801 -0.2129 -0.5516
 8375TIP3    H146616   3.987   2.443  11.940 -0.6409  0.3018 -1.6060
 8375TIP3    H246617   4.071   2.496  11.826 -0.7160 -1.1476 -2.3594
 8376TIP3   OH246618   6.006   2.692   0.116 -0.3461  0.8203 -0.0208
 8376TIP3    H146619   6.014   2.781   0.082 -0.0046  1.0334  0.6033
 8376TIP3    H246620   6.074   2.685   0.182  0.4228 -0.3016 -0.8884
 8377TIP3   OH246621   2.986   5.642  12.813  0.1689 -0.4678  0.1364
 8377TIP3    H146622   2.947   5.729  12.810 -0.9546 -0.8087  2.4789
 8377TIP3    H246623   3.079   5.656  12.796  0.3688  1.4893  2.3798
 8378TIP3   OH246624   4.452   2.592  14.959  0.0471  0.1406 -0.8013
 8378TIP3    H146625   4.521   2.647  14.922  0.5899 -0.6018 -0.9137
 8378TIP3    H246626   4.378   2.603  14.899  0.2615  0.4832 -1.0074
 8379TIP3   OH246627   6.286   3.042  10.801 -0.5544  0.3380 -0.1666
 8379TIP3    H146628   6.220   3.019  10.736 -0.0505 -0.1665 -0.5034
 8379TIP3    H246629   6.331   2.960  10.820 -0.0444  0.6722  0.0850
 8380TIP3   OH246630   5.145   4.567   4.529  0.4664 -0.0904 -0.5259
 8380TIP3    H146631   5.093   4.529   4.458  1.7469 -2.7826 -0.1368
 8380TIP3    H246632   5.220   4.607   4.485  0.0650  0.3474 -0.8218
 8381TIP3   OH246633   1.931   5.354   5.021  0.0943 -0.1298  0.1925
 8381TIP3    H146634   1.967   5.271   5.052  0.1306  0.3288  1.4064
 8381TIP3    H246635   1.891   5.394   5.098 -0.7673  0.5547 -0.5775
 8382TIP3   OH246636   0.189   1.752  16.367 -0.1834  0.3906  0.3454
 8382TIP3    H146637   0.274   1.716  16.394 -0.9471 -1.1664  0.7954
 8382TIP3    H246638   0.178   1.723  16.276  0.4472  1.9570 -0.2701
 8383TIP3   OH246639   3.519   2.837  11.943 -0.4260  0.1306  0.0092
 8383TIP3    H146640   3.482   2.834  12.031  0.8172  0.9768  0.5886
 8383TIP3    H246641   3.500   2.926  11.912  0.7536  0.4506  0.1707
 8384TIP3   OH246642   4.264   2.537   3.433  0.3364  0.5454 -0.8423
 8384TIP3    H146643   4.319   2.581   3.368  0.3413  0.4700 -0.8897
 8384TIP3    H246644   4.220   2.608   3.479 -0.4073  0.5732 -1.5702
 8385TIP3   OH246645   4.413   3.223   1.188 -0.0670  0.2714 -0.7711
 8385TIP3    H146646   4.404   3.165   1.264  1.9255  1.4084  0.4112
 8385TIP3    H246647   4.331   3.271   1.185  0.8935  2.4857  2.7169
 8386TIP3   OH246648   2.676   2.252  17.070 -0.1144  0.0159  0.4770
 8386TIP3    H146649   2.722   2.313  17.127 -0.2274 -0.1842  0.7877
 8386TIP3    H246650   2.688   2.166  17.112  2.0412 -0.5740 -1.1831
 8387TIP3   OH246651   1.120   3.715   2.852  0.0922 -0.1047  0.3202
 8387TIP3    H146652   1.185   3.732   2.783  0.0616 -0.2249  0.2618
 8387TIP3    H246653   1.168   3.668   2.920 -0.1445 -1.0047 -0.1238
 8388TIP3   OH246654   1.807   1.378   5.575  0.1859 -0.6955  0.0519
 8388TIP3    H146655   1.712   1.365   5.584  0.0285 -0.2040 -0.7724
 8388TIP3    H246656   1.825   1.356   5.484  0.9117 -1.0159  0.2678
 8389TIP3   OH246657   6.709   3.624  16.739 -0.4801  0.2156 -0.5664
 8389TIP3    H146658   6.747   3.589  16.659 -0.1258 -1.2901  0.2262
 8389TIP3    H246659   6.650   3.556  16.770  0.2421  0.2559  1.0291
 8390TIP3   OH246660   2.701   1.282   5.080 -0.0224 -0.5244  0.1201
 8390TIP3    H146661   2.639   1.235   5.023 -1.0811 -0.2741  1.0285
 8390TIP3    H246662   2.662   1.369   5.092  0.1607 -0.5783  1.2384
 8391TIP3   OH246663   1.503   2.604  14.761  0.9287  0.0083  0.4317
 8391TIP3    H146664   1.426   2.596  14.705  0.3233  0.2184  1.2168
 8391TIP3    H246665   1.479   2.670  14.826  0.6430 -1.9693  2.4810
 8392TIP3   OH246666   4.370   6.364  16.913 -0.2081  0.5728 -0.0155
 8392TIP3    H146667   4.422   6.324  16.844 -0.8380  1.1801 -0.8596
 8392TIP3    H246668   4.432   6.423  16.958 -0.1791  1.4087 -1.1046
 8393TIP3   OH246669   2.539   1.388   0.138 -0.4022  0.2520 -0.1081
 8393TIP3    H146670   2.488   1.351   0.066 -1.3068  0.4269  0.4318
 8393TIP3    H246671   2.629   1.358   0.122 -0.8981 -1.1901 -0.3201
 8394TIP3   OH246672   2.975   0.879  11.351 -0.5106  0.3379 -0.1189
 8394TIP3    H146673   3.065   0.852  11.333 -0.7498 -1.6370  1.3348
 8394TIP3    H246674   2.949   0.930  11.275  1.3225 -0.3660 -1.2710
 8395TIP3   OH246675   3.154   0.034   2.673 -0.8520  0.4996  0.3125
 8395TIP3    H146676   3.205  -0.031   2.625 -0.3828  0.8100  0.3812
 8395TIP3    H246677   3.075   0.047   2.620 -0.2569  0.9749 -0.4822
 8396TIP3   OH246678   2.001   3.050  14.049  0.2155 -0.0774  0.9982
 8396TIP3    H146679   2.095   3.035  14.057  0.5611  0.6122 -1.2455
 8396TIP3    H246680   1.988   3.142  14.072  0.0700 -0.1678  1.2939
 8397TIP3   OH246681   0.242   5.265  16.584 -0.3029  0.5107 -1.0509
 8397TIP3    H146682   0.208   5.227  16.503 -0.4336 -0.4135 -0.5849
 8397TIP3    H246683   0.166   5.307  16.624 -0.3238  0.6490 -1.2379
 8398TIP3   OH246684   6.306   6.047  10.486 -0.9189  0.5617 -0.7818
 8398TIP3    H146685   6.261   6.021  10.567  0.8329 -0.0490  0.0362
 8398TIP3    H246686   6.327   5.965  10.442  2.3557  0.5485  0.5500
 8399TIP3   OH246687   2.490   2.478  15.138  0.2876 -0.3438  0.2040
 8399TIP3    H146688   2.448   2.415  15.196 -0.2001 -0.1804  0.0329
 8399TIP3    H246689   2.521   2.547  15.196 -0.5910  0.0384  0.2344
 8400TIP3   OH246690   1.653   2.020   2.961 -0.3675  0.4535  0.5516
 8400TIP3    H146691   1.652   1.960   3.036 -0.0566 -2.0329 -1.2957
 8400TIP3    H246692   1.567   2.007   2.919 -0.0016  0.7002 -0.2985
 8401TIP3   OH246693   2.064   3.466  11.038  0.5030  0.4458 -0.3547
 8401TIP3    H146694   2.086   3.436  10.949  0.8036  1.8384 -0.7665
 8401TIP3    H246695   2.141   3.443  11.090 -0.3289 -1.9394 -0.0184
 8402TIP3   OH246696   4.964   5.574  13.282 -0.0487 -0.1770 -0.4882
 8402TIP3    H146697   5.017   5.540  13.210  0.3735  1.2295 -0.8713
 8402TIP3    H246698   4.879   5.593  13.242  0.2789  0.8852 -0.7010
 8403TIP3   OH246699   1.096   4.293   2.666 -0.1375  0.2989 -0.1681
 8403TIP3    H146700   1.086   4.202   2.637  0.0952 -1.0124  3.2943
 8403TIP3    H246701   1.008   4.318   2.695  0.1974  0.4029  0.7781
 8404TIP3   OH246702   4.733   0.989   3.432  0.3788  0.1414  0.4263
 8404TIP3    H146703   4.697   0.939   3.506 -1.5452 -1.2439 -1.3323
 8404TIP3    H246704   4.796   0.930   3.392 -0.3109 -0.0464 -0.3965
 8405TIP3   OH246705   3.977   6.168  14.678  0.1705  0.2010 -0.0878
 8405TIP3    H146706   3.882   6.157  14.671  0.1642  0.8952 -1.3052
 8405TIP3    H246707   4.005   6.188  14.589  1.6948 -1.6337 -0.0735
 8406TIP3   OH246708   0.376   4.333   0.222 -0.0676  0.3602  0.5984
 8406TIP3    H146709   0.313   4.314   0.152  0.6178 -1.4002  0.4026
 8406TIP3    H246710   0.323   4.338   0.301 -0.9424  3.0001 -0.0673
 8407TIP3   OH246711   5.181   5.960  16.643  0.4002 -0.2317  0.0317
 8407TIP3    H146712   5.251   5.953  16.577  0.3223 -1.4131  0.0554
 8407TIP3    H246713   5.156   6.052  16.642  0.7447 -0.1401 -1.2413
 8408TIP3   OH246714   4.107   0.673  11.774  0.2531 -0.9867  0.3109
 8408TIP3    H146715   4.089   0.762  11.806 -0.5143 -0.7872 -0.6378
 8408TIP3    H246716   4.105   0.619  11.853 -1.7263 -0.5274  0.6246
 8409TIP3   OH246717   2.655   1.392  15.101 -0.6701 -0.2953 -0.0170
 8409TIP3    H146718   2.712   1.373  15.175  1.5822  2.2368 -0.9227
 8409TIP3    H246719   2.615   1.476  15.123 -0.4273  0.2043 -1.3752
 8410TIP3   OH246720   2.900   5.575   0.333 -0.0096  0.6141 -0.3794
 8410TIP3    H146721   2.864   5.652   0.378 -0.9082  0.0877 -0.1743
 8410TIP3    H246722   2.976   5.550   0.386 -0.7005  0.3644  0.5336
 8411TIP3   OH246723   3.584   5.235  13.150 -0.2593  0.1535  0.0468
 8411TIP3    H146724   3.647   5.281  13.205 -1.2934 -0.4442  1.8271
 8411TIP3    H246725   3.506   5.291  13.151  0.2062  0.9694 -2.2578
 8412TIP3   OH246726   5.996   6.830  16.865 -0.6574 -0.1456 -0.4049
 8412TIP3    H146727   5.917   6.846  16.917  0.6122 -1.1831  1.9983
 8412TIP3    H246728   6.051   6.776  16.922  0.4707 -2.1935 -3.2289
 8413TIP3   OH246729   1.180   0.868  16.754  0.1188  0.5170  0.6071
 8413TIP3    H146730   1.224   0.847  16.836  0.7533  1.9641  0.6690
 8413TIP3    H246731   1.146   0.785  16.722 -0.1241 -0.0685  2.3304
 8414TIP3   OH246732   3.904   0.625   2.984 -0.2165  0.1369  0.1516
 8414TIP3    H146733   3.813   0.601   3.004  0.5558 -3.5572  0.0203
 8414TIP3    H246734   3.911   0.614   2.889  0.7542 -1.5259  0.3758
 8415TIP3   OH246735   4.233   1.000  15.634  0.2075  0.4635 -0.1667
 8415TIP3    H146736   4.202   0.967  15.719  0.1585 -2.5417 -1.2273
 8415TIP3    H246737   4.155   1.041  15.595 -0.4811 -0.4736  0.1806
 8416TIP3   OH246738   6.221   6.165   1.083  0.3665 -0.3426 -0.6225
 8416TIP3    H146739   6.233   6.077   1.047  1.7462  0.3216 -1.8684
 8416TIP3    H246740   6.173   6.150   1.165  0.4053 -2.2292 -0.8844
 8417TIP3   OH246741   3.868   1.749   4.052  0.1207 -0.2528 -0.0636
 8417TIP3    H146742   3.813   1.826   4.067 -0.7845 -1.3401  2.8206
 8417TIP3    H246743   3.943   1.761   4.109  0.3176 -1.1466 -0.1097
 8418TIP3   OH246744   2.837   2.937  16.611  0.3002 -0.6266 -0.0974
 8418TIP3    H146745   2.894   2.867  16.580  2.1409  0.4736  0.5762
 8418TIP3    H246746   2.898   3.005  16.641 -1.3798  0.3474  1.3264
 8419TIP3   OH246747   5.043   0.722   4.255  0.3912 -0.2344 -0.2642
 8419TIP3    H146748   4.996   0.802   4.278 -1.8780 -0.6572 -2.9026
 8419TIP3    H246749   4.983   0.652   4.278  1.6296 -1.0993  0.4034
 8420TIP3   OH246750   3.627   6.005  13.519 -0.3779 -0.0286  0.6251
 8420TIP3    H146751   3.647   5.962  13.602  0.1414  0.0506  0.5483
 8420TIP3    H246752   3.577   5.941  13.469  1.7335 -1.2154 -0.1290
 8421TIP3   OH246753   0.674   6.466  11.882  0.1919  0.1325 -0.3440
 8421TIP3    H146754   0.649   6.374  11.894  1.6828 -0.2062  0.3743
 8421TIP3    H246755   0.745   6.480  11.945  0.8520  1.4152 -1.3241
 8422TIP3   OH246756   6.175   2.317  16.159  0.6434 -0.2224 -0.0195
 8422TIP3    H146757   6.168   2.408  16.188  0.8695 -0.6089  1.3454
 8422TIP3    H246758   6.089   2.297  16.122  0.2459  0.2431  0.6187
 8423TIP3   OH246759   4.511   2.875   2.252 -0.5858  0.6500 -0.0087
 8423TIP3    H146760   4.424   2.843   2.277 -0.8368 -0.6676 -2.2809
 8423TIP3    H246761   4.569   2.841   2.320 -1.4993 -0.7729  0.1042
 8424TIP3   OH246762   0.068   6.754   5.896 -0.5405  0.3658 -0.0831
 8424TIP3    H146763  -0.004   6.734   5.835 -0.6822  1.7203 -0.3946
 8424TIP3    H246764   0.041   6.835   5.939  0.3940  0.3934  0.4807
 8425TIP3   OH246765   2.244   5.247  14.713 -0.1602 -0.4302 -0.0484
 8425TIP3    H146766   2.284   5.245  14.626 -2.1607  1.6431 -1.1435
 8425TIP3    H246767   2.267   5.334  14.747 -0.1750 -0.8725  1.1332
 8426TIP3   OH246768   4.982   2.063   3.414  0.0955  0.3409  0.0157
 8426TIP3    H146769   4.976   2.060   3.318  0.3389  0.9216 -0.0229
 8426TIP3    H246770   5.001   1.972   3.439  2.1280  0.5172 -0.6506
 8427TIP3   OH246771   3.929   0.167  15.242  0.2840  0.0599 -0.4135
 8427TIP3    H146772   4.003   0.226  15.228  0.4550 -0.4165 -1.6356
 8427TIP3    H246773   3.947   0.092  15.185 -0.4382 -0.7031  0.3366
 8428TIP3   OH246774   4.064   3.521  15.548 -0.0116  0.2168 -0.1837
 8428TIP3    H146775   4.106   3.562  15.472 -0.3663  1.1915  0.1359
 8428TIP3    H246776   3.971   3.530  15.531 -0.0944  0.4827  0.3790
 8429TIP3   OH246777   6.055   0.923  16.566 -0.0650 -0.1804  0.2556
 8429TIP3    H146778   6.035   0.891  16.654 -2.1713  0.6595  0.1207
 8429TIP3    H246779   6.100   1.006  16.580 -0.7655  0.1550  0.5529
 8430TIP3   OH246780   0.282   2.871  10.611  0.4019 -0.1289  0.4365
 8430TIP3    H146781   0.207   2.900  10.559  1.4023  0.3621 -0.7878
 8430TIP3    H246782   0.278   2.776  10.608  0.0951 -0.1053 -0.0213
 8431TIP3   OH246783   1.562   0.324   3.405 -0.3226 -0.4518 -0.1755
 8431TIP3    H146784   1.642   0.276   3.428  0.7298  0.3662 -1.9291
 8431TIP3    H246785   1.505   0.313   3.481  0.6404 -2.7834  0.3052
 8432TIP3   OH246786   3.179   3.282  11.328  0.4666 -0.0895 -0.1381
 8432TIP3    H146787   3.172   3.360  11.384 -0.2353  0.0526 -0.4011
 8432TIP3    H246788   3.263   3.293  11.283  0.1222  0.8256 -0.6009
 8433TIP3   OH246789   4.583   4.019   4.659  0.0729 -0.0404  0.0465
 8433TIP3    H146790   4.607   3.991   4.571  0.1412  0.3706 -0.0673
 8433TIP3    H246791   4.497   3.979   4.675 -1.2911  2.1761 -1.3137
 8434TIP3   OH246792   0.263   1.165  10.051  0.0587  0.9662 -0.0457
 8434TIP3    H146793   0.172   1.162  10.079  0.2277  0.2290  0.4343
 8434TIP3    H246794   0.272   1.093   9.989 -0.3885  2.7414 -2.3228
 8435TIP3   OH246795   2.815   6.223   3.747  0.1632 -0.4025 -0.1190
 8435TIP3    H146796   2.818   6.315   3.721  1.0127 -0.3405  0.1738
 8435TIP3    H246797   2.867   6.178   3.681 -1.1707 -0.8559 -0.9143
 8436TIP3   OH246798   1.578   1.438  16.601  0.0197 -0.0782 -0.1145
 8436TIP3    H146799   1.556   1.490  16.678 -0.5372 -0.2943 -0.1230
 8436TIP3    H246800   1.654   1.482  16.563 -0.8718  1.1787 -0.5267
 8437TIP3   OH246801   2.248   3.351  14.666 -0.5737 -0.0127 -0.1662
 8437TIP3    H146802   2.312   3.285  14.640 -2.2960 -2.0591  0.4880
 8437TIP3    H246803   2.210   3.381  14.584  0.0862  0.0399 -0.4613
 8438TIP3   OH246804   5.476   3.486   3.802 -0.7775 -0.4157  0.1005
 8438TIP3    H146805   5.551   3.449   3.849  0.1035  0.9941 -0.1490
 8438TIP3    H246806   5.434   3.545   3.865 -0.7571 -0.0227 -0.2508
 8439TIP3   OH246807   5.876   4.900   1.759  0.8000  0.5336 -0.5544
 8439TIP3    H146808   5.789   4.875   1.788  0.4079 -0.8733 -2.6714
 8439TIP3    H246809   5.864   4.983   1.712  0.6404  0.4824 -0.6035
 8440TIP3   OH246810   3.295   6.748  11.540  0.7210 -0.4217  0.3418
 8440TIP3    H146811   3.386   6.747  11.571  0.8421  0.1424  0.0181
 8440TIP3    H246812   3.246   6.792  11.610  0.6828 -0.7928  0.5497
 8441TIP3   OH246813   4.352   4.799   4.533 -0.1724 -0.1693  0.4348
 8441TIP3    H146814   4.409   4.829   4.462 -0.1969 -0.0104  0.4829
 8441TIP3    H246815   4.267   4.838   4.514 -0.2678 -0.4104  0.3607
 8442TIP3   OH246816   5.408   3.622   5.187 -0.3835 -0.0900 -0.9138
 8442TIP3    H146817   5.446   3.565   5.121  2.0064  1.8697 -1.3669
 8442TIP3    H246818   5.381   3.700   5.139  0.0735  0.7925  0.2180
 8443TIP3   OH246819   5.096   4.383  11.368 -0.0701 -0.5619  0.1503
 8443TIP3    H146820   5.054   4.362  11.452 -0.2573  2.0168  0.7746
 8443TIP3    H246821   5.028   4.428  11.318  1.0290  1.0273  0.0109
 8444TIP3   OH246822   4.497   1.731   4.024 -0.0485 -0.1381  0.3980
 8444TIP3    H146823   4.539   1.654   3.986 -2.0623 -1.0811 -0.0118
 8444TIP3    H246824   4.506   1.799   3.957  0.4282 -0.4328  0.1532
 8445TIP3   OH246825   3.691   3.918  14.328  0.4842  0.0234  0.9138
 8445TIP3    H146826   3.770   3.874  14.298 -0.1542 -0.4523 -0.1479
 8445TIP3    H246827   3.697   4.006  14.292 -0.8352 -0.8801 -1.8190
 8446TIP3   OH246828   2.564   0.228  13.935 -0.3166  0.3702 -0.2819
 8446TIP3    H146829   2.618   0.296  13.895 -0.8923  1.2375  0.3711
 8446TIP3    H246830   2.627   0.163  13.967  0.2322  0.4937 -1.0759
 8447TIP3   OH246831   1.789   3.882  14.562  0.8096  0.9138 -0.0388
 8447TIP3    H146832   1.775   3.815  14.495  0.4346  1.0581 -0.1105
 8447TIP3    H246833   1.725   3.950  14.541  0.3960  0.7717  0.7215
 8448TIP3   OH246834   6.599   5.544  11.173  0.2757  0.2468  0.0684
 8448TIP3    H146835   6.622   5.626  11.128  0.8941 -0.5317 -1.0733
 8448TIP3    H246836   6.615   5.476  11.108 -2.3732 -0.6344  0.2283
 8449TIP3   OH246837   2.924   4.492  11.535  0.2141 -0.5742 -0.3594
 8449TIP3    H146838   3.012   4.490  11.497  0.8186 -0.1105  0.9433
 8449TIP3    H246839   2.924   4.421  11.598 -0.4558 -0.7464 -0.5472
 8450TIP3   OH246840   3.822   6.551   0.321 -0.2636  0.1337 -0.4640
 8450TIP3    H146841   3.849   6.552   0.413  1.3085  1.6798 -0.8790
 8450TIP3    H246842   3.746   6.492   0.319 -0.1242 -0.2251  1.7413
 8451TIP3   OH246843   6.119   3.993   1.381  0.0890 -0.4122 -0.2019
 8451TIP3    H146844   6.066   4.072   1.372 -0.8069 -1.0944 -1.1332
 8451TIP3    H246845   6.209   4.026   1.391 -0.4550  0.7433  1.0711
 8452TIP3   OH246846   4.223   1.604  17.017 -0.4169  0.9061 -0.6949
 8452TIP3    H146847   4.175   1.683  16.992  0.1766  1.9332  1.2179
 8452TIP3    H246848   4.315   1.627  17.004 -0.0771  1.4635  2.0864
 8453TIP3   OH246849   5.096   5.710   0.205  0.6371 -0.3275  0.5953
 8453TIP3    H146850   5.039   5.787   0.200  1.7014  0.4396 -0.1868
 8453TIP3    H246851   5.046   5.646   0.256 -0.3315  0.8249  1.1363
 8454TIP3   OH246852   5.139   0.666   5.790 -0.0062 -0.3828 -0.4816
 8454TIP3    H146853   5.194   0.676   5.868  0.1271  0.8196 -0.7147
 8454TIP3    H246854   5.134   0.572   5.776  0.8022 -0.5652  0.3899
 8455TIP3   OH246855   4.111   4.878  15.577 -0.3093 -0.0769  0.4289
 8455TIP3    H146856   4.037   4.829  15.612 -1.2312  0.4507 -0.7160
 8455TIP3    H246857   4.080   4.968  15.571  0.3638  0.1256 -0.2377
 8456TIP3   OH246858   2.158   4.121  11.070 -0.2188 -0.2665 -0.6709
 8456TIP3    H146859   2.233   4.163  11.112  0.9730 -0.5017 -2.4534
 8456TIP3    H246860   2.186   4.107  10.979 -1.5615 -2.4475 -0.8246
 8457TIP3   OH246861   4.600   6.736  15.873 -0.0294  0.3332 -0.3485
 8457TIP3    H146862   4.624   6.755  15.964 -0.2278  0.0148 -0.2279
 8457TIP3    H246863   4.621   6.816  15.826  0.1373  0.4773 -0.0315
 8458TIP3   OH246864   4.509   4.225  14.523 -0.4221  0.1192 -0.5135
 8458TIP3    H146865   4.434   4.203  14.578 -0.4517 -1.0742 -0.9851
 8458TIP3    H246866   4.499   4.169  14.446  1.6924 -1.1621  0.0408
 8459TIP3   OH246867   1.763   0.471  15.401 -0.1598  0.4375 -0.0421
 8459TIP3    H146868   1.773   0.527  15.477 -1.1007  1.3885 -0.5939
 8459TIP3    H246869   1.732   0.529  15.332 -0.2183 -0.5778 -0.9017
 8460TIP3   OH246870   4.560   0.122   3.400 -0.0553 -0.1907  0.1833
 8460TIP3    H146871   4.488   0.066   3.427 -0.4597  0.0851 -0.3108
 8460TIP3    H246872   4.520   0.190   3.346  0.7272 -0.7233 -1.1186
 8461TIP3   OH246873   3.038   4.970  15.545  0.0759  0.3132  0.6757
 8461TIP3    H146874   3.003   4.983  15.457  1.4555 -0.4759 -0.0306
 8461TIP3    H246875   2.962   4.945  15.598 -0.7350  0.5472 -0.3484
 8462TIP3   OH246876   5.045   3.821   3.358 -0.1314  0.3888  0.5879
 8462TIP3    H146877   4.988   3.830   3.435  0.8320  1.4064  1.2255
 8462TIP3    H246878   5.100   3.900   3.361  1.6738 -0.8090  0.3242
 8463TIP3   OH246879   6.296   2.450  15.578  0.5239  0.0835  0.5764
 8463TIP3    H146880   6.265   2.366  15.545 -0.9319  1.0244 -0.5709
 8463TIP3    H246881   6.357   2.481  15.511  1.5661 -0.3143  1.3079
 8464TIP3   OH246882   4.383   3.805  13.617  0.5632 -0.0650 -0.4626
 8464TIP3    H146883   4.291   3.795  13.642  0.4312 -1.4506 -1.3609
 8464TIP3    H246884   4.421   3.857  13.688 -0.8002  0.1358  0.1706
 8465TIP3   OH246885   5.737   4.866  15.745 -0.0796  0.1110  0.0143
 8465TIP3    H146886   5.757   4.913  15.826  0.4595  0.3654 -0.2562
 8465TIP3    H246887   5.760   4.775  15.765  0.5037  0.2481  0.0076
 8466TIP3   OH246888   3.193   3.889  12.429 -0.5051  0.0452  0.5897
 8466TIP3    H146889   3.198   3.904  12.524 -0.6009  0.6651  0.4997
 8466TIP3    H246890   3.279   3.917  12.396 -0.3390 -0.5124  0.5334
 8467TIP3   OH246891   5.648   6.077  13.969 -0.3410 -0.4403 -0.0273
 8467TIP3    H146892   5.669   6.084  13.876  1.9477  1.1540  0.5121
 8467TIP3    H246893   5.569   6.023  13.972 -0.2207 -0.9265 -2.8370
 8468TIP3   OH246894   1.000   1.122   1.967 -0.5569  0.4149  0.0096
 8468TIP3    H146895   0.945   1.200   1.980 -1.7244 -0.3192 -0.3835
 8468TIP3    H246896   0.990   1.100   1.875  0.8161  0.5464 -0.1952
 8469TIP3   OH246897   0.459   0.649  17.128  0.4303  0.0866 -0.1084
 8469TIP3    H146898   0.551   0.665  17.106  0.8116 -1.2841  0.4121
 8469TIP3    H246899   0.432   0.580  17.066  0.1722 -0.5092  0.6590
 8470TIP3   OH246900   0.495   6.592  16.106 -0.4559 -0.1678 -0.4086
 8470TIP3    H146901   0.494   6.664  16.043 -0.2681  0.5545  0.3904
 8470TIP3    H246902   0.578   6.603  16.153 -1.3062  0.2977  1.0517
 8471TIP3   OH246903   1.499   4.516   5.560 -0.3924 -0.5195  0.0891
 8471TIP3    H146904   1.475   4.438   5.511  0.4926 -1.8029  1.5822
 8471TIP3    H246905   1.459   4.503   5.646 -1.1807  1.2476  0.0454
 8472TIP3   OH246906   3.026   1.261  10.797 -0.4768 -0.6201  0.5181
 8472TIP3    H146907   3.012   1.209  10.718 -0.4871 -1.4780  1.0853
 8472TIP3    H246908   3.118   1.287  10.792 -0.3412 -1.1045  0.4822
 8473TIP3   OH246909   5.157   3.182  15.822 -0.0353 -0.3487 -0.1726
 8473TIP3    H146910   5.070   3.141  15.825 -1.0669  1.7498  2.7260
 8473TIP3    H246911   5.217   3.108  15.809 -2.1282 -2.0585 -0.7126
 8474TIP3   OH246912   0.405   3.855  16.463 -0.2557  0.4529 -0.0528
 8474TIP3    H146913   0.454   3.913  16.405 -0.8505  0.9424 -0.0757
 8474TIP3    H246914   0.365   3.913  16.527  0.4200 -0.0898  0.8782
 8475TIP3   OH246915   1.662   5.717   2.070 -0.6302  0.0891 -0.3727
 8475TIP3    H146916   1.641   5.788   2.010 -1.6286 -0.8032 -1.1282
 8475TIP3    H246917   1.591   5.654   2.058 -0.9917 -0.0365  1.9042
 8476TIP3   OH246918   5.656   3.592  15.364  0.2897 -0.5755 -0.1604
 8476TIP3    H146919   5.638   3.676  15.322 -1.3233 -0.9535 -0.2638
 8476TIP3    H246920   5.669   3.531  15.292 -2.9927 -1.3369 -0.2423
 8477TIP3   OH246921   6.580   6.757  16.967 -0.0399  0.2034  0.1289
 8477TIP3    H146922   6.603   6.837  16.919 -0.2967 -0.1140 -0.5386
 8477TIP3    H246923   6.588   6.687  16.902  0.8929 -0.4248  0.8885
 8478TIP3   OH246924   6.728   5.964   1.128 -0.0278 -0.0966 -0.2941
 8478TIP3    H146925   6.668   6.028   1.088 -1.2962 -1.0782 -0.0184
 8478TIP3    H246926   6.671   5.892   1.155  1.4041 -1.5136 -0.9014
 8479TIP3   OH246927   3.737   5.683  16.158  0.1448 -0.2769  0.1614
 8479TIP3    H146928   3.816   5.668  16.210 -0.3841 -0.2645  0.9878
 8479TIP3    H246929   3.743   5.774  16.131 -1.1333  0.7807  2.9983
 8480TIP3   OH246930   0.556   5.297  11.163  0.2013 -0.0856 -0.5530
 8480TIP3    H146931   0.516   5.233  11.222  0.2852 -0.6105 -1.0572
 8480TIP3    H246932   0.496   5.301  11.088 -0.4583  1.3584  0.0197
 8481TIP3   OH246933   5.311   4.966   5.522  0.3529  0.9072  0.0340
 8481TIP3    H146934   5.349   4.912   5.452  1.1131 -0.0129  1.1242
 8481TIP3    H246935   5.377   4.964   5.591 -0.5414  1.5269  0.9153
 8482TIP3   OH246936   4.130   2.745   6.138  0.0421  0.1538  0.4170
 8482TIP3    H146937   4.086   2.816   6.092  0.4929 -0.2502 -0.6673
 8482TIP3    H246938   4.212   2.782   6.169  0.5821 -0.0636 -0.7321
 8483TIP3   OH246939   2.385   3.633   6.985  0.3394 -0.1058  0.2735
 8483TIP3    H146940   2.366   3.708   7.040  1.0026  0.5680 -0.3901
 8483TIP3    H246941   2.304   3.616   6.938  0.1033  0.0163  0.6361
 8484TIP3   OH246942   2.842   5.910  10.936  0.7630 -0.1912 -0.0695
 8484TIP3    H146943   2.850   5.835  10.994 -1.8437 -0.5645 -0.0675
 8484TIP3    H246944   2.831   5.985  10.994  2.7905  0.1546 -0.0788
 8485TIP3   OH246945   1.709   4.524  14.771  0.5768 -0.4477 -0.2968
 8485TIP3    H146946   1.669   4.535  14.685  1.0361  0.5404 -0.3924
 8485TIP3    H246947   1.635   4.500  14.828  0.0191  0.3303 -0.6738
 8486TIP3   OH246948   3.330   6.449  11.346 -0.8216  0.1049  0.1323
 8486TIP3    H146949   3.411   6.407  11.375  0.0741  0.9793 -0.9896
 8486TIP3    H246950   3.283   6.380  11.299 -0.1828 -0.1256 -0.1842
 8487TIP3   OH246951   0.406   4.246  13.883  0.4431  0.9887 -0.1722
 8487TIP3    H146952   0.495   4.210  13.889  1.1821  2.7333 -0.0992
 8487TIP3    H246953   0.350   4.178  13.921  1.4123 -1.1522 -2.2583
 8488TIP3   OH246954   0.824   0.040   2.368  0.6957 -0.2697 -0.2348
 8488TIP3    H146955   0.745   0.076   2.327 -0.1013 -1.4460  0.2164
 8488TIP3    H246956   0.880   0.014   2.296  1.4170  2.0289 -0.5980
 8489TIP3   OH246957   0.230   3.262   5.426  0.4254  0.3960  0.0976
 8489TIP3    H146958   0.185   3.333   5.381  2.8881  1.1243 -1.3988
 8489TIP3    H246959   0.184   3.254   5.510 -1.3725  2.1623 -0.6434
 8490TIP3   OH246960   4.905   4.860  16.035  0.9105  0.1463  0.2364
 8490TIP3    H146961   4.927   4.794  15.969 -0.7865  0.8864 -1.1572
 8490TIP3    H246962   4.944   4.828  16.116  1.3534 -1.8262 -0.7047
 8491TIP3   OH246963   2.491   0.907  12.396  0.2034  0.2314 -0.3272
 8491TIP3    H146964   2.493   0.838  12.462  1.2337  0.1024 -0.4938
 8491TIP3    H246965   2.457   0.864  12.318  0.8113 -0.0771 -0.4229
 8492TIP3   OH246966   5.293   0.056   3.585  0.2821  0.1757 -0.2125
 8492TIP3    H146967   5.378   0.013   3.573  0.3694 -0.1920  1.5573
 8492TIP3    H246968   5.303   0.142   3.543  1.2136 -0.2177 -0.8200
 8493TIP3   OH246969   2.782   3.598  12.604  0.6214 -0.1018 -0.4148
 8493TIP3    H146970   2.737   3.671  12.561 -0.7776  0.6341  2.0760
 8493TIP3    H246971   2.729   3.521  12.582  1.1031 -0.1072 -1.6219
 8494TIP3   OH246972   4.823   0.821  13.923  0.3696  0.2399  0.4238
 8494TIP3    H146973   4.815   0.764  13.999  0.5265  1.3088  1.2697
 8494TIP3    H246974   4.766   0.781  13.857  0.6081 -0.9675  0.9266
 8495TIP3   OH246975   5.612   0.560   3.811  0.0413 -0.0500  0.5299
 8495TIP3    H146976   5.690   0.545   3.757  0.9227  0.1365  1.6929
 8495TIP3    H246977   5.540   0.563   3.749  1.1658  1.4957 -0.7891
 8496TIP3   OH246978   6.542   0.548  16.136 -0.1840 -0.0830  0.2809
 8496TIP3    H146979   6.478   0.478  16.122 -0.1365 -0.2164  0.7322
 8496TIP3    H246980   6.492   0.629  16.124 -0.1001 -0.1819 -0.8822
 8497TIP3   OH246981   2.136   3.385   0.509 -0.2179  0.5601  0.2817
 8497TIP3    H146982   2.114   3.436   0.587 -1.1935 -1.3022  1.3000
 8497TIP3    H246983   2.198   3.319   0.540  0.2478  0.4829 -0.7757
 8498TIP3   OH246984   2.397   1.297  14.354  0.5493 -0.5223 -0.1973
 8498TIP3    H146985   2.421   1.205  14.342  0.1344 -0.6565 -0.0025
 8498TIP3    H246986   2.313   1.295  14.399 -0.3212 -0.0639 -1.7397
 8499TIP3   OH246987   2.136   6.135  11.006 -0.1710  0.4836  0.2261
 8499TIP3    H146988   2.135   6.154  10.913  1.7979 -1.1967 -0.2012
 8499TIP3    H246989   2.043   6.130  11.031 -0.7595  3.0288 -1.1048
 8500TIP3   OH246990   6.818   3.878  16.944  0.3129  0.8399 -0.6190
 8500TIP3    H146991   6.738   3.859  16.894  0.6014 -0.7083 -0.5239
 8500TIP3    H246992   6.888   3.841  16.892  0.6966 -0.1293  0.5493
 8501TIP3   OH246993   1.331   1.485   0.275 -0.1201 -0.1487  0.1301
 8501TIP3    H146994   1.249   1.471   0.228 -0.7357  0.1263  1.0912
 8501TIP3    H246995   1.399   1.472   0.209 -0.9456  0.0089 -0.7763
 8502TIP3   OH246996   1.654   0.451   2.013 -0.4336  0.1325  0.3585
 8502TIP3    H146997   1.660   0.366   1.970 -2.1372  0.7820 -1.3483
 8502TIP3    H246998   1.582   0.441   2.075 -1.3838  0.5660 -0.6242
 8503TIP3   OH246999   5.268   3.148  14.948  0.4218 -0.1065  0.1237
 8503TIP3    H147000   5.315   3.214  14.897 -0.4204  0.3740 -0.0296
 8503TIP3    H247001   5.231   3.089  14.883  0.5557 -0.3140  0.2343
 8504TIP3   OH247002   2.526   0.546  16.233  0.6182 -0.3115  0.3656
 8504TIP3    H147003   2.479   0.484  16.177  0.3547 -0.6062  0.9037
 8504TIP3    H247004   2.592   0.584  16.176 -1.2712  1.3239 -0.8925
 8505TIP3   OH247005   0.358   4.811  11.411  0.1836  0.4761  0.2875
 8505TIP3    H147006   0.322   4.757  11.341  1.8351  1.2116 -1.2246
 8505TIP3    H247007   0.397   4.748  11.472  0.6752 -0.1319 -0.6270
 8506TIP3   OH247008   0.567   0.421   5.085 -0.5295 -0.7712 -0.0601
 8506TIP3    H147009   0.616   0.491   5.041  0.9803 -1.8045 -0.0838
 8506TIP3    H247010   0.595   0.425   5.176 -0.6612 -1.1513 -0.0013
 8507TIP3   OH247011   3.192   5.294   0.232 -0.0846  0.3897 -0.0586
 8507TIP3    H147012   3.123   5.306   0.166 -0.0435 -0.9898 -0.3817
 8507TIP3    H247013   3.274   5.312   0.185 -0.1213  0.5120 -0.0771
 8508TIP3   OH247014   5.105   0.774  15.442 -0.5660  0.3513 -0.3266
 8508TIP3    H147015   5.193   0.811  15.448 -1.0779  2.1921 -2.7069
 8508TIP3    H247016   5.109   0.715  15.367 -0.9052 -1.1316  0.7756
 8509TIP3   OH247017   5.252   5.293   0.035 -0.1564  0.4332  0.6159
 8509TIP3    H147018   5.342   5.269   0.010 -0.1708  0.9325  0.0581
 8509TIP3    H247019   5.198   5.221   0.001 -0.1018  0.7830 -0.2445
 8510TIP3   OH247020   2.127   6.732   3.741 -0.2003 -0.0040 -0.0241
 8510TIP3    H147021   2.046   6.682   3.745 -0.3739  0.3416  1.8851
 8510TIP3    H247022   2.190   6.673   3.701 -0.3402 -1.9353  2.3634
 8511TIP3   OH247023   5.568   4.717   3.834  0.6528 -0.0695  0.1984
 8511TIP3    H147024   5.546   4.652   3.900 -0.4468  0.5132  0.4216
 8511TIP3    H247025   5.589   4.796   3.885 -1.2461  0.6998 -0.1377
 8512TIP3   OH247026   6.523   2.518   3.458  0.4689  0.1389 -0.7217
 8512TIP3    H147027   6.593   2.467   3.418  1.2674  2.2440 -2.1949
 8512TIP3    H247028   6.464   2.539   3.386 -0.9275 -0.3825  0.2305
 8513TIP3   OH247029   5.761   3.117  11.712  0.8708 -0.0465 -0.1173
 8513TIP3    H147030   5.680   3.092  11.757  0.9106  0.7393  0.4171
 8513TIP3    H247031   5.817   3.153  11.782  1.3782  0.1384 -0.6097
 8514TIP3   OH247032   3.698   6.677   5.665 -0.0841 -0.1185 -0.7018
 8514TIP3    H147033   3.754   6.643   5.595 -2.4373 -1.5659 -2.0111
 8514TIP3    H247034   3.690   6.770   5.645 -0.5717 -0.4742 -2.3152
 8515TIP3   OH247035   6.706   1.168   3.472  0.5521  0.3580  0.3190
 8515TIP3    H147036   6.709   1.141   3.380 -2.0594  0.7063  0.0682
 8515TIP3    H247037   6.702   1.086   3.521  3.2825  0.1146  0.2940
 8516TIP3   OH247038   4.864   0.660   5.839 -0.0807  0.8157  0.1306
 8516TIP3    H147039   4.860   0.642   5.933 -1.2756  0.0298 -0.0425
 8516TIP3    H247040   4.954   0.642   5.814 -0.3165 -1.4554  0.6811
 8517TIP3   OH247041   3.334   1.897   1.288  0.7637  0.3219  0.1512
 8517TIP3    H147042   3.283   1.827   1.327  0.5655  0.5653  0.3232
 8517TIP3    H247043   3.408   1.852   1.246  0.7528  0.0307  0.4467
 8518TIP3   OH247044   4.769   0.292   4.231  0.2463 -1.1814  0.7211
 8518TIP3    H147045   4.842   0.255   4.182 -1.6919 -2.5958 -1.2511
 8518TIP3    H247046   4.757   0.231   4.305  2.7540  0.6091  2.8040
 8519TIP3   OH247047   6.535   4.734  14.019  0.2396 -0.0404  0.8699
 8519TIP3    H147048   6.528   4.793  13.944 -1.8687  0.3174  1.2834
 8519TIP3    H247049   6.625   4.745  14.049  0.4715  1.5232 -0.2363
 8520TIP3   OH247050   4.537   5.771  11.742  0.8252 -0.7497  0.0405
 8520TIP3    H147051   4.486   5.742  11.817 -2.0498 -1.9121 -2.1618
 8520TIP3    H247052   4.528   5.867  11.742 -1.2564 -0.8973 -0.1151
 8521TIP3   OH247053   3.763   2.784  11.813  0.0643 -0.0969 -0.8855
 8521TIP3    H147054   3.675   2.809  11.838  0.2066 -0.7752  0.4397
 8521TIP3    H247055   3.782   2.834  11.734 -1.0630  0.9463 -0.5216
 8522TIP3   OH247056   5.642   0.049  16.210 -0.5141 -0.7152  0.0911
 8522TIP3    H147057   5.715   0.112  16.206  0.2749 -1.5360  1.0875
 8522TIP3    H247058   5.685  -0.036  16.218 -1.5810 -1.3641 -0.9246
 8523TIP3   OH247059   5.081   6.325  15.259  0.3732  0.0527  0.6418
 8523TIP3    H147060   5.152   6.373  15.216 -0.7422  1.1250 -0.0782
 8523TIP3    H247061   5.080   6.240  15.215 -1.9873  1.7287 -3.0670
 8524TIP3   OH247062   2.994   0.250   4.763 -0.4701  0.0177  0.8866
 8524TIP3    H147063   3.051   0.325   4.748 -1.9953  0.7201 -2.4512
 8524TIP3    H247064   3.040   0.177   4.720 -2.1433  0.7155 -2.3667
 8525TIP3   OH247065   2.015   3.683  15.781 -0.1962 -0.3974 -0.0430
 8525TIP3    H147066   2.027   3.589  15.764  1.6415  0.0638 -1.6426
 8525TIP3    H247067   1.975   3.717  15.701  0.0614  0.3384  0.1327
 8526TIP3   OH247068   3.763   5.579   0.015  0.3220  0.0138 -0.0644
 8526TIP3    H147069   3.729   5.652  -0.037 -1.6012  0.4315  1.6468
 8526TIP3    H247070   3.852   5.606   0.039 -0.1098  1.4914 -0.0392
 8527TIP3   OH247071   4.815   2.177  11.533  0.2004  0.2222  0.3186
 8527TIP3    H147072   4.720   2.168  11.524  0.1611  1.2197 -0.4306
 8527TIP3    H247073   4.844   2.210  11.448  1.0953  0.9000  0.8726
 8528TIP3   OH247074   0.229   3.426   2.036 -0.6945  0.7711  0.1055
 8528TIP3    H147075   0.238   3.519   2.016  0.5002  0.6011 -0.2480
 8528TIP3    H247076   0.256   3.418   2.127 -1.5385  0.8645  0.3752
 8529TIP3   OH247077   2.207   1.122   1.330 -0.2784  0.2985 -0.0226
 8529TIP3    H147078   2.237   1.114   1.239  1.3269 -0.4369  0.5297
 8529TIP3    H247079   2.219   1.214   1.351 -1.9771  0.7711 -0.9540
 8530TIP3   OH247080   1.390   0.699   5.283 -0.0530  0.3371  0.9262
 8530TIP3    H147081   1.346   0.717   5.200 -2.1718  0.5215  2.0433
 8530TIP3    H247082   1.422   0.784   5.312  1.0085  0.2212  0.1790
 8531TIP3   OH247083   3.799   6.574  11.691 -0.3613  0.1460  0.0530
 8531TIP3    H147084   3.805   6.504  11.626 -1.1371 -1.5470  1.7072
 8531TIP3    H247085   3.883   6.570  11.738 -1.0088 -0.8264  1.1966
 8532TIP3   OH247086   3.403   5.341   6.528 -0.5175 -0.7496  0.3571
 8532TIP3    H147087   3.412   5.328   6.434 -0.0307 -2.0062  0.5578
 8532TIP3    H247088   3.447   5.423   6.546  0.1324 -0.9266 -0.4000
 8533TIP3   OH247089   1.505   6.163  11.944 -0.1672 -0.0674  0.7573
 8533TIP3    H147090   1.460   6.195  12.022 -1.7825 -0.3466 -0.0149
 8533TIP3    H247091   1.450   6.191  11.871  1.1788 -0.0179 -0.2858
 8534TIP3   OH247092   4.606   6.536   3.943  0.5949  0.2954  0.2581
 8534TIP3    H147093   4.523   6.581   3.958  0.8038  0.9384 -0.4757
 8534TIP3    H247094   4.621   6.485   4.023  0.9512  2.4499  1.6287
 8535TIP3   OH247095   1.825   5.881   5.679  0.3025  0.2067 -0.1921
 8535TIP3    H147096   1.767   5.819   5.636  0.5684 -0.6800  0.6892
 8535TIP3    H247097   1.810   5.964   5.633 -0.4428 -0.3825 -1.0415
 8536TIP3   OH247098   4.482   0.308   4.284  0.7663  0.5936  0.1004
 8536TIP3    H147099   4.571   0.311   4.248  1.4042  1.1096  1.6217
 8536TIP3    H247100   4.462   0.400   4.304  0.3134  0.3705  0.7105
 8537TIP3   OH247101   1.757   3.999  13.889 -0.3282 -0.2451  0.4383
 8537TIP3    H147102   1.827   3.961  13.941  0.2787  0.2584 -0.0069
 8537TIP3    H247103   1.732   3.930  13.827 -0.7424 -0.6828  1.0762
 8538TIP3   OH247104   6.446   0.316  13.398  0.0104  0.1423  0.2401
 8538TIP3    H147105   6.516   0.293  13.460 -0.5261 -0.8679  0.4752
 8538TIP3    H247106   6.493   0.346  13.320  0.7019  1.4636  1.1216
 8539TIP3   OH247107   6.770   2.850   4.182 -0.0176  0.0102 -0.3188
 8539TIP3    H147108   6.801   2.863   4.092  0.1117 -0.3799 -0.3309
 8539TIP3    H247109   6.708   2.921   4.196  0.9459  0.8617 -0.2613
 8540TIP3   OH247110   1.069   1.961  15.219 -0.6028  0.0891  0.0867
 8540TIP3    H147111   0.998   1.917  15.266 -0.6060  0.4147  0.3951
 8540TIP3    H247112   1.083   1.908  15.140 -1.0596 -0.0807  0.1196
 8541TIP3   OH247113   2.819   4.046   5.257  0.6374 -0.1135  0.1135
 8541TIP3    H147114   2.772   4.101   5.320 -2.0263 -1.6565 -0.3780
 8541TIP3    H247115   2.882   3.998   5.310 -0.8312 -0.6121  1.4827
 8542TIP3   OH247116   3.964   6.123   1.515 -0.6104  0.3071 -0.0514
 8542TIP3    H147117   4.017   6.193   1.553  1.6399 -1.6661  0.6589
 8542TIP3    H247118   3.912   6.091   1.589  0.2941 -0.4334  0.2880
 8543TIP3   OH247119   0.604   6.434  10.773  0.5337 -0.0148 -0.5462
 8543TIP3    H147120   0.548   6.490  10.827 -0.3946 -0.6152 -0.8499
 8543TIP3    H247121   0.651   6.379  10.835  2.1976  1.7109 -0.1802
 8544TIP3   OH247122   4.323   4.719  13.358  0.1309 -0.3865  0.8248
 8544TIP3    H147123   4.369   4.751  13.280  0.0067  1.8250  1.5821
 8544TIP3    H247124   4.391   4.712  13.425 -0.0773 -0.3777  1.0397
 8545TIP3   OH247125   4.853   1.335   5.319  0.4835 -0.5123  0.3281
 8545TIP3    H147126   4.915   1.406   5.335  0.2003 -0.2058  0.0673
 8545TIP3    H247127   4.825   1.307   5.407 -1.2071  1.2862  0.4237
 8546TIP3   OH247128   1.156   6.316  14.361  0.4928 -0.7054  0.3113
 8546TIP3    H147129   1.212   6.347  14.433 -0.1418  1.4738 -0.0717
 8546TIP3    H247130   1.192   6.357  14.283 -1.7767  1.0784  0.0957
 8547TIP3   OH247131   3.790   5.091  16.791 -0.1032  0.2638  0.1400
 8547TIP3    H147132   3.743   5.129  16.865 -1.2867 -1.5918  0.4049
 8547TIP3    H247133   3.882   5.111  16.808 -0.5264  1.4572  1.1408
 8548TIP3   OH247134   1.532   1.239   1.609 -0.2169 -0.7078 -0.0302
 8548TIP3    H147135   1.489   1.261   1.526 -0.9792  1.5377  0.8851
 8548TIP3    H247136   1.625   1.243   1.589 -0.3620  1.1164 -0.5166
 8549TIP3   OH247137   3.360   2.812  13.007 -0.0322 -0.2271  0.1626
 8549TIP3    H147138   3.381   2.904  12.992 -0.4392 -0.2747 -0.8094
 8549TIP3    H247139   3.423   2.783  13.073  1.3054  0.2752 -0.8517
 8550TIP3   OH247140   3.605   2.001   4.034 -0.1235 -0.3460  0.3666
 8550TIP3    H147141   3.615   2.075   4.094 -1.3181 -1.0583  1.4770
 8550TIP3    H247142   3.513   1.975   4.041  0.1120 -1.5251 -0.4937
 8551TIP3   OH247143   3.912   4.710   2.340  0.0847  0.2766  0.3392
 8551TIP3    H147144   3.984   4.750   2.389  0.7921 -0.5046 -0.0285
 8551TIP3    H247145   3.889   4.632   2.391 -0.6835  0.6533  0.5875
 8552TIP3   OH247146   6.157   4.112  15.805 -0.0192  0.0125  0.1088
 8552TIP3    H147147   6.199   4.029  15.782 -0.8161 -0.2302 -0.5078
 8552TIP3    H247148   6.068   4.087  15.831  0.5063  0.3846  2.4783
 8553TIP3   OH247149   1.096   1.656  16.749  0.3442  0.0962 -0.0561
 8553TIP3    H147150   1.137   1.674  16.834  1.0791  0.4194 -0.4677
 8553TIP3    H247151   1.055   1.739  16.725  1.4935  0.4897 -0.7386
 8554TIP3   OH247152   2.399   5.234  10.849 -0.0107 -0.1020  0.3423
 8554TIP3    H147153   2.359   5.147  10.857 -0.2821  0.0618  0.7778
 8554TIP3    H247154   2.451   5.245  10.928  0.5881 -0.1489 -0.0390
 8555TIP3   OH247155   3.336   4.741  16.101  0.2220 -0.0624  0.1512
 8555TIP3    H147156   3.396   4.814  16.085  1.3914 -1.1303 -0.5332
 8555TIP3    H247157   3.357   4.712  16.190  1.2499 -0.8687 -0.3303
 8556TIP3   OH247158   0.971   3.729  12.725  0.0601  0.8392  0.5074
 8556TIP3    H147159   1.065   3.726  12.706 -0.4224 -1.1191 -2.0342
 8556TIP3    H247160   0.961   3.680  12.806  1.0183 -1.0069 -0.4421
 8557TIP3   OH247161   0.946   6.335  15.049 -0.3570  0.0599  0.1287
 8557TIP3    H147162   0.913   6.363  14.963 -0.8734 -0.3480  0.1876
 8557TIP3    H247163   0.896   6.256  15.069  0.8832 -0.7759  0.0826
 8558TIP3   OH247164   1.481   0.862   6.803  0.4598  0.2664  0.3717
 8558TIP3    H147165   1.440   0.948   6.809  0.8493  0.8455 -2.9522
 8558TIP3    H247166   1.410   0.803   6.777  0.2593 -0.4272  2.3269
 8559TIP3   OH247167   3.279   0.336  11.349 -0.1763  0.0605  0.5193
 8559TIP3    H147168   3.350   0.352  11.288 -1.2119  1.3943 -0.3682
 8559TIP3    H247169   3.211   0.293  11.297 -1.3313  1.8017  0.5200
 8560TIP3   OH247170   5.028   5.102  11.319  0.1655  0.1043 -0.2611
 8560TIP3    H147171   4.940   5.066  11.309 -0.5989  2.1521 -1.5587
 8560TIP3    H247172   5.033   5.172  11.254  2.8207 -0.0159 -0.2995
 8561TIP3   OH247173   6.415   2.311  11.472  0.1575 -0.1016 -0.3416
 8561TIP3    H147174   6.503   2.324  11.508  0.0503  0.3024 -0.2157
 8561TIP3    H247175   6.419   2.353  11.385  0.1523 -0.2764 -0.4270
 8562TIP3   OH247176   5.335   3.020  11.556 -0.1113  0.2060  0.4965
 8562TIP3    H147177   5.319   3.096  11.611 -1.0011  0.9764 -0.7621
 8562TIP3    H247178   5.430   3.011  11.554 -0.0194  1.0136  1.0350
 8563TIP3   OH247179   6.728   0.891   4.226 -0.1992  0.2161 -0.1274
 8563TIP3    H147180   6.738   0.828   4.154 -0.0926  0.4279 -0.2984
 8563TIP3    H247181   6.814   0.931   4.234  0.4498 -1.3675  1.5802
 8564TIP3   OH247182   4.062   3.917   2.437  0.2152 -0.2274  0.7642
 8564TIP3    H147183   4.153   3.900   2.415  0.0700 -0.9041  0.6616
 8564TIP3    H247184   4.016   3.835   2.417 -0.1606 -0.4089  2.2451
 8565TIP3   OH247185   3.771   1.357   0.253 -0.2590 -0.1796 -0.5992
 8565TIP3    H147186   3.858   1.322   0.235  0.3936  0.6357  0.8416
 8565TIP3    H247187   3.717   1.280   0.271 -0.2291 -0.8047 -2.8395
 8566TIP3   OH247188   6.054   1.891  15.461 -0.3261  0.2690 -0.1147
 8566TIP3    H147189   5.985   1.956  15.451  2.1723  3.2126  0.4199
 8566TIP3    H247190   6.123   1.919  15.401  1.5576 -0.8702  1.3821
 8567TIP3   OH247191   6.146   0.858  11.938  0.0702 -0.0665 -0.1524
 8567TIP3    H147192   6.162   0.793  11.870  0.2660 -0.6100  0.3961
 8567TIP3    H247193   6.231   0.867  11.982 -0.2186 -0.2371  0.4523
 8568TIP3   OH247194   0.404   5.725  15.726 -0.7985  0.0634  0.2516
 8568TIP3    H147195   0.408   5.645  15.675  0.3443  0.6035 -0.5540
 8568TIP3    H247196   0.467   5.711  15.797 -2.7466 -0.8920  1.9144
 8569TIP3   OH247197   2.071   1.178   5.161 -0.4517 -0.5279  0.1154
 8569TIP3    H147198   2.116   1.112   5.214  0.4103 -1.5691 -1.7827
 8569TIP3    H247199   2.065   1.138   5.074 -1.3668  1.2764 -0.7049
 8570TIP3   OH247200   5.150   1.145   4.425 -0.4122 -0.0951 -0.5889
 8570TIP3    H147201   5.162   1.074   4.489 -0.0627 -1.0177 -1.6459
 8570TIP3    H247202   5.147   1.224   4.478  0.9989 -0.7188  0.5062
 8571TIP3   OH247203   4.594   5.931   6.768 -0.0220  0.3138  0.0644
 8571TIP3    H147204   4.683   5.898   6.775  0.5120  1.7428  0.1458
 8571TIP3    H247205   4.549   5.892   6.844  1.2772  1.8294  1.7063
 8572TIP3   OH247206   3.701   3.253  16.955  0.4896  0.0664  0.3374
 8572TIP3    H147207   3.748   3.189  17.008 -0.7792 -2.2155 -1.0875
 8572TIP3    H247208   3.726   3.232  16.865 -1.8274 -0.1161 -0.3349
 8573TIP3   OH247209   1.275   2.273   2.033 -0.2270  0.0918 -0.5136
 8573TIP3    H147210   1.228   2.211   1.977 -0.4551 -0.9113  0.7517
 8573TIP3    H247211   1.212   2.296   2.101  0.3044  0.6795 -0.2160
 8574TIP3   OH247212   5.411   0.068  16.054 -0.1022  0.2833  0.1820
 8574TIP3    H147213   5.367   0.153  16.053 -0.3083  0.1908 -1.7095
 8574TIP3    H247214   5.498   0.086  16.089 -0.4434  1.1067  0.6332
 8575TIP3   OH247215   1.619   3.098   2.885 -0.6066 -0.5401 -0.3873
 8575TIP3    H147216   1.524   3.100   2.891 -0.6067  3.1730  1.0935
 8575TIP3    H247217   1.645   3.020   2.933 -2.8532 -1.4239 -0.5079
 8576TIP3   OH247218   1.243   3.751   1.142  0.4898  0.1128 -0.0577
 8576TIP3    H147219   1.308   3.735   1.210 -0.9449 -0.3975  1.2415
 8576TIP3    H247220   1.292   3.746   1.060  2.6974  2.7751  0.9569
 8577TIP3   OH247221   1.432   3.553  12.481 -0.7231 -0.1650 -0.0327
 8577TIP3    H147222   1.406   3.461  12.477 -2.2843  0.1801  0.9742
 8577TIP3    H247223   1.382   3.595  12.410  0.8547 -0.2392 -1.2402
 8578TIP3   OH247224   5.311   4.633  15.518  0.1368 -0.2289  0.0018
 8578TIP3    H147225   5.403   4.650  15.497  0.2530  0.2179  0.8175
 8578TIP3    H247226   5.268   4.624  15.433  0.8864 -0.1761 -0.3909
 8579TIP3   OH247227   4.273   5.107   2.673 -0.5739 -0.4822 -0.0866
 8579TIP3    H147228   4.198   5.062   2.712 -0.8519  0.7324  0.8368
 8579TIP3    H247229   4.345   5.046   2.683 -1.4087 -1.6604 -0.9503
 8580TIP3   OH247230   5.748   3.776  13.017  0.6087 -0.3976  0.3843
 8580TIP3    H147231   5.756   3.795  13.111 -1.6598  0.4625  0.4484
 8580TIP3    H247232   5.758   3.681  13.012  0.2045 -0.5213  1.5680
 8581TIP3   OH247233   6.416   4.593  15.501 -0.0502  0.3750 -0.3357
 8581TIP3    H147234   6.421   4.502  15.473  1.7138  0.7890 -1.5170
 8581TIP3    H247235   6.327   4.620  15.479 -0.5697 -1.0220 -0.0436
 8582TIP3   OH247236   0.768   3.888   1.044  0.3415  0.8633  0.3743
 8582TIP3    H147237   0.691   3.835   1.026  0.6025  0.3803  0.6296
 8582TIP3    H247238   0.809   3.902   0.959 -0.2473  1.4628  0.1939
 8583TIP3   OH247239   0.187   0.717  11.506 -0.3179  0.2307  0.3959
 8583TIP3    H147240   0.209   0.781  11.438 -3.8198  0.8422 -0.3446
 8583TIP3    H247241   0.159   0.639  11.458  0.1233 -0.4616  1.2260
 8584TIP3   OH247242   0.127   5.739  12.400 -0.1049 -0.3321 -0.1372
 8584TIP3    H147243   0.177   5.727  12.319 -1.0889 -0.9896 -0.6615
 8584TIP3    H247244   0.188   5.783  12.459  0.6032  0.2553 -1.2668
 8585TIP3   OH247245   6.595   3.013   1.366  0.4347  0.4408 -0.7328
 8585TIP3    H147246   6.539   3.085   1.337 -0.7983 -0.2770 -0.2104
 8585TIP3    H247247   6.602   3.024   1.461 -0.0755 -0.3179 -0.5929
 8586TIP3   OH247248   2.930   0.216   0.360  0.6250 -0.5420  0.3542
 8586TIP3    H147249   2.906   0.125   0.376  2.4920 -1.1199  0.0557
 8586TIP3    H247250   2.852   0.266   0.387 -0.6361 -2.2240 -0.0005
 8587TIP3   OH247251   1.728   2.825  12.434 -0.0708 -0.1336  0.5057
 8587TIP3    H147252   1.643   2.859  12.406 -0.8966 -1.8779  0.7471
 8587TIP3    H247253   1.745   2.870  12.517 -1.4774 -0.7946  1.1940
 8588TIP3   OH247254   0.468   5.393   0.406  0.0898  0.4739  0.1224
 8588TIP3    H147255   0.481   5.487   0.392 -1.7126  1.0010  1.6139
 8588TIP3    H247256   0.496   5.378   0.496  0.6119 -0.5037 -0.1847
 8589TIP3   OH247257   4.492   2.368  13.809  0.6670 -0.3250  0.3363
 8589TIP3    H147258   4.489   2.300  13.742  1.6405  0.7823 -0.8908
 8589TIP3    H247259   4.560   2.428  13.778  0.4439  0.7333  1.8348
 8590TIP3   OH247260   0.973   1.000  12.637 -0.4766  0.5240 -0.3439
 8590TIP3    H147261   1.050   0.943  12.640 -1.4329 -0.9411 -2.1229
 8590TIP3    H247262   0.926   0.980  12.719  0.1569  0.1456 -0.0646
 8591TIP3   OH247263   6.371   5.481   5.748  0.3618 -0.5103  0.5883
 8591TIP3    H147264   6.443   5.418   5.745 -0.1698 -1.0957 -0.6425
 8591TIP3    H247265   6.310   5.444   5.812 -0.8296 -2.3225 -1.4302
 8592TIP3   OH247266   6.774   5.628  13.688 -0.3767 -0.1548  0.1125
 8592TIP3    H147267   6.692   5.631  13.638 -0.7478  0.4080  0.7372
 8592TIP3    H247268   6.747   5.640  13.779  0.4155  0.1462  0.3145
 8593TIP3   OH247269   0.196   2.943   0.739  0.0466  0.0270 -0.2364
 8593TIP3    H147270   0.157   3.025   0.767  3.4848  1.2425  1.6593
 8593TIP3    H247271   0.226   2.960   0.650  0.0775  0.5984 -0.1217
 8594TIP3   OH247272   3.540   3.540  16.373  0.2277  1.2926 -0.1572
 8594TIP3    H147273   3.624   3.584  16.383  1.5249 -0.9381 -0.5399
 8594TIP3    H247274   3.524   3.499  16.459  0.0305  0.9049 -0.3757
 8595TIP3   OH247275   0.179   6.086  15.722  0.1273 -0.2416  0.3394
 8595TIP3    H147276   0.179   5.990  15.729 -2.1301 -0.2415  1.4857
 8595TIP3    H247277   0.125   6.104  15.645  0.1163  0.1058  0.4295
 8596TIP3   OH247278   6.639   0.977  16.647 -0.0477 -0.2986 -0.0146
 8596TIP3    H147279   6.672   1.067  16.652 -1.2363  0.1632 -0.3224
 8596TIP3    H247280   6.552   0.981  16.686 -0.3860 -1.1836 -0.6544
 8597TIP3   OH247281   6.465   3.319   5.603 -0.4469  0.4240  0.1137
 8597TIP3    H147282   6.472   3.413   5.583  1.0414  0.5014  0.8674
 8597TIP3    H247283   6.552   3.295   5.634 -1.0306 -1.0327  0.6917
 8598TIP3   OH247284   6.660   0.428  12.585  0.5352  0.0594  0.1713
 8598TIP3    H147285   6.684   0.428  12.677  0.1910 -0.5272  0.2630
 8598TIP3    H247286   6.642   0.336  12.564 -1.3233  0.4155  0.0384
 8599TIP3   OH247287   0.515   0.139   5.515  0.2950  0.1709  0.0254
 8599TIP3    H147288   0.598   0.091   5.510  0.7295  0.9310 -0.1879
 8599TIP3    H247289   0.540   0.230   5.528 -0.4267  0.7792 -2.3169
 8600TIP3   OH247290   2.383   3.120   0.871 -0.1188 -0.3973 -0.1926
 8600TIP3    H147291   2.465   3.075   0.893  0.9848  1.6714  0.1542
 8600TIP3    H247292   2.355   3.161   0.952 -1.3218 -0.7452 -0.4031
 8601TIP3   OH247293   3.056   0.151   3.470  0.2344  0.2787 -0.1698
 8601TIP3    H147294   3.143   0.189   3.458 -0.1570  0.8450 -1.4046
 8601TIP3    H247295   2.996   0.219   3.438 -0.8018  0.6732  2.4122
 8602TIP3   OH247296   6.484   6.239  10.933 -0.5767 -0.6047  0.8629
 8602TIP3    H147297   6.460   6.190  11.011  1.5805 -3.1750  0.0410
 8602TIP3    H247298   6.486   6.173  10.863 -0.8006  1.3042 -1.0559
 8603TIP3   OH247299   3.337   0.360   2.750  0.5151  0.1774 -0.0234
 8603TIP3    H147300   3.326   0.312   2.668 -1.6593  0.5228  0.0192
 8603TIP3    H247301   3.248   0.370   2.784  1.4119 -0.8013  2.8942
 8604TIP3   OH247302   4.546   2.881  14.842  0.6256  0.4626  0.0467
 8604TIP3    H147303   4.451   2.875  14.841  0.6215 -0.5673  2.2433
 8604TIP3    H247304   4.565   2.974  14.855 -0.0209  0.7994 -1.2442
 8605TIP3   OH247305   0.537   1.918   6.493  0.7788 -0.3620 -0.3167
 8605TIP3    H147306   0.618   1.887   6.453  1.9342  1.8840  0.0677
 8605TIP3    H247307   0.474   1.921   6.422  1.2134 -1.4833 -0.7720
 8606TIP3   OH247308   0.100   1.531  11.310 -0.0823  0.0521 -0.0393
 8606TIP3    H147309   0.061   1.447  11.288  0.3886 -0.4270  0.8974
 8606TIP3    H247310   0.179   1.535  11.255 -1.0390  0.7158 -1.4212
 8607TIP3   OH247311   3.232   5.100   4.580  0.0386 -0.2919  0.6465
 8607TIP3    H147312   3.243   5.034   4.512 -1.6162 -0.4706  0.5249
 8607TIP3    H247313   3.300   5.165   4.561  1.2682 -1.5942  0.3772
 8608TIP3   OH247314   1.407   2.866  16.145  0.1804 -0.1088 -0.3003
 8608TIP3    H147315   1.331   2.819  16.112  0.8580 -0.2529 -1.7161
 8608TIP3    H247316   1.422   2.829  16.232  0.5883 -2.4184 -1.2803
 8609TIP3   OH247317   5.110   5.580  11.854 -0.1577 -0.8596  0.1558
 8609TIP3    H147318   5.124   5.495  11.812 -0.0447 -0.6641 -0.2063
 8609TIP3    H247319   5.119   5.562  11.948 -0.8907 -1.3944  0.1322
 8610TIP3   OH247320   5.949   5.270   2.450  0.4863  0.2845 -0.1996
 8610TIP3    H147321   6.007   5.343   2.426  1.3376 -0.5360 -0.6786
 8610TIP3    H247322   5.914   5.238   2.367 -0.0847  0.2838  0.0295
 8611TIP3   OH247323   5.805   0.649  12.064 -0.3484  0.2693  0.2071
 8611TIP3    H147324   5.888   0.602  12.052 -1.3968 -1.8833  0.7351
 8611TIP3    H247325   5.792   0.648  12.159 -0.8678  0.7924  0.1399
 8612TIP3   OH247326   5.834   0.078   5.796 -0.1063  0.0697  0.5074
 8612TIP3    H147327   5.794   0.074   5.883  0.0871  0.1090  0.6007
 8612TIP3    H247328   5.761   0.095   5.736 -0.6213 -2.3755  0.3511
 8613TIP3   OH247329   5.637   0.648   1.789 -0.1222 -0.4396  0.7189
 8613TIP3    H147330   5.604   0.642   1.879  1.3617 -1.5553  1.2401
 8613TIP3    H247331   5.574   0.598   1.737  0.2969 -1.9533  1.5804
 8614TIP3   OH247332   3.001   6.432   5.115  0.0394 -0.4374  0.8214
 8614TIP3    H147333   2.907   6.444   5.102  0.0594  1.2776  1.8975
 8614TIP3    H247334   3.008   6.369   5.186 -0.2716 -0.9740  0.3837
 8615TIP3   OH247335   5.408   1.997   0.572  0.2316  0.0953  0.5417
 8615TIP3    H147336   5.339   2.027   0.513  0.2089 -1.4993 -0.2855
 8615TIP3    H247337   5.391   1.903   0.583  1.1986  0.0400  1.7997
 8616TIP3   OH247338   3.160   1.685   2.978 -0.4107  0.1312 -0.2294
 8616TIP3    H147339   3.115   1.648   2.902 -1.0689 -0.0086  0.2219
 8616TIP3    H247340   3.226   1.743   2.941 -0.7697  0.1113 -0.9085
 8617TIP3   OH247341   1.781   6.331  12.406  0.1605 -0.4598  0.0008
 8617TIP3    H147342   1.876   6.322  12.392  0.4894 -0.7942  2.1158
 8617TIP3    H247343   1.774   6.394  12.478 -1.1639 -1.4940  0.8062
 8618TIP3   OH247344   4.834   5.339   5.504  0.2127  0.3069 -0.3617
 8618TIP3    H147345   4.787   5.324   5.422  0.9663 -0.0406 -0.7481
 8618TIP3    H247346   4.892   5.263   5.512 -0.2386  0.0599  0.7821
 8619TIP3   OH247347   0.598   5.936   2.477  0.5525 -0.0038  0.3969
 8619TIP3    H147348   0.565   6.026   2.483  0.5798  0.0047  0.4196
 8619TIP3    H247349   0.687   5.946   2.442  0.5004 -0.0325  0.2557
 8620TIP3   OH247350   2.483   2.174  14.755 -0.0296  0.2625 -0.3130
 8620TIP3    H147351   2.543   2.145  14.823  0.3225  1.8889  0.1010
 8620TIP3    H247352   2.440   2.252  14.791 -1.3378 -0.0198 -1.1660
 8621TIP3   OH247353   6.429   1.310  14.059 -0.7061  0.0829  0.0541
 8621TIP3    H147354   6.345   1.313  14.014 -1.6459  1.7514  1.7772
 8621TIP3    H247355   6.449   1.401  14.078  1.5122 -0.2797 -0.2635
 8622TIP3   OH247356   2.571   4.253   3.378  0.2950 -0.2182  0.4081
 8622TIP3    H147357   2.520   4.294   3.447  0.2356  0.4918 -0.0484
 8622TIP3    H247358   2.506   4.217   3.318  0.2823  1.1474 -0.4527
 8623TIP3   OH247359   0.351   5.312  10.992 -0.1757  0.5929  0.3720
 8623TIP3    H147360   0.312   5.225  10.989  0.8870  0.1284 -2.7557
 8623TIP3    H247361   0.276   5.371  10.996 -0.9278 -0.3688  1.7948
 8624TIP3   OH247362   6.152   0.351   0.296  0.3240 -0.0375 -0.1131
 8624TIP3    H147363   6.204   0.271   0.306 -1.8353 -1.3466  1.1652
 8624TIP3    H247364   6.078   0.325   0.242 -0.6879  0.9659  0.7603
 8625TIP3   OH247365   1.201   4.622   3.212 -0.0952 -0.1548  0.4314
 8625TIP3    H147366   1.166   4.639   3.125 -2.8069 -1.9344  1.0256
 8625TIP3    H247367   1.296   4.625   3.202 -0.3281  0.0154 -2.4822
 8626TIP3   OH247368   1.477   3.772   1.279 -0.2307  0.0890  0.4997
 8626TIP3    H147369   1.531   3.742   1.352  1.0562  0.5772 -0.2333
 8626TIP3    H247370   1.537   3.782   1.206 -1.2414  1.0244 -0.2414
 8627TIP3   OH247371   2.676   0.834  13.815 -0.1114  0.0170  0.0396
 8627TIP3    H147372   2.626   0.772  13.868 -0.4596  0.0539 -0.2429
 8627TIP3    H247373   2.719   0.891  13.878 -2.6074  1.7568  0.2903
 8628TIP3   OH247374   4.100   6.119  12.955  0.3178 -0.1041  0.1043
 8628TIP3    H147375   4.083   6.208  12.924  1.2632  0.9965  2.4543
 8628TIP3    H247376   4.167   6.085  12.896  0.2452  0.9091 -0.5851
 8629TIP3   OH247377   1.922   1.114  13.110 -0.3732 -0.5922 -0.0948
 8629TIP3    H147378   1.906   1.063  13.030  0.4504  2.0655 -2.1140
 8629TIP3    H247379   2.015   1.138  13.104 -1.1495  2.7926 -0.3882
 8630TIP3   OH247380   6.092   2.361   0.808  0.2592 -0.0367  0.1854
 8630TIP3    H147381   6.103   2.319   0.893 -2.2135 -0.0081  0.5903
 8630TIP3    H247382   6.001   2.343   0.784  0.8450  0.0290 -2.4294
 8631TIP3   OH247383   3.066   4.103  14.210  0.5227  0.2743  0.3450
 8631TIP3    H147384   3.054   4.195  14.233  1.5948  0.5224 -0.0711
 8631TIP3    H247385   3.127   4.069  14.276  1.4688  0.2989 -0.5042
 8632TIP3   OH247386   4.594   6.742   2.600  0.5302  0.4874 -0.5925
 8632TIP3    H147387   4.677   6.707   2.632  0.1383 -2.6511 -2.5481
 8632TIP3    H247388   4.553   6.781   2.677  2.0110 -1.6262  1.4130
 8633TIP3   OH247389   5.935   4.380  13.874 -0.4045  0.1177 -0.2298
 8633TIP3    H147390   5.922   4.327  13.953  0.1210  0.0932 -0.1571
 8633TIP3    H247391   6.020   4.423  13.887 -1.1227  1.5306  0.0299
 8634TIP3   OH247392   2.705   0.956  11.439 -0.2369 -0.2462  0.1680
 8634TIP3    H147393   2.780   0.989  11.390 -0.7874 -1.6595 -1.7537
 8634TIP3    H247394   2.737   0.878  11.483 -0.5201 -0.7236 -0.4700
 8635TIP3   OH247395   2.965   3.130   0.178  1.1845 -0.7449  0.1190
 8635TIP3    H147396   3.017   3.182   0.117  1.8250  1.2523  2.2295
 8635TIP3    H247397   2.877   3.128   0.139  1.4311  0.9655 -0.5954
 8636TIP3   OH247398   6.584   4.819  11.689 -0.5809  0.0205 -0.3808
 8636TIP3    H147399   6.529   4.882  11.736  1.2666  1.2160  0.3080
 8636TIP3    H247400   6.669   4.826  11.732  0.4602 -0.8193 -2.2060
 8637TIP3   OH247401   6.788   6.025   4.743  0.2100  0.5804  0.4679
 8637TIP3    H147402   6.729   6.073   4.685 -1.7273 -1.1299  0.9049
 8637TIP3    H247403   6.813   5.948   4.692 -0.8420 -0.5138  1.5422
 8638TIP3   OH247404   5.242   3.017   4.770 -0.1529  0.0935  0.0900
 8638TIP3    H147405   5.215   2.951   4.706  1.6324 -0.3242 -0.2898
 8638TIP3    H247406   5.299   3.076   4.722 -0.5174  1.0565  0.8066
 8639TIP3   OH247407   5.212   4.252   4.964  0.4300  0.1293 -0.0114
 8639TIP3    H147408   5.287   4.308   4.945  0.6457 -0.4248 -0.8306
 8639TIP3    H247409   5.146   4.277   4.900  0.7915 -1.0414 -0.8810
 8640TIP3   OH247410   3.915   2.679  16.085 -0.0197 -0.4905  0.6144
 8640TIP3    H147411   3.939   2.674  15.993 -0.0287  0.0125  0.5824
 8640TIP3    H247412   3.846   2.745  16.089  0.8684  0.4323  1.1516
 8641TIP3   OH247413   4.278   2.097  16.445 -0.0544  0.7949  0.0560
 8641TIP3    H147414   4.292   2.146  16.365 -3.3636  0.5349 -0.8102
 8641TIP3    H247415   4.242   2.013  16.416  1.3979 -0.4681  1.7113
 8642TIP3   OH247416   2.642   3.403   2.123  0.3508 -0.5293  0.6033
 8642TIP3    H147417   2.668   3.338   2.057 -0.4197  2.2707 -2.7202
 8642TIP3    H247418   2.718   3.461   2.130 -0.1860  0.1318  0.9930
 8643TIP3   OH247419   0.706   4.278   0.791 -0.3595  0.5116 -0.2358
 8643TIP3    H147420   0.721   4.330   0.713 -1.0540  0.8317 -0.1615
 8643TIP3    H247421   0.673   4.194   0.758 -0.4233  0.5617 -0.2993
 8644TIP3   OH247422   5.873   4.001  16.235  0.4442  0.8277 -0.3493
 8644TIP3    H147423   5.778   3.993  16.230  0.2139 -0.1391  2.8809
 8644TIP3    H247424   5.888   4.080  16.287  1.4158  1.0553 -0.9568
 8645TIP3   OH247425   3.511   6.722   5.185  0.0458  0.8356 -0.3593
 8645TIP3    H147426   3.579   6.742   5.249  0.0706  1.4988 -0.5841
 8645TIP3    H247427   3.550   6.654   5.129  0.3434  0.8662 -0.1916
 8646TIP3   OH247428   5.853   5.012   0.542  0.4100  0.4922  0.1613
 8646TIP3    H147429   5.856   4.941   0.606 -0.2350 -0.2669 -0.6276
 8646TIP3    H247430   5.920   4.989   0.478  1.3379  1.4630  0.7540
 8647TIP3   OH247431   6.552   0.375   1.939  0.4027  0.1343 -0.0468
 8647TIP3    H147432   6.632   0.335   1.973  0.7311  0.1850 -0.7501
 8647TIP3    H247433   6.507   0.304   1.892  0.5100  0.3441 -0.4700
 8648TIP3   OH247434   5.952   1.017   2.281 -0.5948  1.1601 -0.2176
 8648TIP3    H147435   5.891   1.005   2.354 -0.3731  2.5354  0.2175
 8648TIP3    H247436   5.897   1.013   2.203 -1.3206  2.6180  0.1793
 8649TIP3   OH247437   0.038   0.585  15.418 -0.3641  0.3460 -0.0046
 8649TIP3    H147438   0.115   0.529  15.427  0.3925  1.5661  1.4897
 8649TIP3    H247439  -0.036   0.525  15.424  0.4395 -0.6995 -0.2534
 8650TIP3   OH247440   4.982   3.540  11.940 -0.0195  0.4498  0.0151
 8650TIP3    H147441   5.025   3.487  12.007 -0.6233 -0.4841 -0.3200
 8650TIP3    H247442   5.054   3.580  11.891  0.4422 -0.1128  0.2287
 8651TIP3   OH247443   5.747   6.835   1.739 -0.5413  0.0843 -0.3900
 8651TIP3    H147444   5.704   6.809   1.658 -1.3181  2.0948 -0.6878
 8651TIP3    H247445   5.780   6.923   1.721  2.0348 -0.6157  0.4836
 8652TIP3   OH247446   4.316   5.079  16.920 -0.0284  0.1387  0.2533
 8652TIP3    H147447   4.400   5.095  16.961  0.3874 -0.5540 -0.3085
 8652TIP3    H247448   4.334   5.080  16.826 -0.8362  1.0059  0.0926
 8653TIP3   OH247449   4.040   0.145  16.025  0.2284  0.8714 -0.4102
 8653TIP3    H147450   4.032   0.174  15.934 -0.3956  0.6338 -0.4337
 8653TIP3    H247451   4.119   0.092  16.027  0.8456  1.7685 -0.5781
 8654TIP3   OH247452   1.352   4.647   3.781 -0.0491 -0.1867 -0.2830
 8654TIP3    H147453   1.267   4.691   3.792  0.2351  0.1443  0.8140
 8654TIP3    H247454   1.365   4.643   3.687 -0.6458  1.0353 -0.4468
 8655TIP3   OH247455   3.551   1.514  14.160  0.4599  0.3212  1.0507
 8655TIP3    H147456   3.585   1.599  14.132  0.4486  0.4312  1.3773
 8655TIP3    H247457   3.565   1.512  14.254 -1.0105  0.6356  1.3033
 8656TIP3   OH247458   6.284   1.197   0.276  0.1041  0.4436 -0.5237
 8656TIP3    H147459   6.198   1.229   0.302  0.6756  1.6601 -0.0272
 8656TIP3    H247460   6.293   1.112   0.319  0.4069  1.7166  2.1335
 8657TIP3   OH247461   3.738   3.421   0.660 -0.4742 -0.2801  0.6587
 8657TIP3    H147462   3.654   3.419   0.616  0.5165  0.0062 -1.3531
 8657TIP3    H247463   3.756   3.330   0.684 -1.3742 -0.3228  1.1998
 8658TIP3   OH247464   2.406   0.472  13.771 -0.0734  0.0010 -0.2219
 8658TIP3    H147465   2.334   0.529  13.745  0.7264  0.8677 -0.5893
 8658TIP3    H247466   2.407   0.476  13.867 -1.2192 -0.9328 -0.1451
 8659TIP3   OH247467   0.348   3.869   2.830 -0.0109  0.0879  0.0190
 8659TIP3    H147468   0.299   3.897   2.753 -2.8562 -4.1592 -0.0335
 8659TIP3    H247469   0.288   3.883   2.903  1.7237  1.7703  1.2053
 8660TIP3   OH247470   2.815   4.732  11.022 -1.0788  0.0625 -0.1236
 8660TIP3    H147471   2.780   4.800  10.965 -2.6276 -0.1507  0.4955
 8660TIP3    H247472   2.807   4.769  11.110  3.3355  1.2925 -0.0332
 8661TIP3   OH247473   5.764   0.959   5.293  0.3499 -0.2910  0.1605
 8661TIP3    H147474   5.697   0.980   5.228 -0.2080  0.9941  1.0978
 8661TIP3    H247475   5.718   0.907   5.359  0.4724 -0.1045  0.3946
 8662TIP3   OH247476   4.189   3.818  13.353 -0.0091 -0.4913  0.6350
 8662TIP3    H147477   4.096   3.808  13.369 -0.0611  1.2519  1.6042
 8662TIP3    H247478   4.221   3.870  13.426  1.3320  0.6877 -0.7276
 8663TIP3   OH247479   5.449   2.472   4.421 -0.0181 -0.1480  0.3394
 8663TIP3    H147480   5.423   2.460   4.512 -1.1110  1.3298  0.2738
 8663TIP3    H247481   5.542   2.494   4.426  0.7917 -3.3002  0.7796
 8664TIP3   OH247482   4.251   6.328  12.605 -0.3072  0.1988 -0.2680
 8664TIP3    H147483   4.155   6.331  12.611 -0.2374  0.3645  1.0607
 8664TIP3    H247484   4.271   6.235  12.594 -0.6990  0.3576 -3.0773
 8665TIP3   OH247485   2.520   3.664  16.186  0.3305 -0.0034  0.0991
 8665TIP3    H147486   2.565   3.656  16.102  1.9141  2.1432  0.6494
 8665TIP3    H247487   2.583   3.709  16.242 -1.2724 -0.0070  1.9912
 8666TIP3   OH247488   2.838   3.266  13.716 -0.3322 -0.0905  0.2284
 8666TIP3    H147489   2.926   3.234  13.734 -0.4607  0.4021  1.9490
 8666TIP3    H247490   2.826   3.252  13.622  1.7122  0.1811 -0.1244
 8667TIP3   OH247491   0.871   2.196   6.577  0.3908 -0.0360  0.4047
 8667TIP3    H147492   0.796   2.157   6.621  1.3804 -0.7989  1.5046
 8667TIP3    H247493   0.856   2.290   6.581 -1.6682 -0.1898 -1.5915
 8668TIP3   OH247494   1.279   5.539   5.028 -0.6029 -0.3023 -0.3424
 8668TIP3    H147495   1.330   5.521   5.107  1.5101  1.5621 -1.1705
 8668TIP3    H247496   1.256   5.453   4.994 -0.3783 -1.1548  1.5512
 8669TIP3   OH247497   6.654   4.373  12.158 -0.0586  0.3209 -0.2879
 8669TIP3    H147498   6.736   4.416  12.134  0.6163  0.3042  1.7880
 8669TIP3    H247499   6.615   4.431  12.223 -0.5119 -0.8407  0.5025
 8670TIP3   OH247500   2.727   0.204   2.749  0.5700 -0.1844  0.6238
 8670TIP3    H147501   2.771   0.119   2.755  0.2038 -0.3129  2.0162
 8670TIP3    H247502   2.768   0.248   2.675 -0.1143 -2.0739 -0.9709
 8671TIP3   OH247503   5.553   3.158   0.512 -0.8194  0.5790 -0.2626
 8671TIP3    H147504   5.522   3.127   0.597  0.5011  1.6076  0.6259
 8671TIP3    H247505   5.473   3.170   0.461 -1.5704 -1.2892  0.3536
 8672TIP3   OH247506   5.272   1.327   2.474 -0.3568 -0.4040  0.3932
 8672TIP3    H147507   5.348   1.381   2.495 -1.8788  1.9487  0.2154
 8672TIP3    H247508   5.212   1.340   2.547 -1.2257 -0.9735 -0.1916
 8673TIP3   OH247509   5.627   4.210  12.263  0.5989  0.6169  0.2881
 8673TIP3    H147510   5.607   4.265  12.187  2.0004  0.8922  0.0917
 8673TIP3    H247511   5.592   4.259  12.338 -1.3907  0.0289 -0.2023
 8674TIP3   OH247512   0.434   2.250   4.786 -0.6101 -0.0962  0.0626
 8674TIP3    H147513   0.363   2.187   4.775 -0.5095 -0.3533  0.8392
 8674TIP3    H247514   0.408   2.303   4.861  0.1446 -0.3780  0.5335
 8675TIP3   OH247515   4.576   2.422   5.708 -0.6158 -0.4103 -0.0186
 8675TIP3    H147516   4.503   2.438   5.650  0.0240 -0.8256 -0.9608
 8675TIP3    H247517   4.549   2.460   5.792 -1.2293  0.9231 -0.7846
 8676TIP3   OH247518   4.790   5.108  16.032  0.1284  1.2284 -0.5647
 8676TIP3    H147519   4.819   5.017  16.040 -0.5287  1.1282  1.4823
 8676TIP3    H247520   4.706   5.110  16.079  0.3217  2.9529 -0.2170
 8677TIP3   OH247521   2.447   2.685  11.288  0.4974 -0.0380  0.3419
 8677TIP3    H147522   2.366   2.724  11.256  0.5705  0.5957  0.9189
 8677TIP3    H247523   2.422   2.637  11.366  0.6877  0.2528  0.5864
 8678TIP3   OH247524   1.113   5.497   1.022  0.1305  0.3934  0.0555
 8678TIP3    H147525   1.150   5.412   1.042 -0.6813 -0.0875 -0.4423
 8678TIP3    H247526   1.146   5.518   0.934 -0.8135 -0.0807 -0.4310
 8679TIP3   OH247527   0.224   0.147   0.804  0.1491 -0.1526  0.2524
 8679TIP3    H147528   0.209   0.190   0.887  0.6787 -0.4280  0.4939
 8679TIP3    H247529   0.312   0.110   0.811 -0.8837 -2.7743  0.7422
 8680TIP3   OH247530   4.403   5.737   1.471  0.0708  0.4642  0.0546
 8680TIP3    H147531   4.357   5.781   1.400  0.7547  2.4316  0.7573
 8680TIP3    H247532   4.419   5.805   1.536 -0.8028 -1.3235  2.2816
 8681TIP3   OH247533   5.269   4.110   1.998  0.5296  0.7466 -0.1110
 8681TIP3    H147534   5.176   4.088   1.995  0.9405 -1.2721  0.4601
 8681TIP3    H247535   5.285   4.132   2.090  0.7960  0.1333 -0.0049
 8682TIP3   OH247536   5.938   1.282   4.782 -0.2457 -0.2406 -0.1312
 8682TIP3    H147537   5.861   1.246   4.827  0.7997 -2.0792  0.2977
 8682TIP3    H247538   6.012   1.247   4.830  0.9195  2.4189  0.1794
 8683TIP3   OH247539   3.320   2.702   3.040 -0.9452 -0.2702 -0.3352
 8683TIP3    H147540   3.261   2.719   3.113 -0.6207 -0.9060  0.0751
 8683TIP3    H247541   3.267   2.654   2.977 -1.4756  1.0227 -0.9097
 8684TIP3   OH247542   0.113   4.656  11.617  0.0208  0.1064  0.3147
 8684TIP3    H147543   0.057   4.711  11.562  0.5332 -1.9477 -2.5097
 8684TIP3    H247544   0.201   4.673  11.586  0.6897  0.9779  2.5494
 8685TIP3   OH247545   4.586   2.865   0.275  0.6649 -0.4464  0.3472
 8685TIP3    H147546   4.642   2.889   0.201  1.0900 -0.4019  0.6800
 8685TIP3    H247547   4.642   2.814   0.333 -0.4986 -3.2887 -0.8602
 8686TIP3   OH247548   2.045   5.845  13.133  0.2466  0.1947  0.1685
 8686TIP3    H147549   2.125   5.838  13.185  1.8039  2.6217 -1.7040
 8686TIP3    H247550   2.057   5.783  13.062  0.3372  0.3524  0.0459
 8687TIP3   OH247551   3.498   3.715   5.797 -0.0341 -0.5149  0.2126
 8687TIP3    H147552   3.486   3.783   5.730 -0.1281 -0.0260  0.7145
 8687TIP3    H247553   3.517   3.636   5.748 -0.3708 -0.2201 -0.4078
 8688TIP3   OH247554   0.525   4.325  12.396 -0.1258  0.6410 -0.6525
 8688TIP3    H147555   0.468   4.250  12.380 -0.0912  0.5741 -0.4716
 8688TIP3    H247556   0.554   4.352  12.309 -2.3467  2.2008 -1.0060
 8689TIP3   OH247557   2.339   6.462  10.997 -0.4607 -0.0216 -0.3369
 8689TIP3    H147558   2.401   6.516  10.948 -0.0007  0.6163  0.9125
 8689TIP3    H247559   2.393   6.405  11.051 -0.9648 -0.7593 -0.5918
 8690TIP3   OH247560   3.551   6.086   0.119 -0.0437 -0.6933 -0.0192
 8690TIP3    H147561   3.471   6.064   0.167 -0.2439 -0.5538 -0.2892
 8690TIP3    H247562   3.552   6.025   0.045  0.6489 -1.4148  0.5605
 8691TIP3   OH247563   3.427   3.973  16.842  0.5422  0.2789  0.1391
 8691TIP3    H147564   3.445   3.899  16.783  2.9848  0.4273  0.6131
 8691TIP3    H247565   3.498   4.035  16.825  0.1849  1.2086  1.8333
 8692TIP3   OH247566   4.081   4.256  13.749 -0.7725 -0.0182 -0.1227
 8692TIP3    H147567   4.133   4.235  13.671  2.2531  0.9192  1.5040
 8692TIP3    H247568   4.033   4.176  13.769  0.2086 -1.0072 -1.5896
 8693TIP3   OH247569   0.413   1.693  11.889 -0.5111  0.1227  0.2821
 8693TIP3    H147570   0.464   1.754  11.835 -0.0260 -0.7301 -0.2437
 8693TIP3    H247571   0.326   1.693  11.848  0.3360 -1.8946 -1.6817
 8694TIP3   OH247572   2.068   3.720  16.521  0.2942  0.2047  0.0029
 8694TIP3    H147573   2.067   3.736  16.615 -2.8049  0.9769 -0.0309
 8694TIP3    H247574   2.022   3.796  16.483  0.0420 -0.8457 -1.9475
 8695TIP3   OH247575   0.771   4.179   6.272 -0.1291  0.2532 -0.3988
 8695TIP3    H147576   0.676   4.168   6.268 -0.2568  1.3811 -0.6697
 8695TIP3    H247577   0.804   4.091   6.290 -1.1717 -0.2994 -1.0884
 8696TIP3   OH247578   3.538   0.058   3.643 -0.1474 -0.6520 -0.0063
 8696TIP3    H147579   3.574   0.134   3.597 -0.9911 -0.8372 -1.0273
 8696TIP3    H247580   3.479   0.095   3.708 -1.5782 -0.4089 -1.3759
 8697TIP3   OH247581   6.484   5.286  12.402 -0.0039 -0.3508  0.7266
 8697TIP3    H147582   6.537   5.237  12.465 -0.1750 -1.0733  0.3163
 8697TIP3    H247583   6.505   5.378  12.420  0.3275 -0.5695  1.4983
 8698TIP3   OH247584   4.085   6.020  12.425  0.2477 -0.1656 -0.8090
 8698TIP3    H147585   4.174   6.047  12.405  0.9211 -1.4419  0.2603
 8698TIP3    H247586   4.083   5.926  12.405 -0.4777 -0.4159  0.3171
 8699TIP3   OH247587   3.762   3.530   5.403 -0.2550  0.5454 -0.5059
 8699TIP3    H147588   3.718   3.445   5.400  0.6596  0.0019  0.8330
 8699TIP3    H247589   3.727   3.577   5.327 -0.1693 -1.2981 -1.7630
 8700TIP3   OH247590   4.956   4.806   1.696 -0.3823  0.1962  0.5504
 8700TIP3    H147591   4.939   4.850   1.612 -1.0535  1.1199  1.1530
 8700TIP3    H247592   5.035   4.848   1.729 -0.1915 -0.0772  0.4400
 8701TIP3   OH247593   3.506   2.099   3.492 -0.0673 -0.5522 -0.5373
 8701TIP3    H147594   3.447   2.175   3.495 -0.0738 -0.4816 -1.8433
 8701TIP3    H247595   3.572   2.118   3.558 -1.3552 -0.5211  0.8123
 8702TIP3   OH247596   5.123   3.583  12.192  0.5652 -0.6835 -0.3422
 8702TIP3    H147597   5.171   3.613  12.115 -1.9329  0.8604 -1.4408
 8702TIP3    H247598   5.140   3.649  12.259 -0.4717  0.2422 -0.9518
 8703TIP3   OH247599   3.079   3.395   0.637  0.2210  0.4509  0.4628
 8703TIP3    H147600   3.090   3.485   0.608  0.5515  1.2171  2.7321
 8703TIP3    H247601   3.007   3.360   0.584  1.0066  1.5697 -1.4103
 8704TIP3   OH247602   6.624   6.143  17.014 -0.2375 -0.7917 -0.1756
 8704TIP3    H147603   6.579   6.170  17.094 -0.2518 -0.5208 -0.2749
 8704TIP3    H247604   6.613   6.048  17.011  1.6218 -1.1065  1.2847
 8705TIP3   OH247605   1.615   6.001   4.637 -0.1656  0.3649 -0.2145
 8705TIP3    H147606   1.647   5.936   4.698 -0.0709 -1.2378 -1.8815
 8705TIP3    H247607   1.533   6.033   4.676 -0.4797 -1.1249  0.4152
 8706TIP3   OH247608   0.780   2.507   2.660  0.1255  0.1720  0.3020
 8706TIP3    H147609   0.702   2.464   2.694 -1.2073 -0.3538 -3.0045
 8706TIP3    H247610   0.824   2.439   2.609  0.0018  1.6587 -1.9288
 8707TIP3   OH247611   6.651   5.471  12.184  0.1966 -0.0930  0.2312
 8707TIP3    H147612   6.731   5.476  12.130 -1.8598  2.1492 -2.9674
 8707TIP3    H247613   6.651   5.553  12.233  0.7913 -1.0223  1.8710
 8708TIP3   OH247614   4.752   4.725   1.875  0.0452  0.1384  1.3667
 8708TIP3    H147615   4.755   4.802   1.932 -2.4565  1.2147  0.1928
 8708TIP3    H247616   4.811   4.746   1.803  0.3830  0.3731  1.7067
 8709TIP3   OH247617   0.907   2.350   2.021  0.0787 -0.0268  0.0934
 8709TIP3    H147618   0.848   2.425   2.011  1.3932  1.1637  1.0362
 8709TIP3    H247619   0.956   2.368   2.101  3.0258 -0.0361 -1.5561
 8710TIP3   OH247620   4.548   3.950  11.608  0.1830 -0.2498  0.7253
 8710TIP3    H147621   4.474   3.944  11.547  1.2708  3.2768 -1.2334
 8710TIP3    H247622   4.620   3.984  11.555  2.0520  0.2761  3.3871
 8711TIP3   OH247623   5.504   4.839   0.563 -0.2823 -0.2827 -0.0775
 8711TIP3    H147624   5.417   4.808   0.537 -0.4635 -1.5918  1.8657
 8711TIP3    H247625   5.499   4.934   0.558 -1.0371 -0.3789 -2.2960
 8712TIP3   OH247626   3.307   2.553  10.694 -0.4288 -0.6806 -0.0165
 8712TIP3    H147627   3.331   2.503  10.616 -0.3288  0.1279 -0.5133
 8712TIP3    H247628   3.377   2.617  10.705  0.4717 -1.9022  1.7746
 8713TIP3   OH247629   4.459   6.806   2.867  0.2538  0.1812 -0.1692
 8713TIP3    H147630   4.402   6.765   2.932  1.2946 -1.4489 -0.2202
 8713TIP3    H247631   4.419   6.891   2.849 -0.8324  0.0653  1.5358
 8714TIP3   OH247632   2.322   2.020  15.720 -0.4426 -0.0686 -0.1082
 8714TIP3    H147633   2.402   2.072  15.715 -0.9420  0.7656  0.3033
 8714TIP3    H247634   2.334   1.966  15.798 -0.6104  0.6442  0.4239
 8715TIP3   OH247635   2.650   0.930  15.343  0.0325 -0.0308 -0.0937
 8715TIP3    H147636   2.578   0.930  15.406  0.1112  0.1056 -0.0012
 8715TIP3    H247637   2.608   0.925  15.257 -0.1686  1.4478 -0.1160
 8716TIP3   OH247638   0.344   1.567  15.608  0.0450  0.4285 -0.3356
 8716TIP3    H147639   0.271   1.613  15.650 -0.0058 -1.2889  1.6232
 8716TIP3    H247640   0.419   1.625  15.619  0.1067 -0.0573  2.5907
 8717TIP3   OH247641   6.458   1.956  12.025  0.1332  0.2631  0.0563
 8717TIP3    H147642   6.531   1.897  12.009 -0.4806 -0.2200 -1.0645
 8717TIP3    H247643   6.458   2.015  11.949  0.1958  1.1551  0.7279
 8718TIP3   OH247644   3.507   3.153   0.754  0.0838 -0.7938  0.0486
 8718TIP3    H147645   3.463   3.131   0.836 -0.9798  0.5081 -0.1361
 8718TIP3    H247646   3.436   3.166   0.691  0.7555  0.3992 -0.5112
 8719TIP3   OH247647   4.682   5.915   1.107 -0.1125 -0.5139 -0.1023
 8719TIP3    H147648   4.710   5.972   1.036 -0.6285 -2.1354 -1.6686
 8719TIP3    H247649   4.590   5.938   1.121 -0.8030 -1.9684 -1.8463
 8720TIP3   OH247650   2.945   2.204   4.396  0.0840 -0.2105 -0.3422
 8720TIP3    H147651   3.020   2.244   4.441  0.6713  1.4980 -2.6511
 8720TIP3    H247652   2.894   2.163   4.466  1.5926  1.1845  1.6962
 8721TIP3   OH247653   2.875   6.148   6.675 -0.0791 -0.2538 -0.4987
 8721TIP3    H147654   2.830   6.131   6.592 -0.3957  0.8298 -0.5642
 8721TIP3    H247655   2.807   6.184   6.732  0.3129 -0.2792 -0.0051
 8722TIP3   OH247656   1.887   6.800   4.424  0.4596  0.0626  0.2014
 8722TIP3    H147657   1.876   6.707   4.445 -0.2972 -0.4808 -2.2215
 8722TIP3    H247658   1.814   6.843   4.468 -0.4678 -0.8540 -0.3816
 8723TIP3   OH247659   4.101   0.628  16.433  0.4592  0.8304 -0.6239
 8723TIP3    H147660   4.016   0.624  16.477  0.7880  0.1461 -0.0290
 8723TIP3    H247661   4.091   0.572  16.356  0.7657 -0.3780  0.1774
 8724TIP3   OH247662   4.948   2.852  13.659  0.8718  0.5303 -0.4967
 8724TIP3    H147663   4.883   2.801  13.610  1.5326  0.0630 -0.9181
 8724TIP3    H247664   4.901   2.929  13.690  0.0368  0.0274 -0.4949
 8725TIP3   OH247665   6.127   2.664   3.481 -0.4051  0.7027  0.2577
 8725TIP3    H147666   6.212   2.652   3.438  0.3193  0.9628  1.5684
 8725TIP3    H247667   6.138   2.741   3.536 -1.3217  0.4451  0.8327
 8726TIP3   OH247668   4.302   5.380  13.614 -0.2428 -0.0755 -0.2981
 8726TIP3    H147669   4.395   5.383  13.590  0.1627 -0.7542  1.1208
 8726TIP3    H247670   4.265   5.457  13.571  1.0420  0.4008 -0.6126
 8727TIP3   OH247671   3.933   2.901   3.601 -0.0818  0.7422 -0.1121
 8727TIP3    H147672   3.880   2.828   3.569  0.3772  0.4729 -0.2761
 8727TIP3    H247673   3.917   2.904   3.695  0.6698 -0.2261  0.0652
 8728TIP3   OH247674   5.433   0.189   5.295  0.2228 -0.2872 -0.0678
 8728TIP3    H147675   5.462   0.279   5.278  1.1093 -0.4273  0.6368
 8728TIP3    H247676   5.338   0.196   5.304  0.2908  0.5957  0.0543
 8729TIP3   OH247677   5.681   0.915  14.820 -0.6501 -0.0226 -0.2866
 8729TIP3    H147678   5.679   0.909  14.916 -0.3706 -0.5054 -0.3104
 8729TIP3    H247679   5.591   0.939  14.796 -0.7389  0.0280  0.0901
 8730TIP3   OH247680   3.821   6.577   3.026  0.3398  0.2293  0.0027
 8730TIP3    H147681   3.727   6.568   3.039  0.4149 -0.4478  0.1365
 8730TIP3    H247682   3.854   6.487   3.031  0.9940  0.4650 -0.0186
 8731TIP3   OH247683   5.887   4.164  17.015 -0.4323  0.1959  0.2983
 8731TIP3    H147684   5.978   4.146  17.040 -0.7694 -0.6564  0.9785
 8731TIP3    H247685   5.845   4.190  17.097 -0.8782  0.2583  0.0502
 8732TIP3   OH247686   0.259   3.189  11.327 -0.4304 -0.0993 -0.2505
 8732TIP3    H147687   0.212   3.148  11.399 -1.9240  0.5928 -0.7877
 8732TIP3    H247688   0.235   3.281  11.331  3.5125  1.0617  1.4309
 8733TIP3   OH247689   4.750   4.240  14.255 -0.2893 -0.0343 -0.3647
 8733TIP3    H147690   4.763   4.145  14.259  1.0502  0.1412  0.0104
 8733TIP3    H247691   4.702   4.254  14.174 -2.2573 -1.1906  0.5371
 8734TIP3   OH247692   1.701   0.477  14.495  0.1529  0.1485  0.2427
 8734TIP3    H147693   1.641   0.539  14.454 -0.8925 -0.8152  0.2414
 8734TIP3    H247694   1.670   0.391  14.465 -0.9341 -0.6660  3.3200
 8735TIP3   OH247695   6.488   2.384  14.754 -0.4852 -0.0909 -0.1966
 8735TIP3    H147696   6.510   2.429  14.836 -0.9187 -0.8154  0.3330
 8735TIP3    H247697   6.443   2.304  14.782 -0.7974 -0.2647 -1.1535
 8736TIP3   OH247698   2.617   4.385  15.479  0.0520 -0.3205 -0.2890
 8736TIP3    H147699   2.564   4.368  15.401  3.2630 -0.3673 -2.6369
 8736TIP3    H247700   2.576   4.461  15.520 -1.6170 -0.1554 -2.1247
 8737TIP3   OH247701   4.331   4.067   2.725  0.3308  0.0247 -0.3295
 8737TIP3    H147702   4.398   4.001   2.744  0.3313 -0.0061 -0.4397
 8737TIP3    H247703   4.365   4.147   2.764 -0.1225 -0.2517  0.6694
 8738TIP3   OH247704   1.669   4.309   1.402  0.6868 -0.1636  0.0826
 8738TIP3    H147705   1.632   4.253   1.470 -0.1913 -0.8738 -0.9497
 8738TIP3    H247706   1.635   4.274   1.320  1.0513  1.1741 -0.6841
 8739TIP3   OH247707   0.080   2.136   1.182 -0.0277 -0.0505  1.1899
 8739TIP3    H147708  -0.007   2.161   1.212 -0.1522 -2.2365  2.8883
 8739TIP3    H247709   0.128   2.219   1.176 -2.3230  1.2841 -0.3827
 8740TIP3   OH247710   2.737   0.307  14.761  0.6116 -0.2331  0.7877
 8740TIP3    H147711   2.642   0.302  14.778  0.6334 -0.0372  0.9720
 8740TIP3    H247712   2.761   0.395  14.788  1.0378 -0.6176  1.7286
 8741TIP3   OH247713   3.420   2.593   3.660 -0.2545  0.0873  0.5485
 8741TIP3    H147714   3.440   2.533   3.589 -1.6384 -1.1726  1.1567
 8741TIP3    H247715   3.432   2.541   3.740 -0.2877  0.9809  1.1488
 8742TIP3   OH247716   5.245   0.415  14.510 -0.0722 -0.6760 -0.2530
 8742TIP3    H147717   5.223   0.323  14.499 -0.8440 -0.3005 -2.2913
 8742TIP3    H247718   5.165   0.456  14.543  0.9034 -1.0255  2.8340
 8743TIP3   OH247719   3.535   3.745  10.946 -0.1931 -0.0147 -0.1318
 8743TIP3    H147720   3.596   3.808  10.908 -0.0027 -0.4886 -0.6401
 8743TIP3    H247721   3.456   3.753  10.893 -0.4662  0.3802  0.3304
 8744TIP3   OH247722   0.732   0.018  12.075  0.3663  0.2406 -0.5456
 8744TIP3    H147723   0.812  -0.034  12.068  1.0369  0.8022  1.9887
 8744TIP3    H247724   0.757   0.104  12.040  0.0086 -0.3426 -2.3304
 8745TIP3   OH247725   6.448   0.266  15.638  0.3315 -0.3850 -0.5051
 8745TIP3    H147726   6.541   0.270  15.615  0.6034 -0.9758  0.4146
 8745TIP3    H247727   6.403   0.305  15.564  1.4712  2.3548  0.1088
 8746TIP3   OH247728   0.488   0.933   2.714 -0.0837  0.4974  0.3459
 8746TIP3    H147729   0.399   0.964   2.731  0.0070  0.9859 -0.0458
 8746TIP3    H247730   0.536   0.952   2.794 -0.7214 -1.3259  1.2177
 8747TIP3   OH247731   1.370   1.828  11.486 -0.4533 -0.5140 -0.5577
 8747TIP3    H147732   1.464   1.807  11.487 -0.3770 -0.3022  1.5483
 8747TIP3    H247733   1.367   1.924  11.491 -0.8186 -0.4529 -1.5747
 8748TIP3   OH247734   3.092   4.535   6.185  0.5886  0.0703  0.1595
 8748TIP3    H147735   3.097   4.490   6.269 -2.5422  0.0059  0.4351
 8748TIP3    H247736   3.001   4.562   6.178  1.4337  2.7639 -1.8970
 8749TIP3   OH247737   1.018   4.942   1.874  0.1085  0.0336  0.3457
 8749TIP3    H147738   0.978   4.862   1.907 -0.9033 -0.4139 -1.8345
 8749TIP3    H247739   1.103   4.915   1.839 -0.5640 -0.2729 -1.1077
 8750TIP3   OH247740   0.167   0.545  14.580 -0.2835  0.2964  0.0126
 8750TIP3    H147741   0.212   0.629  14.581  1.0803 -0.4192  0.5001
 8750TIP3    H247742   0.107   0.551  14.506 -0.5001  1.8390  0.2821
 8751TIP3   OH247743   1.550   3.813  12.970 -0.0264 -0.6277 -0.5156
 8751TIP3    H147744   1.466   3.857  12.987  0.4153 -0.1988  0.6179
 8751TIP3    H247745   1.612   3.884  12.955  0.2845 -0.9253 -0.6534
 8752TIP3   OH247746   1.842   1.812  16.621 -0.1021 -0.0920  0.0543
 8752TIP3    H147747   1.825   1.770  16.706 -2.1058  0.2294 -0.1498
 8752TIP3    H247748   1.814   1.748  16.556  0.8788 -0.1055 -0.3710
 8753TIP3   OH247749   6.284   4.162   1.068  0.2619 -0.0314 -0.3558
 8753TIP3    H147750   6.200   4.172   1.023  0.6848 -1.7545 -1.6415
 8753TIP3    H247751   6.345   4.214   1.017  0.0764  0.9360  0.3759
 8754TIP3   OH247752   1.959   6.204   3.671  0.5434  0.0637  0.4747
 8754TIP3    H147753   1.947   6.179   3.579  1.3678  1.0383  0.0851
 8754TIP3    H247754   1.883   6.165   3.716 -0.9559  1.1976 -0.9299
 8755TIP3   OH247755   0.472   1.469  15.961  0.3456 -0.0012  0.1401
 8755TIP3    H147756   0.471   1.391  16.017 -0.1539  0.3856  0.6746
 8755TIP3    H247757   0.382   1.479  15.933  0.8591 -1.2357 -2.2292
 8756TIP3   OH247758   6.665   2.282   2.069 -0.3078  0.6894 -0.3906
 8756TIP3    H147759   6.684   2.360   2.121  0.7951 -0.0572  0.3567
 8756TIP3    H247760   6.639   2.216   2.133 -1.4871  0.4900 -1.0396
 8757TIP3   OH247761   3.706   5.542   5.380  0.1802 -0.3168 -0.1781
 8757TIP3    H147762   3.691   5.455   5.417 -1.0938 -0.3618 -0.7416
 8757TIP3    H247763   3.660   5.602   5.438  1.0486 -0.0014  0.2031
 8758TIP3   OH247764   5.879   4.328   4.406 -0.1029  0.0469  0.1598
 8758TIP3    H147765   5.834   4.343   4.489 -0.8288 -1.0251 -0.0170
 8758TIP3    H247766   5.883   4.232   4.398  0.8071  0.1364 -0.5893
 8759TIP3   OH247767   5.130   2.626   6.732  0.1920 -0.0569  0.1848
 8759TIP3    H147768   5.099   2.639   6.642  0.9046  0.2666 -0.0219
 8759TIP3    H247769   5.182   2.704   6.750  1.3778 -0.8595  0.2996
 8760TIP3   OH247770   1.378   1.901   0.332  0.0844  0.5692  0.1489
 8760TIP3    H147771   1.298   1.859   0.365  0.5754  0.2294  0.9464
 8760TIP3    H247772   1.437   1.902   0.407  1.0101  0.3782 -0.5545
 8761TIP3   OH247773   3.867   1.833  11.583 -0.4533  0.2323 -0.3508
 8761TIP3    H147774   3.826   1.920  11.575  0.3325  0.6577  0.0837
 8761TIP3    H247775   3.955   1.852  11.615 -0.7196 -0.8098  1.0744
 8762TIP3   OH247776   0.575   4.404  13.158  0.1150  0.0602 -0.6379
 8762TIP3    H147777   0.598   4.311  13.160  1.2473  0.3185  1.9047
 8762TIP3    H247778   0.659   4.450  13.160 -0.3432  1.0405  3.1420
 8763TIP3   OH247779   3.198   5.855  14.353 -0.0221 -0.0837  0.5105
 8763TIP3    H147780   3.257   5.789  14.390  0.6887  0.9028  1.1924
 8763TIP3    H247781   3.214   5.933  14.406 -1.3011  0.4617  0.1203
 8764TIP3   OH247782   3.946   3.716   2.906  0.1427 -0.3668  0.4358
 8764TIP3    H147783   3.992   3.799   2.891 -0.9914  0.4810  1.4160
 8764TIP3    H247784   4.005   3.649   2.871  0.8665  0.8815 -0.8502
 8765TIP3   OH247785   4.391   0.482  16.529  0.0590 -0.0594 -0.3894
 8765TIP3    H147786   4.436   0.409  16.571  1.0535  1.3146  1.0308
 8765TIP3    H247787   4.304   0.483  16.569  0.1771 -0.2193 -0.1252
 8766TIP3   OH247788   1.635   0.784  14.990 -0.7008  0.3284 -0.5239
 8766TIP3    H147789   1.619   0.734  14.910  1.4483  1.0837 -1.5061
 8766TIP3    H247790   1.560   0.765  15.046 -1.0037 -2.3292 -1.6660
 8767TIP3   OH247791   0.011   2.282  16.418  0.2975  0.3296 -0.1433
 8767TIP3    H147792   0.098   2.317  16.440  0.7658 -0.1968 -1.0992
 8767TIP3    H247793  -0.049   2.353  16.438  0.7608  0.1587  2.0568
 8768TIP3   OH247794   3.466   4.349   2.307  0.3328  0.2854  0.9489
 8768TIP3    H147795   3.420   4.408   2.367 -3.5126  0.6726 -1.9785
 8768TIP3    H247796   3.466   4.396   2.223 -2.2718 -3.2777 -1.3677
 8769TIP3   OH247797   4.407   1.311  12.928  0.3580  0.3586 -0.2628
 8769TIP3    H147798   4.314   1.300  12.946 -0.0222  4.3902  1.1772
 8769TIP3    H247799   4.450   1.242  12.979 -1.7545 -1.8561 -1.2836
 8770TIP3   OH247800   6.826   4.156   3.380  0.2894 -0.2608 -0.2143
 8770TIP3    H147801   6.788   4.080   3.424  0.8034 -0.8728 -0.8029
 8770TIP3    H247802   6.920   4.150   3.398  0.2741  0.5471  0.1937
 8771TIP3   OH247803   0.145   1.553  14.857  0.4700  0.0719  0.0586
 8771TIP3    H147804   0.136   1.537  14.951  0.4080 -0.1269  0.0187
 8771TIP3    H247805   0.235   1.526  14.837 -0.3117 -2.4019 -0.4404
 8772TIP3   OH247806   1.154   6.394   1.021  0.4258  0.2870  0.4428
 8772TIP3    H147807   1.190   6.351   0.944 -0.6517 -1.0309  0.6325
 8772TIP3    H247808   1.094   6.460   0.986 -0.0667 -0.3106  0.1313
 8773TIP3   OH247809   3.572   2.253  11.785 -0.2108 -0.0310  0.5372
 8773TIP3    H147810   3.656   2.240  11.830 -0.9609 -0.3313  1.9005
 8773TIP3    H247811   3.575   2.344  11.755 -0.1252  0.5635  2.2252
 8774TIP3   OH247812   0.419   6.568  14.534  0.3451  0.4111 -0.3091
 8774TIP3    H147813   0.408   6.636  14.600  1.0319  1.4954 -1.2707
 8774TIP3    H247814   0.366   6.599  14.460 -1.4443 -1.3995  0.1267
 8775TIP3   OH247815   4.878   6.626   1.335 -0.8137  0.3394  0.1250
 8775TIP3    H147816   4.852   6.537   1.360  1.2699 -0.2734  0.2378
 8775TIP3    H247817   4.891   6.621   1.240  2.0694 -0.2815  0.4857
 8776TIP3   OH247818   1.038   0.904   6.563 -0.1556  0.3116  0.1371
 8776TIP3    H147819   1.052   0.868   6.475 -2.4737  0.3525 -0.3201
 8776TIP3    H247820   1.001   0.831   6.613  3.1074 -0.3757  1.8305
 8777TIP3   OH247821   1.454   2.766   4.979 -0.2529 -0.3332  0.2455
 8777TIP3    H147822   1.485   2.739   4.893 -0.0660 -0.2280  0.2786
 8777TIP3    H247823   1.363   2.792   4.964  0.6038  2.6346 -0.5790
 8778TIP3   OH247824   0.352   4.945  15.369  0.1384 -0.0367 -0.4745
 8778TIP3    H147825   0.296   4.941  15.447  0.2954  0.7541 -0.3060
 8778TIP3    H247826   0.437   4.974  15.402  0.6201 -1.0942 -0.7495
 8779TIP3   OH247827   5.443   0.354  14.024  0.6465 -0.1294  0.2092
 8779TIP3    H147828   5.484   0.395  13.948  1.9613  1.2046  1.5816
 8779TIP3    H247829   5.429   0.425  14.086  0.1354 -1.2688  1.4563
 8780TIP3   OH247830   3.783   6.276   4.506  0.1645  0.1108 -0.7339
 8780TIP3    H147831   3.730   6.352   4.484  0.3834  0.1774 -1.0394
 8780TIP3    H247832   3.873   6.309   4.506  0.2580 -0.1388 -0.8440
 8781TIP3   OH247833   1.972   5.449  12.151 -0.1367  0.3425  0.0219
 8781TIP3    H147834   2.035   5.388  12.113  0.8079  0.2065  1.7352
 8781TIP3    H247835   2.024   5.524  12.180 -1.0371  1.1286 -0.3143
 8782TIP3   OH247836   0.426   5.159   4.775  0.4363 -0.1955  0.2735
 8782TIP3    H147837   0.497   5.219   4.755 -0.3434  0.6135 -0.1339
 8782TIP3    H247838   0.470   5.076   4.796  1.5949  0.7635  1.8574
 8783TIP3   OH247839   2.323   1.821   4.208  0.3187  0.1752  0.1767
 8783TIP3    H147840   2.301   1.731   4.184  2.0070 -0.1847 -0.1313
 8783TIP3    H247841   2.340   1.818   4.302 -0.8380  0.4597  0.4195
 8784TIP3   OH247842   4.742   5.418  13.079 -0.0852  0.3341 -0.3441
 8784TIP3    H147843   4.703   5.353  13.136  0.3254 -0.6264 -1.1192
 8784TIP3    H247844   4.810   5.370  13.030 -0.1393  1.2039 -1.3266
 8785TIP3   OH247845   5.194   6.061  15.540 -0.3352  0.2126 -0.2141
 8785TIP3    H147846   5.121   6.117  15.565  0.2326 -0.2719  2.9342
 8785TIP3    H247847   5.272   6.109  15.569  0.4591 -0.3278 -1.3789
 8786TIP3   OH247848   5.648   3.290   2.936  0.5357 -0.1020  0.4074
 8786TIP3    H147849   5.682   3.215   2.887  0.5371 -0.9954  1.7213
 8786TIP3    H247850   5.715   3.358   2.927  0.7243 -0.3989 -0.4553
 8787TIP3   OH247851   2.050   1.233   6.486  0.7037  0.5271 -0.0576
 8787TIP3    H147852   2.144   1.244   6.476  0.9183 -1.3817 -0.4917
 8787TIP3    H247853   2.026   1.164   6.424 -0.6825 -0.2204  1.2074
 8788TIP3   OH247854   5.382   6.538  16.259  0.6435 -0.3827 -0.0360
 8788TIP3    H147855   5.326   6.590  16.202  1.4728  1.2001  0.5434
 8788TIP3    H247856   5.321   6.482  16.307 -0.2094 -0.4659 -1.1666
 8789TIP3   OH247857   4.809   4.189  16.466  0.3335 -0.2571 -0.1588
 8789TIP3    H147858   4.836   4.259  16.525 -0.6417 -0.4469  0.5488
 8789TIP3    H247859   4.714   4.181  16.480  0.3192 -1.2721 -0.7102
 8790TIP3   OH247860   0.085   6.772   1.218  0.1608  0.0964 -0.1131
 8790TIP3    H147861   0.119   6.709   1.155 -0.1973 -0.4821  0.2680
 8790TIP3    H247862   0.032   6.720   1.278 -0.6690  0.8562 -0.1755
 8791TIP3   OH247863   6.037   6.573  14.565  0.3607  0.2370  0.2579
 8791TIP3    H147864   6.127   6.577  14.533  0.7885 -0.4357  1.3196
 8791TIP3    H247865   5.986   6.618  14.498  1.2469 -0.8740 -1.2509
 8792TIP3   OH247866   5.410   3.546  17.102  0.1233  0.3234 -0.9384
 8792TIP3    H147867   5.464   3.470  17.122  1.9365  1.5101 -1.0694
 8792TIP3    H247868   5.401   3.592  17.185  0.4372  0.8162 -1.1720
 8793TIP3   OH247869   1.555   3.861   3.785 -0.6456  0.4287 -0.5389
 8793TIP3    H147870   1.574   3.780   3.738 -1.0774 -0.0101  0.0396
 8793TIP3    H247871   1.491   3.906   3.730 -0.5338  0.3012 -0.7756
 8794TIP3   OH247872   0.205   2.259  15.776 -0.0325 -0.6535  0.1871
 8794TIP3    H147873   0.237   2.175  15.811  0.9754 -0.5366 -0.4179
 8794TIP3    H247874   0.116   2.267  15.811  0.3759 -1.2866  1.4233
 8795TIP3   OH247875   4.445   6.631   1.022 -0.0767 -0.3871  0.2601
 8795TIP3    H147876   4.435   6.723   1.046 -0.4977 -0.3964  0.1349
 8795TIP3    H247877   4.396   6.622   0.940  1.6644 -0.2644 -0.8342
 8796TIP3   OH247878   2.879   6.111   3.467 -0.1388  0.7186  0.1808
 8796TIP3    H147879   2.941   6.165   3.419 -0.6488 -0.2635 -1.6797
 8796TIP3    H247880   2.888   6.024   3.429 -0.9825  0.0038  1.5108
 8797TIP3   OH247881   4.451   5.395  15.590  0.3142  0.2314  0.6262
 8797TIP3    H147882   4.500   5.344  15.526 -1.8380  1.3787 -2.1333
 8797TIP3    H247883   4.510   5.467  15.613  0.9182  0.1299 -0.5334
 8798TIP3   OH247884   1.511   6.644  12.321 -0.3214  0.0242  0.5437
 8798TIP3    H147885   1.576   6.700  12.365 -0.1287 -0.5105  0.9555
 8798TIP3    H247886   1.485   6.581  12.388 -1.9776  0.7975  0.6701
 8799TIP3   OH247887   2.172   4.357   3.419 -0.0596 -0.5566  0.2262
 8799TIP3    H147888   2.172   4.313   3.333 -0.2362  2.4366 -1.4173
 8799TIP3    H247889   2.263   4.382   3.432 -0.3184  0.4914  0.0690
 8800TIP3   OH247890   0.933   2.717   3.496 -0.1140 -0.2471  0.0927
 8800TIP3    H147891   0.971   2.805   3.499  1.1065 -0.5941 -2.3626
 8800TIP3    H247892   0.844   2.731   3.462 -0.0038  0.0572 -0.0735
 8801TIP3   OH247893   1.262   1.389  12.914 -0.0219 -0.2077  1.0383
 8801TIP3    H147894   1.288   1.368  13.004 -0.0628  1.0667  1.3623
 8801TIP3    H247895   1.337   1.362  12.861  0.6948  0.5443  1.6420
 8802TIP3   OH247896   3.924   0.445  11.240  0.0436  0.6503 -0.0083
 8802TIP3    H147897   3.940   0.354  11.214  2.1137  1.0811 -0.4159
 8802TIP3    H247898   3.861   0.439  11.312 -0.4265 -1.0394 -0.5194
 8803TIP3   OH247899   6.051   3.098   2.737 -0.5262  0.2223  0.5639
 8803TIP3    H147900   6.092   3.128   2.656  0.6105  1.1381  1.4316
 8803TIP3    H247901   6.075   3.005   2.742 -0.5089  0.1843 -0.0865
 8804TIP3   OH247902   4.870   4.477   4.378 -0.7951 -0.0814  0.0940
 8804TIP3    H147903   4.883   4.506   4.288  1.8064 -1.2829 -0.0087
 8804TIP3    H247904   4.792   4.524   4.408 -1.6788  0.4168 -2.7279
 8805TIP3   OH247905   6.235   4.881  12.689 -0.0598  0.7469  0.4343
 8805TIP3    H147906   6.205   4.804  12.738  1.3424 -0.1982 -0.1449
 8805TIP3    H247907   6.169   4.892  12.620 -1.8120  1.8221  2.1791
 8806TIP3   OH247908   6.186   4.137   3.638  0.4403 -0.7684  0.1417
 8806TIP3    H147909   6.257   4.075   3.657  0.0126 -1.3845 -0.2225
 8806TIP3    H247910   6.219   4.188   3.564  0.9427 -0.2977  0.6738
 8807TIP3   OH247911   5.266   4.939   0.738  0.0862  0.2728 -0.4561
 8807TIP3    H147912   5.183   4.946   0.785  0.3253 -1.1250  0.2291
 8807TIP3    H247913   5.254   4.865   0.678  1.0217 -0.3657  0.1086
 8808TIP3   OH247914   5.870   3.284   4.733 -0.5386 -0.0093 -0.1756
 8808TIP3    H147915   5.925   3.225   4.784  1.1209  1.9108  0.3709
 8808TIP3    H247916   5.860   3.361   4.788 -0.7935  1.1325 -1.7519
 8809TIP3   OH247917   3.735   6.787   0.388 -0.6597 -0.1984 -0.0694
 8809TIP3    H147918   3.736   6.750   0.476  2.4994 -1.2203 -0.4213
 8809TIP3    H247919   3.766   6.717   0.332 -1.0319  0.9430 -1.7828
 8810TIP3   OH247920   4.984   3.213  12.722  0.5773  0.0572  0.2556
 8810TIP3    H147921   5.073   3.220  12.757  1.9472  4.1289 -3.2115
 8810TIP3    H247922   4.993   3.160  12.643  0.6172  2.4387 -1.4481
 8811TIP3   OH247923   6.633   0.331  16.509 -0.7007 -0.5103  0.2551
 8811TIP3    H147924   6.566   0.320  16.442 -1.1887 -0.2572  0.6968
 8811TIP3    H247925   6.689   0.400  16.475 -2.0502  0.9832  0.9590
 8812TIP3   OH247926   6.506   6.495  12.893  0.3156 -0.5729  0.3455
 8812TIP3    H147927   6.490   6.506  12.799 -1.6892  0.3188  0.7312
 8812TIP3    H247928   6.434   6.439  12.922  0.9930 -0.9409  1.3509
 8813TIP3   OH247929   5.660   3.747  15.596  0.4215  0.3432  0.0823
 8813TIP3    H147930   5.734   3.794  15.557  1.1032 -0.2523  0.6154
 8813TIP3    H247931   5.625   3.694  15.523  1.3519 -0.3567  0.1171
 8814TIP3   OH247932   6.464   3.930   2.769 -0.1303  0.0355  0.2498
 8814TIP3    H147933   6.524   3.929   2.844  0.5320  1.1381 -0.2436
 8814TIP3    H247934   6.517   3.963   2.696 -1.5682  2.0396  0.0344
 8815TIP3   OH247935   2.626   5.575   4.853  0.4348 -0.0081  0.2314
 8815TIP3    H147936   2.542   5.594   4.893  1.0716  1.7630  0.8107
 8815TIP3    H247937   2.633   5.636   4.779  0.5223 -1.2713 -0.8542
 8816TIP3   OH247938   1.269   3.978   3.245  0.5550 -0.4034  0.7169
 8816TIP3    H147939   1.213   3.958   3.171  0.7576  1.4210  0.0184
 8816TIP3    H247940   1.331   4.043   3.211  1.9435 -1.0340  1.9469
 8817TIP3   OH247941   6.785   2.083  15.538 -0.1421  0.8035 -0.2984
 8817TIP3    H147942   6.699   2.058  15.505 -0.4246  0.1968  0.8346
 8817TIP3    H247943   6.769   2.108  15.629  0.7001  1.8370 -0.4159
 8818TIP3   OH247944   5.501   3.490   5.863  0.2045 -0.2894 -0.3625
 8818TIP3    H147945   5.572   3.541   5.823  0.9124 -1.8421 -1.1763
 8818TIP3    H247946   5.513   3.502   5.957 -1.1688  3.0024 -0.4782
 8819TIP3   OH247947   1.086   2.725  13.388  0.4707 -0.0550  0.2879
 8819TIP3    H147948   1.134   2.667  13.447  0.5300  0.0659  0.3582
 8819TIP3    H247949   1.132   2.809  13.393 -0.1460  0.2543  0.8772
 8820TIP3   OH247950   1.965   2.773   5.562 -0.3887  0.5190 -0.3185
 8820TIP3    H147951   2.045   2.764   5.614 -1.4688 -0.8421  1.2534
 8820TIP3    H247952   1.951   2.686   5.525 -1.0145  0.7938 -0.7388
 8821TIP3   OH247953   0.418   3.162  13.134 -0.1418  0.0021  0.3066
 8821TIP3    H147954   0.368   3.146  13.214 -0.8920 -2.2302 -0.5327
 8821TIP3    H247955   0.509   3.150  13.161 -0.4482 -1.9865  0.6375
 8822TIP3   OH247956   5.912   6.619  14.321 -0.5769  0.2150  0.1317
 8822TIP3    H147957   5.902   6.598  14.228  0.0324  1.5395 -0.2597
 8822TIP3    H247958   5.844   6.684  14.338 -0.9796 -0.3508  0.7453
 8823TIP3   OH247959   4.239   5.903  11.801  0.1584 -0.1164  0.0771
 8823TIP3    H147960   4.221   5.997  11.811  1.3292  0.1835 -0.4420
 8823TIP3    H247961   4.287   5.879  11.879  0.1866 -0.2019  0.0333
 8824TIP3   OH247962   0.558   2.169  12.384 -0.3457 -0.6206  0.4964
 8824TIP3    H147963   0.601   2.084  12.369  1.0976 -0.0373  1.2007
 8824TIP3    H247964   0.467   2.154  12.356 -0.1415 -2.4061  0.6357
 8825TIP3   OH247965   5.544   0.777   4.532 -0.2973  0.1815 -0.2818
 8825TIP3    H147966   5.503   0.746   4.451 -1.9965  1.5125 -0.0019
 8825TIP3    H247967   5.623   0.823   4.503 -0.1189 -0.5907 -1.0526
 8826TIP3   OH247968   5.450   1.244   5.983 -0.2699  0.3658  0.8249
 8826TIP3    H147969   5.515   1.311   6.007 -0.0951 -0.2410  2.1559
 8826TIP3    H247970   5.496   1.161   5.994 -0.0423  0.0044 -2.1804
 8827TIP3   OH247971   4.799   0.540  14.397  0.2477 -0.2795 -0.3255
 8827TIP3    H147972   4.843   0.458  14.421 -0.4887 -0.2929  1.1040
 8827TIP3    H247973   4.708   0.514  14.381  0.3446  0.0266 -1.5110
 8828TIP3   OH247974   1.074   4.684  14.351 -0.0432  0.3790  0.0553
 8828TIP3    H147975   1.054   4.754  14.289  2.0329  0.9614 -0.0267
 8828TIP3    H247976   1.130   4.623  14.302  0.2672 -0.0109  0.8691
 8829TIP3   OH247977   1.722   0.199  10.878  0.0894 -0.6740  0.4658
 8829TIP3    H147978   1.749   0.107  10.871  0.9555 -0.3572 -0.5871
 8829TIP3    H247979   1.683   0.219  10.793  0.1338  0.0105  0.6055
 8830TIP3   OH247980   5.462   6.286  14.345  0.2950 -0.2176  0.0636
 8830TIP3    H147981   5.528   6.330  14.399 -0.9979  1.4823  0.3420
 8830TIP3    H247982   5.479   6.193  14.359  0.9168  0.1633  2.3111
 8831TIP3   OH247983   3.980   3.397  14.174  0.6655  0.8364  0.0145
 8831TIP3    H147984   3.997   3.304  14.154  1.1687  1.6650 -4.4269
 8831TIP3    H247985   4.064   3.429  14.208  0.4361 -0.2850  1.7812
 8832TIP3   OH247986   0.144   1.692  16.069 -0.9928 -0.1588 -0.2064
 8832TIP3    H147987   0.228   1.734  16.052 -1.0893 -0.2402 -0.9387
 8832TIP3    H247988   0.149   1.608  16.023 -1.3550 -0.3002  0.0063
 8833TIP3   OH247989   1.317   6.266  12.438  0.2112 -0.6388  0.0838
 8833TIP3    H147990   1.318   6.201  12.508 -2.0623 -2.3945 -1.3696
 8833TIP3    H247991   1.402   6.256  12.394  1.3016 -0.1171  1.9850
 8834TIP3   OH247992   5.540   4.473   3.965 -0.0754 -0.0513  0.4180
 8834TIP3    H147993   5.579   4.412   3.903 -0.6420 -0.6166  0.6101
 8834TIP3    H247994   5.545   4.428   4.049 -0.2387  0.2867  0.6090
 8835TIP3   OH247995   1.916   2.981  13.657 -0.2024 -0.9541  0.2394
 8835TIP3    H147996   2.000   3.014  13.688 -1.3137 -0.1471  2.7317
 8835TIP3    H247997   1.905   2.897  13.701 -0.4673 -1.3078 -0.4926
 8836TIP3   OH247998   2.288   2.219  10.820 -0.4348  0.5054  0.2835
 8836TIP3    H147999   2.241   2.297  10.850  0.6268  1.1746  0.2492
 8836TIP3    H248000   2.377   2.250  10.804 -0.5082 -0.2188 -1.7999
 8837TIP3   OH248001   5.434   4.604  14.521 -0.2301 -0.2145  0.0185
 8837TIP3    H148002   5.487   4.671  14.565  0.3164  0.0945 -1.0768
 8837TIP3    H248003   5.494   4.530  14.510 -0.6592 -0.6771  0.6835
 8838TIP3   OH248004   4.104   0.199  16.470  0.0105 -0.2425  0.3806
 8838TIP3    H148005   4.141   0.271  16.520 -0.8629  0.3342  0.2203
 8838TIP3    H248006   4.048   0.241  16.404  2.8567 -0.7873 -2.7014
 8839TIP3   OH248007   2.613   5.000   4.048  0.1506 -0.3254  0.6258
 8839TIP3    H148008   2.607   4.940   3.973  0.1862  0.9035 -0.3908
 8839TIP3    H248009   2.663   4.952   4.113  2.3802 -0.5010 -1.1139
 8840TIP3   OH248010   5.114   3.945   0.064 -0.1484  0.1311 -0.4477
 8840TIP3    H148011   5.058   3.995   0.123 -0.6614 -0.0654 -0.7644
 8840TIP3    H248012   5.184   3.911   0.121  0.4778  1.5727 -0.3034
 8841TIP3   OH248013   3.588   6.683  15.237  0.3478  0.2978  0.3087
 8841TIP3    H148014   3.621   6.765  15.202 -0.4705 -0.7988 -3.4913
 8841TIP3    H248015   3.665   6.627  15.243  0.7583  1.0024  2.0091
 8842TIP3   OH248016   4.563   6.641   3.470 -0.1672 -0.4836 -0.4873
 8842TIP3    H148017   4.519   6.601   3.545 -0.3627 -0.1422 -0.4218
 8842TIP3    H248018   4.508   6.617   3.395  0.0970 -0.9346 -0.5452
 8843TIP3   OH248019   3.074   1.690   1.041  0.2835  0.4026  0.2290
 8843TIP3    H148020   2.982   1.683   1.065  0.6797 -0.9367  1.5489
 8843TIP3    H248021   3.085   1.627   0.970  0.6566 -1.3524  1.7694
 8844TIP3   OH248022   3.404   1.259   2.230 -0.0610 -0.6444  0.1168
 8844TIP3    H148023   3.435   1.192   2.292  1.2090 -0.1450  0.0491
 8844TIP3    H248024   3.389   1.336   2.284  0.6595 -0.3266 -0.1307
 8845TIP3   OH248025   1.040   1.086  15.301  0.1465 -0.0340 -0.4192
 8845TIP3    H148026   1.051   1.159  15.240 -0.8148  0.6013  0.1416
 8845TIP3    H248027   0.948   1.092  15.329  0.4048 -0.6905  0.6078
 8846TIP3   OH248028   2.833   2.759   5.672 -0.0766 -0.3252  0.2808
 8846TIP3    H148029   2.885   2.792   5.600 -1.3606 -0.5943 -0.8079
 8846TIP3    H248030   2.820   2.835   5.729  0.6316 -0.0277  0.0541
 8847TIP3   OH248031   0.766   5.214  12.034  0.1302 -0.4351 -0.2128
 8847TIP3    H148032   0.716   5.263  12.098 -0.3702 -0.2729 -0.7223
 8847TIP3    H248033   0.840   5.271  12.012 -0.2780 -0.0429 -0.5696
 8848TIP3   OH248034   5.049   4.808   5.244 -0.1445  0.4614 -0.5982
 8848TIP3    H148035   4.975   4.748   5.251  1.9800 -2.4619 -1.4227
 8848TIP3    H248036   5.079   4.819   5.335 -0.1158 -0.3703 -0.4959
 8849TIP3   OH248037   2.090   3.507   4.162  0.2091 -0.5497  0.4647
 8849TIP3    H148038   2.141   3.485   4.240  0.7652 -0.6598  0.0677
 8849TIP3    H248039   2.021   3.565   4.195  0.2465 -0.8506  1.0915
 8850TIP3   OH248040   3.351   0.880  13.826 -0.2169  0.1534  0.2148
 8850TIP3    H148041   3.310   0.872  13.740 -1.0733  1.0558  0.5174
 8850TIP3    H248042   3.442   0.903  13.806 -0.5282  0.8855 -0.4667
 8851TIP3   OH248043   0.426   6.565  13.535  0.1418  0.4112  0.2490
 8851TIP3    H148044   0.443   6.516  13.454  1.6439  4.9823 -2.6382
 8851TIP3    H248045   0.510   6.566  13.580  0.1821  0.4879  0.1736
 8852TIP3   OH248046   5.873   6.101   5.220  0.1235  0.1258 -0.0385
 8852TIP3    H148047   5.820   6.141   5.151 -1.2429 -1.5861 -0.0442
 8852TIP3    H248048   5.912   6.175   5.266  0.6556  1.3264 -2.2966
 8853TIP3   OH248049   4.677   0.718  14.199  0.1587 -0.1334  0.6213
 8853TIP3    H148050   4.742   0.653  14.226  1.5469  0.4897 -0.9977
 8853TIP3    H248051   4.648   0.687  14.113 -1.4396 -0.1893  1.1563
 8854TIP3   OH248052   2.470   6.031   5.966 -0.1455  0.3600  0.2905
 8854TIP3    H148053   2.399   6.055   6.026  0.2351  0.9905  0.5029
 8854TIP3    H248054   2.550   6.054   6.014  0.2033 -0.2243  0.0047
 8855TIP3   OH248055   1.401   1.732   1.657 -0.3922 -0.2324 -0.1269
 8855TIP3    H148056   1.385   1.649   1.612  1.3155 -1.4146  1.2947
 8855TIP3    H248057   1.383   1.713   1.749  2.3955  0.1675  0.6023
 8856TIP3   OH248058   3.688   3.770  17.016  0.1922  0.4057 -0.2020
 8856TIP3    H148059   3.753   3.708  17.047  0.1239  0.4702  0.0714
 8856TIP3    H248060   3.734   3.853  17.011  0.9647 -0.0932 -2.8901
 8857TIP3   OH248061   1.242   1.782   4.552  0.0732 -0.4890 -1.2010
 8857TIP3    H148062   1.155   1.745   4.535 -0.6980 -0.1755  1.5001
 8857TIP3    H248063   1.303   1.711   4.531 -1.0512 -1.7202 -0.4900
 8858TIP3   OH248064   5.218   5.766   4.264  0.1337  0.0469  0.1334
 8858TIP3    H148065   5.260   5.776   4.349  3.4073 -1.4440 -1.1204
 8858TIP3    H248066   5.240   5.847   4.217 -1.2588  0.6593  0.4891
 8859TIP3   OH248067   5.263   6.561   3.563  0.1577 -0.3258 -0.3841
 8859TIP3    H148068   5.300   6.480   3.529  0.8962 -1.3601  2.6130
 8859TIP3    H248069   5.340   6.615   3.584 -0.3187  1.3918 -2.6217
 8860TIP3   OH248070   2.258   5.106   4.842  0.2555  0.2027  0.0285
 8860TIP3    H148071   2.245   5.176   4.906 -1.0151 -2.2024  2.6059
 8860TIP3    H248072   2.198   5.127   4.770  1.0025  2.4676 -0.0071
 8861TIP3   OH248073   3.394   2.075   1.889  0.3938 -0.2726 -0.1839
 8861TIP3    H148074   3.388   2.114   1.802 -1.2599  3.3541  1.3294
 8861TIP3    H248075   3.479   2.104   1.923 -0.1101  0.6338  0.3351
 8862TIP3   OH248076   0.215   2.118  12.872 -0.4183  0.1134 -0.0869
 8862TIP3    H148077   0.206   2.157  12.785 -2.3375 -1.4247 -0.6683
 8862TIP3    H248078   0.251   2.031  12.855  0.1130  0.1629  0.7592
 8863TIP3   OH248079   1.773   4.528   4.935  0.2314  0.1965 -0.3431
 8863TIP3    H148080   1.738   4.550   4.848 -2.0946 -1.6017  0.0197
 8863TIP3    H248081   1.843   4.465   4.917 -0.7166 -0.7226 -0.9321
 8864TIP3   OH248082   2.901   0.129  13.873  0.8159  0.0831 -0.0494
 8864TIP3    H148083   2.831   0.089  13.925  0.4709 -0.2904 -0.7769
 8864TIP3    H248084   2.981   0.112  13.923  0.4473  0.0730  0.5457
 8865TIP3   OH248085   6.309   5.508  16.401 -0.2816 -0.7492 -0.2135
 8865TIP3    H148086   6.353   5.581  16.445 -1.3220 -0.2032 -0.0588
 8865TIP3    H248087   6.349   5.504  16.314 -0.1909 -0.0129 -0.2113
 8866TIP3   OH248088   4.734   4.546   4.719 -0.1036 -0.3328 -0.1497
 8866TIP3    H148089   4.728   4.579   4.809  0.7562  0.7800 -0.4846
 8866TIP3    H248090   4.676   4.469   4.718 -0.6213  0.0135  1.1780
 8867TIP3   OH248091   2.053   0.915   2.620  0.1210 -0.4947 -0.3078
 8867TIP3    H148092   2.028   0.825   2.597  0.2912 -0.6157 -0.0307
 8867TIP3    H248093   2.149   0.915   2.616  0.1812 -0.6074  0.6818
 8868TIP3   OH248094   3.267   0.460  17.010  0.1448 -0.4088 -0.0327
 8868TIP3    H148095   3.240   0.375  17.045  0.3592  0.4688  2.4961
 8868TIP3    H248096   3.346   0.483  17.059  0.1431  1.2108 -0.7047
 8869TIP3   OH248097   0.312   6.180   4.032  0.1263 -0.2807 -0.6217
 8869TIP3    H148098   0.251   6.237   4.079  0.3030 -1.2553  0.8444
 8869TIP3    H248099   0.266   6.096   4.025  0.9442 -0.7656 -0.2842
 8870TIP3   OH248100   0.724   1.685   4.029  0.0121 -0.1895 -0.3115
 8870TIP3    H148101   0.730   1.679   4.124 -0.1654  1.5562 -0.1575
 8870TIP3    H248102   0.702   1.777   4.012 -1.0557 -0.7037 -1.9918
 8871TIP3   OH248103   1.831   0.627  15.602 -0.1664  0.2098  0.2195
 8871TIP3    H148104   1.918   0.646  15.637 -0.3433  0.5105  0.5003
 8871TIP3    H248105   1.808   0.706  15.553 -0.0751 -0.0633 -0.2736
 8872TIP3   OH248106   1.406   3.254   0.836  0.6556 -0.1448  0.5699
 8872TIP3    H148107   1.406   3.262   0.741  0.2973  0.2243  0.5983
 8872TIP3    H248108   1.457   3.175   0.854 -2.3143 -2.4331 -0.1266
 8873TIP3   OH248109   6.559   6.391   3.519  0.1374  0.4183 -0.1954
 8873TIP3    H148110   6.610   6.325   3.565 -0.6509  0.0544  0.1671
 8873TIP3    H248111   6.473   6.388   3.559 -0.7049 -0.1762 -1.9358
 8874TIP3   OH248112   0.901   5.015   5.637  0.7098  0.0641  0.2159
 8874TIP3    H148113   0.895   4.925   5.667  3.1677  0.1315  1.1744
 8874TIP3    H248114   0.908   5.067   5.718  2.1625  0.7841 -0.3263
 8875TIP3   OH248115   0.215   6.837   1.524  0.8126 -0.1899 -0.2318
 8875TIP3    H148116   0.285   6.869   1.581  1.3493 -0.6573 -0.6183
 8875TIP3    H248117   0.257   6.829   1.438  0.0167  0.5208 -0.7003
 8876TIP3   OH248118   0.588   4.551   3.510 -0.0653 -0.0127  0.1558
 8876TIP3    H148119   0.587   4.640   3.546  1.5226 -0.4575  1.4150
 8876TIP3    H248120   0.635   4.499   3.575 -1.2945 -1.8819 -0.3745
 8877TIP3   OH248121   5.191   3.609  13.162  0.6502 -0.4318 -0.0114
 8877TIP3    H148122   5.202   3.703  13.155  1.5781 -0.4848  0.7053
 8877TIP3    H248123   5.210   3.576  13.074  0.9325 -0.0171 -0.1046
 8878TIP3   OH248124   0.532   2.697   2.146 -0.4737 -0.1198  0.0663
 8878TIP3    H148125   0.576   2.767   2.193  0.1941 -0.9076  0.6332
 8878TIP3    H248126   0.465   2.665   2.207 -0.2982 -0.4547  0.0822
 8879TIP3   OH248127   0.910   3.862  14.663 -0.2498 -0.1972 -0.1149
 8879TIP3    H148128   0.939   3.784  14.711  0.8582 -0.0417 -0.5104
 8879TIP3    H248129   0.828   3.834  14.621  0.4720 -1.3873 -0.8054
 8880TIP3   OH248130   1.419   0.553  14.098 -0.8356 -0.5120 -0.4547
 8880TIP3    H148131   1.329   0.534  14.072 -1.2011  0.0697  0.3482
 8880TIP3    H248132   1.444   0.630  14.047 -1.6067  0.7249  0.9570
 8881TIP3   OH248133   2.141   3.487  13.059 -0.0668 -0.3324  0.3014
 8881TIP3    H148134   2.219   3.532  13.025  0.3370 -0.2717  1.2760
 8881TIP3    H248135   2.068   3.531  13.016  0.4578 -1.0450 -1.4019
 8882TIP3   OH248136   5.141   3.968   4.021 -0.2285 -0.8358  0.2008
 8882TIP3    H148137   5.121   4.061   4.011 -0.6557 -1.0796 -1.5349
 8882TIP3    H248138   5.132   3.951   4.115 -2.0600  0.4637  0.3023
 8883TIP3   OH248139   2.670   3.151   0.080  0.0442 -0.3008 -0.2381
 8883TIP3    H148140   2.686   3.235   0.038  0.3201 -0.7839 -1.1340
 8883TIP3    H248141   2.630   3.097   0.012  0.5318 -1.1182  0.1033
 8884TIP3   OH248142   0.837   3.978  16.327  0.1733 -0.4790  0.7213
 8884TIP3    H148143   0.799   3.998  16.241  2.2418  0.4602 -0.0340
 8884TIP3    H248144   0.931   3.981  16.313  0.5644 -0.6810  2.9589
 8885TIP3   OH248145   1.648   5.762  16.818  0.0166 -0.4532  0.3780
 8885TIP3    H148146   1.693   5.711  16.750 -0.8888 -1.5575  0.5684
 8885TIP3    H248147   1.697   5.844  16.822  0.9069 -0.8914 -0.6655
 8886TIP3   OH248148   1.049   1.085  14.976  0.0597  0.2172 -0.2077
 8886TIP3    H148149   0.960   1.092  15.010  0.7313  1.3343  1.4929
 8886TIP3    H248150   1.102   1.065  15.054  1.3948  0.4646 -1.0186
 8887TIP3   OH248151   5.216   0.053   0.562 -0.0394 -0.1701 -0.1309
 8887TIP3    H148152   5.122   0.048   0.546  0.2883 -1.4439 -2.0338
 8887TIP3    H248153   5.243   0.138   0.525 -0.3672 -0.0389 -0.0655
 8888TIP3   OH248154   1.699   6.631   3.897  0.0814 -0.2828  0.2116
 8888TIP3    H148155   1.669   6.542   3.911  0.1533 -0.1203  1.4668
 8888TIP3    H248156   1.621   6.679   3.868 -0.4462 -0.3115  1.5160
 8889TIP3   OH248157   0.822   3.606   3.184 -0.2537  0.7398 -0.3670
 8889TIP3    H148158   0.869   3.655   3.251  0.5942  0.8615 -1.0333
 8889TIP3    H248159   0.742   3.577   3.227  1.2557 -1.0975  1.4218
 8890TIP3   OH248160   3.169   4.865  15.912  0.4273  0.1578 -0.1436
 8890TIP3    H148161   3.217   4.816  15.979 -1.3717 -0.0390  1.0738
 8890TIP3    H248162   3.114   4.926  15.961  0.4918  1.3938 -1.5396
 8891TIP3   OH248163   0.615   1.260   1.800 -0.3255  0.0001  0.0605
 8891TIP3    H148164   0.688   1.322   1.795 -1.3090  1.2194  0.3183
 8891TIP3    H248165   0.607   1.240   1.893  0.8826 -1.6738 -0.1410
 8892TIP3   OH248166   6.547   5.784  10.741  0.6322  0.4096  0.1944
 8892TIP3    H148167   6.536   5.695  10.773  0.7061  0.3117 -0.0498
 8892TIP3    H248168   6.642   5.799  10.746  0.7193  0.1657 -0.5732
 8893TIP3   OH248169   6.286   1.236   0.698  0.0644 -0.2198  0.2359
 8893TIP3    H148170   6.330   1.175   0.639 -0.9252 -0.8660  0.1415
 8893TIP3    H248171   6.211   1.267   0.648 -0.1932  0.0447  0.7792
 8894TIP3   OH248172   5.406   4.562  13.366 -0.1074  0.3068 -0.1381
 8894TIP3    H148173   5.378   4.632  13.306 -1.0284 -0.3272 -0.4716
 8894TIP3    H248174   5.471   4.513  13.316  0.6410  0.9881  0.1455
 8895TIP3   OH248175   5.656   6.557   6.255 -0.2261  0.4687 -0.1277
 8895TIP3    H148176   5.622   6.580   6.341  0.6107  1.3676 -0.0094
 8895TIP3    H248177   5.725   6.621   6.239  1.1919 -1.0609 -0.4753
 8896TIP3   OH248178   2.877   0.893   5.509 -0.0802  0.3755  0.2712
 8896TIP3    H148179   2.849   0.818   5.561  1.7872 -0.4246  0.2246
 8896TIP3    H248180   2.799   0.947   5.499 -1.5299 -1.6460  0.1674
 8897TIP3   OH248181   4.072   5.945  17.133 -0.2225  0.2608 -0.2980
 8897TIP3    H148182   4.142   5.897  17.089  1.5616  2.3519  0.0930
 8897TIP3    H248183   4.085   6.036  17.107 -2.5073  0.8022  0.2218
 8898TIP3   OH248184   2.869   3.866  15.847 -0.7768  0.0082  0.3136
 8898TIP3    H148185   2.807   3.830  15.911 -0.9990 -0.0381  0.0744
 8898TIP3    H248186   2.861   3.808  15.771  0.2988 -0.5964  0.6496
 8899TIP3   OH248187   5.103   0.790   2.747 -0.4220  0.1404 -0.0201
 8899TIP3    H148188   5.173   0.746   2.698 -1.5533 -0.6264 -1.0114
 8899TIP3    H248189   5.149   0.849   2.806  1.2204 -2.2701  1.3155
 8900TIP3   OH248190   4.531   6.512  14.544 -0.2581 -0.5090 -0.2916
 8900TIP3    H148191   4.596   6.521  14.474  0.2049 -1.1266  0.0486
 8900TIP3    H248192   4.509   6.419  14.544  2.3964 -1.2925  2.6727
 8901TIP3   OH248193   5.649   2.283   0.581  0.5380  0.2989 -0.5943
 8901TIP3    H148194   5.639   2.321   0.494  0.7471 -1.3583 -1.3709
 8901TIP3    H248195   5.674   2.192   0.565 -2.3640 -0.9224  1.1331
 8902TIP3   OH248196   0.918   1.551  15.593 -0.2488 -0.1323 -0.1752
 8902TIP3    H148197   0.924   1.500  15.674  2.4306  0.6723  0.2282
 8902TIP3    H248198   0.910   1.642  15.622 -1.6668 -0.0159 -0.8620
 8903TIP3   OH248199   0.873   2.001   4.344 -0.5396 -0.0979 -0.9359
 8903TIP3    H148200   0.953   2.035   4.303 -0.6637 -0.8753 -1.8388
 8903TIP3    H248201   0.805   2.012   4.278 -1.6064  2.1934  0.4557
 8904TIP3   OH248202   4.736   4.400  13.397  0.4924  0.5184 -0.1642
 8904TIP3    H148203   4.682   4.338  13.446  2.0197 -0.1108  0.7967
 8904TIP3    H248204   4.700   4.486  13.419 -0.0251  0.1240  0.5635
 8905TIP3   OH248205   5.704   6.100   5.742  0.2677 -0.0803  0.0953
 8905TIP3    H148206   5.698   6.193   5.762  1.8514  0.2028 -0.6188
 8905TIP3    H248207   5.624   6.081   5.693  0.4043  1.1370 -0.6340
 8906TIP3   OH248208   2.595   5.755   1.710  0.0893  0.0464 -0.1188
 8906TIP3    H148209   2.508   5.772   1.748 -1.5199 -2.1998 -2.4062
 8906TIP3    H248210   2.622   5.672   1.749  1.7748  1.1993  1.3158
 8907TIP3   OH248211   5.690   4.635  16.383  0.2366  0.4685 -0.4574
 8907TIP3    H148212   5.723   4.647  16.472  1.0752  0.1242 -0.7081
 8907TIP3    H248213   5.639   4.714  16.366  0.0230  0.5160  0.3419
 8908TIP3   OH248214   4.789   4.787  15.155  0.2752  0.0242  0.4206
 8908TIP3    H148215   4.770   4.758  15.244 -1.4735  1.2613  0.5057
 8908TIP3    H248216   4.817   4.708  15.110 -0.0238 -0.8786  1.7602
 8909TIP3   OH248217   1.762   6.601   5.569 -0.8942 -0.1759  0.1819
 8909TIP3    H148218   1.764   6.678   5.512 -0.3428 -1.1433 -1.1582
 8909TIP3    H248219   1.852   6.590   5.597 -1.0863  0.0274  0.8944
 8910TIP3   OH248220   6.347   2.087  17.060 -0.8160 -0.0627  0.0622
 8910TIP3    H148221   6.413   2.120  16.999 -0.9472 -0.4279 -0.2825
 8910TIP3    H248222   6.278   2.153  17.058 -2.3278 -1.5160 -2.6657
 8911TIP3   OH248223   4.938   6.549   4.433 -0.4620  0.1867 -0.2008
 8911TIP3    H148224   4.928   6.455   4.425 -0.2839  0.2773 -2.2487
 8911TIP3    H248225   5.031   6.565   4.420 -0.5976  0.6831 -0.6395
 8912TIP3   OH248226   6.806   6.793  15.704 -0.1642 -0.3190  0.3737
 8912TIP3    H148227   6.767   6.709  15.728  0.4550 -0.8329 -0.3452
 8912TIP3    H248228   6.900   6.775  15.696 -0.1533  0.1724 -0.8495
 8913TIP3   OH248229   1.587   1.174   6.121  0.0665 -0.4460 -0.1161
 8913TIP3    H148230   1.500   1.200   6.151 -0.1552 -0.0933 -1.0319
 8913TIP3    H248231   1.598   1.085   6.154 -0.5567 -0.4225  0.1745
 8914TIP3   OH248232   4.716   2.311  14.568 -0.0444 -0.3597  0.7636
 8914TIP3    H148233   4.670   2.323  14.485  0.4326  2.1233  0.7824
 8914TIP3    H248234   4.747   2.221  14.566 -0.3364 -0.4510 -1.6024
 8915TIP3   OH248235   2.069   1.495   4.131  0.2251  0.3490 -0.3192
 8915TIP3    H148236   2.139   1.550   4.097  0.0399  0.2913 -0.8075
 8915TIP3    H248237   2.065   1.421   4.070  1.6299 -1.1230  1.2829
 8916TIP3   OH248238   4.127   2.854  11.562 -0.1504  0.0059  0.0623
 8916TIP3    H148239   4.222   2.858  11.567 -0.2305  1.9507  0.9087
 8916TIP3    H248240   4.102   2.931  11.510 -1.1525 -2.3103 -3.2442
 8917TIP3   OH248241   6.236   0.378  14.017 -0.7582 -0.1429 -0.7022
 8917TIP3    H148242   6.219   0.420  13.932  1.2926  0.3417 -0.9132
 8917TIP3    H248243   6.329   0.359  14.016 -1.2103 -2.8250  0.2755
 8918TIP3   OH248244   2.969   1.826   4.995 -0.3147 -0.1841 -0.4351
 8918TIP3    H148245   3.042   1.876   5.031 -0.6977  1.9430 -2.3556
 8918TIP3    H248246   2.891   1.868   5.032 -0.6232 -0.0436 -1.2196
 8919TIP3   OH248247   5.870   5.286  10.601 -0.2935 -0.3309 -0.6614
 8919TIP3    H148248   5.919   5.366  10.580 -1.0499 -0.2808 -2.4222
 8919TIP3    H248249   5.780   5.305  10.575 -1.0529 -0.8615  1.3634
 8920TIP3   OH248250   5.451   1.657   0.942  0.2195 -0.0115 -0.2587
 8920TIP3    H148251   5.424   1.729   0.885 -0.1010 -1.3383 -1.8579
 8920TIP3    H248252   5.528   1.619   0.898  0.2027 -0.8337  0.3977
 8921TIP3   OH248253   6.015   0.733  13.576  0.2256 -0.3569  0.3500
 8921TIP3    H148254   5.951   0.804  13.576 -0.2433 -0.7777  0.2985
 8921TIP3    H248255   5.997   0.685  13.656 -0.8382 -1.6403 -0.6081
 8922TIP3   OH248256   4.934   5.034   1.944 -0.0983  0.2650  0.6220
 8922TIP3    H148257   4.839   5.049   1.939 -0.1018  0.0182 -0.2115
 8922TIP3    H248258   4.944   4.960   2.003 -0.6152 -1.3539 -1.2363
 8923TIP3   OH248259   4.276   3.694   5.996 -0.3483  0.1354 -0.2514
 8923TIP3    H148260   4.261   3.622   6.058 -3.4516  2.0193  1.4549
 8923TIP3    H248261   4.328   3.757   6.045  1.5474 -0.4369 -1.4203
 8924TIP3   OH248262   4.933   5.764  15.055  0.1568  0.5574 -0.2131
 8924TIP3    H148263   4.869   5.697  15.033  1.2120 -0.7113  0.4499
 8924TIP3    H248264   4.970   5.792  14.971 -1.6276  1.7257 -0.6537
 8925TIP3   OH248265   5.093   1.613   2.085 -0.4851 -0.2019  0.0824
 8925TIP3    H148266   5.133   1.629   2.170  0.3196 -0.0451 -0.3237
 8925TIP3    H248267   5.126   1.527   2.059  0.7262  0.5318 -0.8905
 8926TIP3   OH248268   6.549   3.632   1.481  0.6497 -0.1640  0.8096
 8926TIP3    H148269   6.619   3.569   1.462  0.1351 -0.4215 -0.3707
 8926TIP3    H248270   6.469   3.584   1.462  0.2566  0.9959 -0.6261
 8927TIP3   OH248271   4.555   6.015   4.446 -0.6541 -0.2235 -0.7294
 8927TIP3    H148272   4.567   5.939   4.388  2.0807 -0.0630 -0.4730
 8927TIP3    H248273   4.568   6.091   4.389 -0.1893 -0.0181 -0.3533
 8928TIP3   OH248274   2.110   2.666   2.221  0.2148 -0.2006 -0.0286
 8928TIP3    H148275   2.044   2.697   2.283 -0.9926 -1.6887 -0.5052
 8928TIP3    H248276   2.110   2.732   2.152 -0.1223  0.2810  0.4255
 8929TIP3   OH248277   5.070   2.966   0.572 -0.7415 -0.0459 -0.4873
 8929TIP3    H148278   5.149   2.922   0.606  1.3104  3.0475 -0.8161
 8929TIP3    H248279   5.047   2.916   0.494  0.5343 -1.3894 -0.0659
 8930TIP3   OH248280   3.375   4.735   3.064  0.2001 -0.2353  0.1420
 8930TIP3    H148281   3.357   4.761   2.974  0.8558  0.2869  0.1560
 8930TIP3    H248282   3.466   4.760   3.079  0.5126 -1.5414  0.5182
 8931TIP3   OH248283   3.257   2.056   3.254  0.1936  0.3244 -0.3221
 8931TIP3    H148284   3.327   2.094   3.203 -0.9439  1.5565 -1.0293
 8931TIP3    H248285   3.179   2.064   3.198 -0.7876  0.3091  0.9790
 8932TIP3   OH248286   1.667   2.912  15.256 -0.8399  0.1009 -0.2450
 8932TIP3    H148287   1.607   2.838  15.250 -1.6985  0.6246  1.1573
 8932TIP3    H248288   1.745   2.877  15.298 -0.5433 -0.3639 -1.1569
 8933TIP3   OH248289   5.160   1.324   6.104  0.3108 -0.2255  0.3744
 8933TIP3    H148290   5.098   1.366   6.043 -0.1104 -0.1053  0.8820
 8933TIP3    H248291   5.228   1.287   6.047  0.7287  1.1879 -0.0921
 8934TIP3   OH248292   1.153   0.442  14.122  0.5299  0.2505 -0.0379
 8934TIP3    H148293   1.066   0.478  14.110  0.6125  0.0439 -1.4012
 8934TIP3    H248294   1.145   0.350  14.097  0.9197 -0.0280  0.8173
 8935TIP3   OH248295   0.735   3.778   4.115 -0.1699 -0.8368 -0.2573
 8935TIP3    H148296   0.806   3.736   4.066  0.7662 -0.6142  0.8536
 8935TIP3    H248297   0.780   3.842   4.171 -1.2388 -0.7405  0.5108
 8936TIP3   OH248298   0.450   4.567   1.978  0.6314  0.1513 -0.3868
 8936TIP3    H148299   0.507   4.595   1.906  0.9530 -3.0491 -1.5186
 8936TIP3    H248300   0.385   4.511   1.937 -1.2364  0.8710  1.4124
 8937TIP3   OH248301   2.771   4.614   2.872  0.0178  0.3311  0.3567
 8937TIP3    H148302   2.735   4.535   2.833  2.1358 -0.8973  0.7422
 8937TIP3    H248303   2.758   4.682   2.806  0.6601 -0.9748 -1.1803
 8938TIP3   OH248304   6.834   5.924   4.430  0.2389 -0.4179 -0.7986
 8938TIP3    H148305   6.926   5.940   4.449 -0.2194  0.9140  0.5151
 8938TIP3    H248306   6.823   5.949   4.339  0.9816  0.3653 -0.6833
 8939TIP3   OH248307   0.271   1.722  14.646  0.2267 -0.1209 -0.1986
 8939TIP3    H148308   0.364   1.736  14.629  0.2198 -0.0086 -0.1476
 8939TIP3    H248309   0.256   1.759  14.733 -0.1360  1.0777 -0.7488
 8940TIP3   OH248310   3.191   0.300   1.943 -0.1608 -0.3430  0.8146
 8940TIP3    H148311   3.217   0.220   1.896  0.0159  0.9932 -1.5517
 8940TIP3    H248312   3.096   0.295   1.947 -0.3936  0.4337 -1.6894
 8941TIP3   OH248313   3.364   5.154   0.446  0.0539 -0.3744 -0.2579
 8941TIP3    H148314   3.447   5.200   0.431  0.6362 -1.3445 -0.0915
 8941TIP3    H248315   3.310   5.178   0.371  0.5276  0.1505 -0.4467
 8942TIP3   OH248316   6.071   1.598   3.446  0.0612  0.0721  0.5058
 8942TIP3    H148317   6.116   1.615   3.529 -1.0202  0.1374  1.1017
 8942TIP3    H248318   6.126   1.639   3.379  0.4728  0.8164  1.2872
 8943TIP3   OH248319   5.501   4.139  15.656  0.1918 -0.7811 -0.1397
 8943TIP3    H148320   5.453   4.165  15.735 -1.7552 -1.7552 -0.9573
 8943TIP3    H248321   5.562   4.072  15.687  0.8344  0.2289  0.8587
 8944TIP3   OH248322   2.257   3.480   3.957 -0.5247 -0.2346 -0.4424
 8944TIP3    H148323   2.214   3.475   4.043  0.1631 -0.7053 -0.1172
 8944TIP3    H248324   2.196   3.439   3.897 -0.6124 -0.7458 -0.0137
 8945TIP3   OH248325   1.675   2.193   3.591 -0.3946 -0.3320  0.3059
 8945TIP3    H148326   1.740   2.149   3.537  1.1279  0.3700  1.4928
 8945TIP3    H248327   1.679   2.148   3.675 -0.2256  0.7885  0.9130
 8946TIP3   OH248328   2.270   6.285   4.477  0.4607 -0.0820 -0.1799
 8946TIP3    H148329   2.256   6.379   4.481 -1.4822 -0.2320 -1.7908
 8946TIP3    H248330   2.236   6.252   4.561  0.2452  0.5518 -0.0124
 8947TIP3   OH248331   3.396   2.206   0.066 -0.1576  0.1062  0.1254
 8947TIP3    H148332   3.354   2.141   0.009 -0.5039  1.4288 -1.1925
 8947TIP3    H248333   3.337   2.281   0.064  2.0865  1.9749 -1.6325
 8948TIP3   OH248334   3.336   5.126   2.413 -0.0323 -0.2742 -0.0549
 8948TIP3    H148335   3.316   5.049   2.360  1.5251 -0.7772  0.0287
 8948TIP3    H248336   3.311   5.200   2.358 -2.7928 -0.7970  0.3788
 8949TIP3   OH248337   0.870   1.775  14.606 -0.5224 -0.3057  0.0192
 8949TIP3    H148338   0.922   1.802  14.530 -0.2491  1.0981  0.6632
 8949TIP3    H248339   0.918   1.702  14.644  1.3097  1.2349  0.8650
 8950TIP3   OH248340   4.800   0.656   4.576 -0.1803  0.5141 -0.1871
 8950TIP3    H148341   4.770   0.733   4.528  2.4139  1.5501 -0.3203
 8950TIP3    H248342   4.837   0.598   4.508  1.4815  0.9917  0.2568
 8951TIP3   OH248343   3.021   6.054   1.501 -0.0669  0.1047  0.1897
 8951TIP3    H148344   3.061   6.041   1.415 -0.5519  0.9736 -0.1798
 8951TIP3    H248345   3.086   6.102   1.552  0.4404 -0.8776  0.5094
 8952TIP3   OH248346   3.933   5.345   0.196 -0.1570  0.1021  0.4196
 8952TIP3    H148347   3.844   5.380   0.206 -0.4390 -0.5838  0.3896
 8952TIP3    H248348   3.984   5.418   0.162 -0.2936  1.0555  2.1102
 8953TIP3   OH248349   0.834   4.958   1.270  0.0353 -0.1144  0.7841
 8953TIP3    H148350   0.860   4.951   1.179 -0.2516 -0.2942  0.7143
 8953TIP3    H248351   0.739   4.950   1.268  0.1824 -3.5506  1.4007
 8954TIP3   OH248352   5.434   0.016   6.102 -0.2957  0.8053 -0.1600
 8954TIP3    H148353   5.433  -0.077   6.125  0.2322  0.7333 -0.4026
 8954TIP3    H248354   5.526   0.041   6.112 -0.0847  0.8345 -1.9173
 8955TIP3   OH248355   6.351   2.038  16.317  0.3670 -0.1359 -0.0741
 8955TIP3    H148356   6.265   2.061  16.351 -0.5185 -3.1399  0.0591
 8955TIP3    H248357   6.343   2.047  16.222  0.3810  0.9084  0.0135
 8956TIP3   OH248358   5.048   2.519  12.364 -0.1878  0.0403  0.3807
 8956TIP3    H148359   4.996   2.442  12.388 -3.4801  2.4656  1.9293
 8956TIP3    H248360   5.125   2.515  12.421 -0.5719 -1.7467  0.8486
 8957TIP3   OH248361   4.524   6.315  12.226  0.0721  0.3067  0.0314
 8957TIP3    H148362   4.560   6.363  12.301 -0.4043  1.7009 -0.5852
 8957TIP3    H248363   4.457   6.374  12.191  0.7961  0.0174 -1.9450
 8958TIP3   OH248364   4.442   4.767   2.962  0.3886 -0.0647 -0.5727
 8958TIP3    H148365   4.532   4.736   2.964 -0.0946 -1.7463 -2.1872
 8958TIP3    H248366   4.392   4.700   3.010  0.1977  1.9509  2.2932
 8959TIP3   OH248367   6.003   0.236   2.337 -0.2654 -0.6749 -0.4775
 8959TIP3    H148368   6.058   0.202   2.266  1.6497  1.3632 -0.0883
 8959TIP3    H248369   6.027   0.185   2.414 -1.5535 -2.1472 -0.9915
 8960TIP3   OH248370   5.402   4.190   3.887 -0.6601  0.1525  0.2015
 8960TIP3    H148371   5.322   4.220   3.930 -0.5377 -1.3592  1.5632
 8960TIP3    H248372   5.436   4.121   3.944 -0.1442 -1.5362 -2.0036
 8961TIP3   OH248373   6.801   0.755   1.742  0.1738 -0.1464  0.9770
 8961TIP3    H148374   6.787   0.662   1.723 -0.5514 -0.1230  1.3574
 8961TIP3    H248375   6.713   0.790   1.755  0.4456  0.5840  0.8952
 8962TIP3   OH248376   6.159   1.200  14.737  0.2712  0.1728  0.0308
 8962TIP3    H148377   6.193   1.116  14.705  0.5418  0.8262 -1.4548
 8962TIP3    H248378   6.064   1.187  14.742  0.2208  0.0383 -1.0439
 8963TIP3   OH248379   2.434   3.777  11.603  0.8285 -0.2792 -0.4734
 8963TIP3    H148380   2.442   3.717  11.529  1.7668  0.8755 -1.3354
 8963TIP3    H248381   2.387   3.726  11.670 -1.0288 -0.9851 -2.2204
 8964TIP3   OH248382   0.509   2.368  16.126  0.3637 -0.1125 -0.2939
 8964TIP3    H148383   0.507   2.429  16.051  0.4390 -0.0163 -0.2182
 8964TIP3    H248384   0.516   2.425  16.203 -2.3191 -0.0615 -0.0054
 8965TIP3   OH248385   3.764   3.042  15.563 -0.4338  0.1209  0.2931
 8965TIP3    H148386   3.850   3.045  15.603  0.0904  1.3015 -0.8381
 8965TIP3    H248387   3.707   3.005  15.630  1.1411 -1.7853  0.6512
 8966TIP3   OH248388   6.624   2.413  12.873  0.2193  0.2703  0.6801
 8966TIP3    H148389   6.657   2.329  12.908 -0.4657  0.1317  1.0006
 8966TIP3    H248390   6.660   2.479  12.933 -0.1332  0.1143  1.0680
 8967TIP3   OH248391   0.012   1.908   4.456 -0.2846 -0.1640  0.6358
 8967TIP3    H148392   0.002   1.946   4.544 -0.1916 -0.3158  0.7116
 8967TIP3    H248393  -0.053   1.839   4.452 -1.3158  0.8019  0.0510
 8968TIP3   OH248394   0.755   2.257  14.375 -0.2398  0.4570 -0.1004
 8968TIP3    H148395   0.823   2.292  14.433 -0.6603  1.6884 -0.3289
 8968TIP3    H248396   0.774   2.163  14.370 -0.3202  0.2712  2.2049
 8969TIP3   OH248397   4.032   0.160  13.451 -0.2684 -0.2385 -0.1401
 8969TIP3    H148398   3.961   0.180  13.390  1.2690  2.2164 -1.3085
 8969TIP3    H248399   4.062   0.246  13.482  0.0573 -1.3183  2.9460
 8970TIP3   OH248400   4.067   5.426   1.723 -0.4133 -0.2347 -0.7351
 8970TIP3    H148401   4.042   5.518   1.727 -0.1592 -0.1437 -1.2088
 8970TIP3    H248402   4.015   5.384   1.792  0.9383  0.6025  0.8799
 8971TIP3   OH248403   3.349   3.459  13.250 -0.1757 -0.1066 -0.0379
 8971TIP3    H148404   3.433   3.416  13.234  1.4835  1.9729  2.2784
 8971TIP3    H248405   3.301   3.398  13.306  0.5615 -0.5020  0.1728
 8972TIP3   OH248406   0.222   2.556   3.464  1.2164  0.1331  0.3320
 8972TIP3    H148407   0.243   2.609   3.540 -1.1801  0.7230  0.6615
 8972TIP3    H248408   0.301   2.557   3.410  2.2685  1.3714  1.8511
 8973TIP3   OH248409   0.235   5.347   3.180 -0.1618  0.3300  0.0793
 8973TIP3    H148410   0.319   5.390   3.164 -0.1253  0.1020 -0.3611
 8973TIP3    H248411   0.201   5.327   3.092  0.2555 -1.3524  0.2723
 8974TIP3   OH248412   3.061   6.305  13.572 -0.4338 -0.0134 -0.0311
 8974TIP3    H148413   3.087   6.391  13.540 -1.4800  0.1569 -0.4382
 8974TIP3    H248414   3.011   6.324  13.652  3.0656 -0.4629  2.5197
 8975TIP3   OH248415   4.976   1.439  13.891  0.1879  0.0148 -0.1691
 8975TIP3    H148416   4.887   1.426  13.924 -0.7862  2.3715 -1.6277
 8975TIP3    H248417   5.024   1.477  13.966 -0.2759 -0.4411  0.3602
 8976TIP3   OH248418   3.647   5.685  14.288 -0.2691  0.1261  0.2308
 8976TIP3    H148419   3.618   5.775  14.274  0.5173  0.2435 -0.8354
 8976TIP3    H248420   3.676   5.682  14.379 -0.0158  1.0351  0.1824
 8977TIP3   OH248421   5.718   0.449   0.435 -0.2782 -0.0738 -0.4336
 8977TIP3    H148422   5.711   0.365   0.391 -0.1651 -0.1140 -0.3756
 8977TIP3    H248423   5.727   0.513   0.364 -0.2111 -0.1271 -0.4732
 8978TIP3   OH248424   6.247   6.750   4.547  0.4100  0.2955 -0.2814
 8978TIP3    H148425   6.206   6.748   4.634  1.2979  0.2962  0.1538
 8978TIP3    H248426   6.200   6.818   4.499  0.1644  0.5747  0.3419
 8979TIP3   OH248427   2.837   3.530   2.971  0.0735  0.5022 -0.6160
 8979TIP3    H148428   2.819   3.443   3.008 -0.1760  0.5744 -0.5645
 8979TIP3    H248429   2.928   3.526   2.943  0.9229  1.0553  1.7780
 8980TIP3   OH248430   4.559   2.001   3.858  0.1576 -0.5865  0.0095
 8980TIP3    H148431   4.470   2.011   3.823  0.3149 -0.2225 -0.2897
 8980TIP3    H248432   4.603   2.082   3.834  0.7474 -1.0089 -0.3431
 8981TIP3   OH248433   3.981   4.016   5.282  0.0686 -0.1020 -0.0120
 8981TIP3    H148434   3.981   3.984   5.372 -1.5458 -2.0294 -0.6202
 8981TIP3    H248435   3.889   4.017   5.257  0.5301 -0.2531 -1.8607
 8982TIP3   OH248436   6.607   1.752   4.371 -0.2556 -0.5596 -0.0264
 8982TIP3    H148437   6.598   1.726   4.279  1.0639 -1.0752 -0.0266
 8982TIP3    H248438   6.602   1.671   4.420  0.9454 -0.5201  0.1967
 8983TIP3   OH248439   5.431   5.987   1.247 -0.3253 -0.1394  0.2280
 8983TIP3    H148440   5.441   5.996   1.342  0.7088  0.2698  0.1004
 8983TIP3    H248441   5.354   5.932   1.236 -2.2210  2.1169  1.2426
 8984TIP3   OH248442   2.702   3.609  13.402  0.0406 -0.3594 -0.1313
 8984TIP3    H148443   2.666   3.698  13.408 -0.5021 -0.6153  0.6301
 8984TIP3    H248444   2.773   3.616  13.338 -0.3830  0.4923 -0.5325
 8985TIP3   OH248445   2.673   3.803   5.189  0.1020  0.2319 -0.1524
 8985TIP3    H148446   2.725   3.737   5.143 -0.5044  0.4225 -1.1451
 8985TIP3    H248447   2.737   3.867   5.220  0.4501  0.6901 -1.7259
 8986TIP3   OH248448   0.007   4.370  14.538 -0.2449  0.0439  0.6381
 8986TIP3    H148449  -0.079   4.361  14.497 -1.4342 -0.0679  3.0471
 8986TIP3    H248450   0.058   4.297  14.502 -0.9466  0.3664 -1.1630
 8987TIP3   OH248451   3.302   4.327   2.760  0.2847  0.0312  0.2266
 8987TIP3    H148452   3.317   4.407   2.709 -0.8814  1.1453  1.5782
 8987TIP3    H248453   3.305   4.355   2.851 -1.7542 -1.1387  0.7173
 8988TIP3   OH248454   2.692   3.311   1.304  0.0420  0.5071  0.1801
 8988TIP3    H148455   2.620   3.374   1.314 -0.8007  0.1588 -2.8351
 8988TIP3    H248456   2.745   3.346   1.233  1.3576 -0.6497  0.5410
 8989TIP3   OH248457   5.114   3.347   0.921 -0.0541 -0.4800 -0.3681
 8989TIP3    H148458   5.197   3.335   0.966  0.4918  1.1783 -0.8512
 8989TIP3    H248459   5.104   3.268   0.868 -0.9294 -2.7196  2.8126
 8990TIP3   OH248460   1.020   2.341  11.548  0.0513 -0.0331 -0.3913
 8990TIP3    H148461   1.038   2.415  11.605  0.0622 -0.4185  0.1066
 8990TIP3    H248462   1.027   2.264  11.604  0.4267 -0.4450 -0.9829
 8991TIP3   OH248463   1.025   5.796   4.619 -0.8063  0.4698  0.2493
 8991TIP3    H148464   1.009   5.713   4.573  0.5335 -0.9694  2.2171
 8991TIP3    H248465   1.115   5.819   4.597 -0.9426  1.0533  0.2824
 8992TIP3   OH248466   1.626   3.179   1.768 -0.1022 -0.6748 -0.4503
 8992TIP3    H148467   1.569   3.250   1.796 -0.4676 -0.1261 -2.4309
 8992TIP3    H248468   1.714   3.216   1.769 -0.4088  0.2175 -2.5506
 8993TIP3   OH248469   6.067   5.116  15.992  0.6786  0.0264 -0.2710
 8993TIP3    H148470   5.989   5.157  15.955 -0.3157  0.5454  2.2163
 8993TIP3    H248471   6.068   5.028  15.955  0.4695  0.8865 -2.4294
 8994TIP3   OH248472   4.680   1.626   2.486  0.2689 -0.7359  0.0672
 8994TIP3    H148473   4.675   1.585   2.400  0.3807  0.9492 -0.7728
 8994TIP3    H248474   4.768   1.606   2.517  0.3975 -0.9285 -0.4128
 8995TIP3   OH248475   2.217   0.158  16.906  0.4209 -0.1081 -0.3842
 8995TIP3    H148476   2.138   0.108  16.884 -0.6287  1.4168 -0.2244
 8995TIP3    H248477   2.290   0.100  16.881 -0.7044 -2.0932  0.6834
 8996TIP3   OH248478   6.293   1.980  16.066  0.1502 -0.5503  0.0321
 8996TIP3    H148479   6.288   2.043  15.994  3.5818 -0.4945 -0.3401
 8996TIP3    H248480   6.262   1.898  16.028 -3.0917  0.4957  0.1389
 8997TIP3   OH248481   3.997   4.154   2.053 -0.3885  0.0711 -0.5018
 8997TIP3    H148482   3.934   4.226   2.048  1.3104  1.6242 -0.4444
 8997TIP3    H248483   4.082   4.196   2.045  0.9194 -1.4827  3.2663
 8998TIP3   OH248484   0.802   1.807   3.580 -0.1680 -0.0095  0.2328
 8998TIP3    H148485   0.747   1.750   3.635  0.5293 -3.0080 -1.8950
 8998TIP3    H248486   0.881   1.821   3.632 -0.4923 -0.7723  0.9608
 8999TIP3   OH248487   1.985   4.660   4.718  0.2750  0.1535  0.4267
 8999TIP3    H148488   1.968   4.627   4.630  0.8693 -0.7330  0.6258
 8999TIP3    H248489   1.974   4.754   4.711 -0.7676 -0.0011 -0.3423
 9000TIP3   OH248490   4.595   4.682   5.238  0.1923 -0.2032  0.6795
 9000TIP3    H148491   4.509   4.654   5.269  1.0641 -0.4404  3.0622
 9000TIP3    H248492   4.591   4.777   5.236 -0.8024 -0.2275 -1.4761
 9001TIP3   OH248493   0.075   0.274  11.942 -0.1526  0.2346  0.1836
 9001TIP3    H148494   0.166   0.275  11.971  0.1778  0.3764 -0.8062
 9001TIP3    H248495   0.061   0.186  11.907 -0.3016  0.3092  0.0537
 9002TIP3   OH248496   0.724   2.446   3.201  0.4302  0.1912 -0.1122
 9002TIP3    H148497   0.697   2.377   3.140 -1.4793  0.4541  0.3714
 9002TIP3    H248498   0.813   2.468   3.173  0.2799 -0.9273 -1.6660
 9003TIP3   OH248499   4.987   6.140  15.818  0.6024  0.1401 -0.1581
 9003TIP3    H148500   5.036   6.206  15.767 -0.3520  0.6474 -0.4389
 9003TIP3    H248501   4.896   6.166  15.809  0.1942 -1.3192 -0.3779
 9004TIP3   OH248502   5.684   0.284  13.139  0.1872 -0.0060  0.4678
 9004TIP3    H148503   5.612   0.234  13.100  1.0990 -0.2259 -0.9966
 9004TIP3    H248504   5.700   0.355  13.077  1.6022 -0.2816  0.5059
 9005TIP3   OH248505   6.225   5.639  10.968 -0.0604 -0.1938  0.2655
 9005TIP3    H148506   6.284   5.632  10.893  1.0315  0.2471  1.0477
 9005TIP3    H248507   6.171   5.717  10.949 -0.6634 -0.8065 -0.6210
 9006TIP3   OH248508   0.758   4.603   2.573  0.0075  0.5259  0.2596
 9006TIP3    H148509   0.716   4.519   2.592 -0.1587  0.8402  1.3507
 9006TIP3    H248510   0.697   4.649   2.515 -0.7698  0.6283  1.1374
 9007TIP3   OH248511   1.539   3.124   3.912 -0.1661  0.3850  0.4867
 9007TIP3    H148512   1.613   3.100   3.967  0.3775 -0.2162 -0.4923
 9007TIP3    H248513   1.538   3.059   3.842 -2.0463 -0.0495  0.8501
 9008TIP3   OH248514   4.857   4.803  14.492  0.3117 -0.2026  0.0872
 9008TIP3    H148515   4.790   4.863  14.460 -0.4320 -0.8283  0.4144
 9008TIP3    H248516   4.838   4.793  14.585  1.5573  0.4695  0.4357
 9009TIP3   OH248517   0.884   3.136   1.714 -0.0921  0.3870  0.1054
 9009TIP3    H148518   0.856   3.225   1.696  0.4663  1.1061  2.4503
 9009TIP3    H248519   0.909   3.101   1.629  3.2213  3.7317 -0.5778
 9010TIP3   OH248520   5.222   0.964   3.449  0.4357  0.1483 -0.2567
 9010TIP3    H148521   5.288   0.940   3.383  0.6555 -0.3481  0.1314
 9010TIP3    H248522   5.258   1.042   3.492  1.2198 -0.6410  0.5614
 9011TIP3   OH248523   1.789   0.715   2.017 -0.8632  0.2952 -0.2282
 9011TIP3    H148524   1.753   0.626   2.018  1.3755 -0.6932  1.6932
 9011TIP3    H248525   1.761   0.753   2.100 -1.8593  1.4428 -1.0701
 9012TIP3   OH248526   1.412   4.061   0.688 -0.2908 -0.0543 -0.6158
 9012TIP3    H148527   1.505   4.082   0.697 -0.8047  1.6002  1.8136
 9012TIP3    H248528   1.379   4.124   0.624 -0.2901  1.5702  0.9001
 9013TIP3   OH248529   5.246   5.964  13.440  0.4131 -0.0904  0.3098
 9013TIP3    H148530   5.220   5.918  13.360  2.0839 -0.7018  0.0572
 9013TIP3    H248531   5.237   6.057  13.418 -0.5896 -0.2616 -0.0531
 9014TIP3   OH248532   2.376   1.585  13.385 -0.0043 -0.0282 -0.4419
 9014TIP3    H148533   2.372   1.541  13.471 -0.4819  0.6691 -0.0998
 9014TIP3    H248534   2.451   1.644  13.393 -0.5926  0.6898 -0.1842
 9015TIP3   OH248535   0.816   6.533   2.553  0.0757 -0.4701  0.0124
 9015TIP3    H148536   0.843   6.612   2.599  0.4142  0.0921 -1.1124
 9015TIP3    H248537   0.783   6.476   2.622  1.4358 -0.0431  1.0747
 9016TIP3   OH248538   3.792   6.412  13.335 -0.2482  0.1468 -0.2496
 9016TIP3    H148539   3.885   6.435  13.331 -0.0623  0.4303  3.1004
 9016TIP3    H248540   3.746   6.493  13.315  0.2519  0.5090  0.0597
 9017TIP3   OH248541   5.564   5.504   3.567 -0.5626  0.8991  0.1286
 9017TIP3    H148542   5.648   5.507   3.614  0.8048 -3.5831 -1.5361
 9017TIP3    H248543   5.577   5.561   3.492  0.9921  0.4129 -0.0123
 9018TIP3   OH248544   4.315   5.607  11.653  0.3879 -0.3298 -0.0740
 9018TIP3    H148545   4.348   5.564  11.574 -1.5003  1.4629 -1.9840
 9018TIP3    H248546   4.373   5.682  11.665 -0.1331  0.1818 -0.6442
 9019TIP3   OH248547   1.282   5.838   4.502 -0.2578  0.3145  0.2345
 9019TIP3    H148548   1.276   5.885   4.419  2.9084  1.4558  0.5399
 9019TIP3    H248549   1.281   5.745   4.477  1.1955  0.6421 -1.1688
 9020TIP3   OH248550   3.099   3.962  16.241 -0.0143  0.4556  0.1847
 9020TIP3    H148551   3.017   3.994  16.279 -0.8290  0.1244 -1.1919
 9020TIP3    H248552   3.134   3.901  16.306 -2.8216 -2.3653 -0.6580
 9021TIP3   OH248553   0.494   5.366   0.736 -0.0229  0.1258 -0.3987
 9021TIP3    H148554   0.419   5.307   0.743 -0.6059  0.9981  1.7656
 9021TIP3    H248555   0.568   5.314   0.767  0.3227 -0.7117 -2.4619
 9022TIP3   OH248556   6.724   5.384   3.782  0.4093 -0.3091 -0.6163
 9022TIP3    H148557   6.796   5.380   3.719  0.4840 -0.1419 -0.5412
 9022TIP3    H248558   6.649   5.416   3.731 -0.2879 -2.7574 -1.3141
 9023TIP3   OH248559   5.415   2.423   5.558 -0.5794 -0.8561 -0.3898
 9023TIP3    H148560   5.327   2.390   5.541 -1.1563 -0.9431  2.3733
 9023TIP3    H248561   5.403   2.517   5.572 -0.1566 -0.8007 -0.3761
 9024TIP3   OH248562   4.567   0.073  11.672  0.4905  0.2097 -0.3577
 9024TIP3    H148563   4.519   0.013  11.614 -1.1509  1.0201  0.0933
 9024TIP3    H248564   4.655   0.078  11.634 -0.2089 -0.1557 -2.1310
 9025TIP3   OH248565   6.218   0.616   0.750 -0.2894  0.1592  0.1053
 9025TIP3    H148566   6.127   0.622   0.781 -0.1877  0.1556  0.4048
 9025TIP3    H248567   6.241   0.706   0.726 -0.1062  0.3048  0.7950
 9026TIP3   OH248568   5.298   1.978   0.309  0.0993 -0.6116 -0.1440
 9026TIP3    H148569   5.305   2.063   0.351 -1.5824  0.0334 -1.0643
 9026TIP3    H248570   5.266   1.997   0.220 -1.1997 -2.2321 -0.0854
 9027TIP3   OH248571   5.646   6.780   3.089  0.7424 -0.4624 -0.0277
 9027TIP3    H148572   5.613   6.718   3.024  0.4009 -0.4431  0.1253
 9027TIP3    H248573   5.740   6.765   3.090  0.6775 -0.8998 -0.0730
 9028TIP3   OH248574   1.949   2.374   3.432 -0.7538 -0.3506  0.0455
 9028TIP3    H148575   1.982   2.309   3.494  2.5731  1.4365  0.4103
 9028TIP3    H248576   1.923   2.322   3.355 -0.2882 -2.2650  1.1128
 9029TIP3   OH248577   3.815   2.610  16.815 -0.8483  0.1520  0.2600
 9029TIP3    H148578   3.862   2.686  16.780 -2.2455  0.0424 -2.0554
 9029TIP3    H248579   3.836   2.538  16.755 -1.3722 -0.7127  1.0780
 9030TIP3   OH248580   5.353   6.023  16.453 -0.7071 -0.5478 -0.0309
 9030TIP3    H148581   5.445   6.009  16.432 -0.0789  0.4104  1.7768
 9030TIP3    H248582   5.318   6.074  16.380  0.9489  1.4162  0.4509
 9031TIP3   OH248583   6.283   0.493   4.680  0.0335 -0.7084 -0.2191
 9031TIP3    H148584   6.327   0.526   4.760 -0.3882  1.2527 -0.7370
 9031TIP3    H248585   6.196   0.533   4.683 -0.1588 -1.0201 -1.4088
 9032TIP3   OH248586   3.066   4.487   3.553  0.3618 -0.2105  0.1933
 9032TIP3    H148587   2.978   4.463   3.579 -0.2717 -0.3583 -1.8773
 9032TIP3    H248588   3.108   4.517   3.633 -2.2007  1.7796  0.9084
 9033TIP3   OH248589   6.809   5.458  14.237 -0.1130 -0.0931 -0.4906
 9033TIP3    H148590   6.761   5.447  14.319  1.9202  0.9266  0.9253
 9033TIP3    H248591   6.764   5.529  14.191 -3.0078 -2.5019 -1.7331
 9034TIP3   OH248592   4.467   3.008  16.480 -0.0047 -0.1865 -0.3854
 9034TIP3    H148593   4.440   3.078  16.420  0.7057  0.0330 -0.4645
 9034TIP3    H248594   4.499   3.055  16.557  1.0307 -0.3953 -0.6723
 9035TIP3   OH248595   6.086   2.101  14.887 -0.4286  0.6243  0.1191
 9035TIP3    H148596   6.065   2.013  14.921 -1.2109 -0.1030 -2.0831
 9035TIP3    H248597   6.058   2.160  14.957 -0.4361 -0.8309  1.4176
 9036TIP3   OH248598   4.050   4.777  14.756  0.3455  0.1735  0.2998
 9036TIP3    H148599   4.013   4.853  14.801  0.9203  1.6862 -1.6377
 9036TIP3    H248600   4.123   4.812  14.705 -0.8705 -1.1766 -2.5734
 9037TIP3   OH248601   4.491   0.086   0.687  0.0286  0.3636  0.2574
 9037TIP3    H148602   4.408   0.130   0.669  0.0117  0.4301  0.4914
 9037TIP3    H248603   4.520   0.122   0.772  0.6968  0.9505 -0.2033
 9038TIP3   OH248604   1.153   3.064  14.962  0.2608  0.4100 -0.3076
 9038TIP3    H148605   1.063   3.092  14.945 -0.2816 -0.3920  1.0865
 9038TIP3    H248606   1.207   3.127  14.914 -1.0325  1.0155 -1.0182
 9039TIP3   OH248607   1.684   4.912   0.810  0.4719 -0.6048  0.6310
 9039TIP3    H148608   1.689   4.910   0.906 -0.7443 -1.4272  0.6928
 9039TIP3    H248609   1.610   4.856   0.789  1.3648 -1.2642 -0.8608
 9040TIP3   OH248610   0.915   5.578   1.900  0.0587 -0.2693 -0.1541
 9040TIP3    H148611   0.919   5.673   1.907 -0.8150 -0.1793 -0.7471
 9040TIP3    H248612   0.866   5.550   1.978  1.1472 -0.3319  0.5322
 9041TIP3   OH248613   1.969   5.516  13.780 -0.3258  0.3193  0.4118
 9041TIP3    H148614   1.963   5.447  13.714  1.2334  0.2540  0.2945
 9041TIP3    H248615   1.884   5.559  13.777 -0.7250 -0.4828 -0.7518
 9042TIP3   OH248616   3.176   5.450  12.342  0.5817  0.0435  0.7111
 9042TIP3    H148617   3.186   5.401  12.424  0.0248 -2.0248 -0.3768
 9042TIP3    H248618   3.263   5.485  12.324  0.6433  0.7826  2.3194
 9043TIP3   OH248619   4.638   2.677   5.229  0.7945  0.1802  0.4168
 9043TIP3    H148620   4.732   2.660   5.225  1.2125  1.4661  3.0472
 9043TIP3    H248621   4.629   2.768   5.202  0.3305  0.1447  0.4391
 9044TIP3   OH248622   5.331   1.912  14.876 -0.0382 -0.1849  0.6821
 9044TIP3    H148623   5.388   1.882  14.947 -1.8571  0.7607  2.6458
 9044TIP3    H248624   5.301   1.831  14.833  0.3775 -0.8300  1.5748
 9045TIP3   OH248625   5.580   2.878   3.093 -0.7989 -0.1791  0.1431
 9045TIP3    H148626   5.494   2.875   3.135 -1.2020 -0.6162 -0.6909
 9045TIP3    H248627   5.623   2.955   3.131 -1.0782 -0.6508  1.4637
 9046TIP3   OH248628   5.495   5.678   1.329  0.9077 -0.1081 -0.1369
 9046TIP3    H148629   5.421   5.678   1.390  0.9313  0.8505 -0.0928
 9046TIP3    H248630   5.454   5.675   1.242  0.7991  0.8494 -0.1228
 9047TIP3   OH248631   0.216   4.919   4.985 -0.3030 -0.2565  0.2504
 9047TIP3    H148632   0.261   4.944   5.066  0.0980 -1.6080  0.4596
 9047TIP3    H248633   0.145   4.983   4.977  0.1134  0.3544  1.2603
 9048TIP3   OH248634   0.582   5.339  12.180  0.1826 -0.5458  0.4685
 9048TIP3    H148635   0.556   5.430  12.162 -1.0460 -0.9093  0.2973
 9048TIP3    H248636   0.541   5.320  12.264  1.1292 -0.6926  0.9110
 9049TIP3   OH248637   3.285   1.839   5.435  0.2887  0.0736 -0.1400
 9049TIP3    H148638   3.334   1.885   5.503  0.3503  0.0280 -0.1533
 9049TIP3    H248639   3.352   1.792   5.386  0.2912  0.4208 -0.4769
 9050TIP3   OH248640   5.035   3.874  13.275  0.2308 -0.3400  0.1616
 9050TIP3    H148641   4.986   3.868  13.193 -1.2436 -0.7594  1.0313
 9050TIP3    H248642   5.044   3.968  13.290  1.8817 -0.2437 -1.2365
 9051TIP3   OH248643   1.981   0.346   2.765 -0.2372  0.0030 -0.0617
 9051TIP3    H148644   2.066   0.323   2.727  0.1014 -1.9872  1.7056
 9051TIP3    H248645   2.000   0.416   2.827  0.0856 -0.2718  0.1524
 9052TIP3   OH248646   4.311   6.194   1.532  0.9435  0.0750  0.7796
 9052TIP3    H148647   4.296   6.176   1.439 -1.1146 -0.8236  1.2388
 9052TIP3    H248648   4.268   6.278   1.548 -0.1372 -0.5505  1.2425
 9053TIP3   OH248649   1.727   3.985  14.273  0.2454 -0.0778 -0.0499
 9053TIP3    H148650   1.675   4.045  14.220  0.9100 -0.6102 -1.3579
 9053TIP3    H248651   1.662   3.930  14.318 -0.3550  1.3721  0.9014
 9054TIP3   OH248652   5.924   0.621  16.508 -0.4477  0.4694  0.0252
 9054TIP3    H148653   5.879   0.568  16.442 -0.2641 -0.1065  0.3563
 9054TIP3    H248654   5.870   0.614  16.586  0.6260 -0.9111  0.6735
 9055TIP3   OH248655   1.403   0.753  10.744 -0.1425  0.2169  0.1919
 9055TIP3    H148656   1.325   0.703  10.768 -0.3952  0.7660  0.5352
 9055TIP3    H248657   1.475   0.692  10.757 -0.5654 -0.4979 -0.7350
 9056TIP3   OH248658   2.741   6.348   4.041  0.0563 -0.7529  0.0535
 9056TIP3    H148659   2.757   6.307   4.127  2.7631 -0.1733 -0.0914
 9056TIP3    H248660   2.769   6.282   3.978  0.0561 -0.4085 -0.3080
 9057TIP3   OH248661   5.667   6.357  14.506 -0.0516 -0.0897 -0.5726
 9057TIP3    H148662   5.649   6.451  14.499 -0.1814 -0.0697 -0.0291
 9057TIP3    H248663   5.733   6.351  14.576 -2.0615 -0.6206  1.4046
 9058TIP3   OH248664   0.824   6.545  12.131 -0.1060  0.4038  0.6563
 9058TIP3    H148665   0.876   6.483  12.181  0.5094  0.5205  0.1670
 9058TIP3    H248666   0.743   6.554  12.181 -0.4642 -1.2424  0.4331
 9059TIP3   OH248667   2.523   0.719  14.046 -0.0838 -0.0380 -0.3069
 9059TIP3    H148668   2.576   0.751  14.118  0.6126  0.3986 -0.9985
 9059TIP3    H248669   2.440   0.765  14.055  0.9956  2.2638 -1.4481
 9060TIP3   OH248670   2.038   6.116  11.670 -0.4761 -0.4539  0.0482
 9060TIP3    H148671   2.003   6.045  11.615  0.1103 -1.7351  1.2808
 9060TIP3    H248672   1.962   6.170  11.691 -1.1426 -1.3581  0.0025
 9061TIP3   OH248673   3.406   2.616   2.669  0.1537 -0.2529 -0.0392
 9061TIP3    H148674   3.321   2.637   2.707  0.2386 -0.7878  0.4541
 9061TIP3    H248675   3.409   2.667   2.587 -0.2580  0.4733  0.3902
 9062TIP3   OH248676   6.019   6.052   4.793  0.4474 -0.1180 -0.0236
 9062TIP3    H148677   6.107   6.017   4.779  1.2663  1.9149 -0.2855
 9062TIP3    H248678   5.980   6.055   4.706  0.5194  0.0058 -0.0509
 9063TIP3   OH248679   0.663   6.499   1.810 -0.3302 -0.1205 -0.1925
 9063TIP3    H148680   0.731   6.491   1.877  1.1975 -2.1756 -1.8442
 9063TIP3    H248681   0.689   6.575   1.758  0.1705 -0.3140 -0.2313
 9064TIP3   OH248682   1.105   0.865  15.671  0.3024  0.0739 -0.2224
 9064TIP3    H148683   1.163   0.934  15.704 -0.3878  1.2645 -1.4436
 9064TIP3    H248684   1.124   0.860  15.578 -0.2903 -0.8024 -0.3117
 9065TIP3   OH248685   6.103   6.445  15.374 -0.1935  0.0775  0.2537
 9065TIP3    H148686   6.082   6.437  15.281  0.2071 -2.3508  0.3144
 9065TIP3    H248687   6.019   6.441  15.418 -0.2783 -0.1730  0.0669
 9066TIP3   OH248688   4.567   3.266  11.238  0.0573  0.0943  0.4218
 9066TIP3    H148689   4.607   3.338  11.189 -0.6828  0.1643 -0.0992
 9066TIP3    H248690   4.634   3.197  11.239  0.3564  0.3712 -0.0467
 9067TIP3   OH248691   0.408   0.346  10.689  0.2644 -0.2892  0.3741
 9067TIP3    H148692   0.464   0.348  10.767  1.8853 -1.6072 -0.6968
 9067TIP3    H248693   0.419   0.259  10.653  1.2800  0.9140 -2.5135
 9068TIP3   OH248694   0.800   4.338   2.816 -0.8432 -0.4656  0.0249
 9068TIP3    H148695   0.708   4.366   2.817 -1.7631 -3.0661 -1.9651
 9068TIP3    H248696   0.796   4.244   2.797  2.1891 -1.0919  1.9053
 9069TIP3   OH248697   2.575   3.957   6.068  0.1392 -0.5525  0.4178
 9069TIP3    H148698   2.603   3.952   5.977  0.7861  2.2095  0.3931
 9069TIP3    H248699   2.488   3.996   6.064  0.3851  0.0661  1.0008
 9070TIP3   OH248700   2.125   1.892   4.795 -0.7412  0.3238 -0.2915
 9070TIP3    H148701   2.036   1.904   4.828  0.0816 -0.1748  2.3212
 9070TIP3    H248702   2.156   1.811   4.836  0.2423 -0.6835 -2.8098
 9071TIP3   OH248703   1.212   6.010   2.709  0.1789  0.2884 -0.1279
 9071TIP3    H148704   1.216   5.916   2.694  1.0073  0.5487 -1.8552
 9071TIP3    H248705   1.131   6.038   2.667 -0.3436  0.3015  0.8521
 9072TIP3   OH248706   5.431   5.839  12.047 -0.0157 -0.4579 -0.4453
 9072TIP3    H148707   5.450   5.752  12.083 -0.7299  0.1762  1.5960
 9072TIP3    H248708   5.495   5.897  12.088  0.4533  0.0188 -1.7927
 9073TIP3   OH248709   2.573   6.160  14.599  0.2901  0.5940  0.1353
 9073TIP3    H148710   2.668   6.173  14.604  0.2381  1.0908 -0.0449
 9073TIP3    H248711   2.560   6.068  14.620  0.7213  0.7626  1.2068
 9074TIP3   OH248712   0.985   2.070  10.071  0.6000  0.0193  0.1371
 9074TIP3    H148713   0.997   2.092  10.163  0.0300  1.3270 -0.0893
 9074TIP3    H248714   1.056   2.115  10.026 -0.2841  1.0318 -0.2760
 9075TIP3   OH248715   2.913   0.549   0.506  0.2288  0.0497 -0.1928
 9075TIP3    H148716   2.845   0.482   0.513  0.9672 -0.6399  0.5682
 9075TIP3    H248717   2.993   0.505   0.534  0.4740  1.6576  1.8353
 9076TIP3   OH248718   4.059   3.762   0.569 -0.8438  0.1282  0.0849
 9076TIP3    H148719   4.139   3.735   0.613 -0.9394  0.2976  0.3678
 9076TIP3    H248720   4.008   3.681   0.560  0.1636 -0.3388 -1.8244
 9077TIP3   OH248721   1.511   6.530  13.160  0.3925 -0.0729 -0.1836
 9077TIP3    H148722   1.558   6.528  13.243  1.2589 -1.0934 -0.6796
 9077TIP3    H248723   1.507   6.439  13.132 -0.0688  0.2364 -1.1632
 9078TIP3   OH248724   0.045   2.601   4.132 -0.1082  0.0170  0.0391
 9078TIP3    H148725  -0.020   2.669   4.152 -0.5821 -0.1182 -0.9686
 9078TIP3    H248726   0.010   2.522   4.172 -0.4694 -0.0080 -0.3153
 9079TIP3   OH248727   3.106   1.539   3.193  0.1616  0.5667 -0.1207
 9079TIP3    H148728   3.017   1.572   3.210  0.0633  0.5531 -0.6056
 9079TIP3    H248729   3.122   1.561   3.102  0.7236  0.7140  0.0117
 9080TIP3   OH248730   6.241   4.050  11.138  0.2236 -0.3199  0.3348
 9080TIP3    H148731   6.288   3.988  11.082  0.8842  0.6831 -0.2461
 9080TIP3    H248732   6.222   4.001  11.217  0.9519 -1.1924 -0.0145
 9081TIP3   OH248733   5.653   5.550   2.297  0.0227  0.7146  0.0110
 9081TIP3    H148734   5.589   5.493   2.254  1.3563 -2.7766  2.2489
 9081TIP3    H248735   5.712   5.577   2.227 -1.0286 -0.1275 -1.2549
 9082TIP3   OH248736   0.570   1.913  11.779  0.2088  0.1551  0.4745
 9082TIP3    H148737   0.615   1.955  11.706  0.7930  0.5474  1.0444
 9082TIP3    H248738   0.521   1.983  11.821 -0.7466 -0.2195  0.0160
 9083TIP3   OH248739   5.710   0.601  16.122  0.1845  0.1780 -0.3388
 9083TIP3    H148740   5.702   0.515  16.080  3.0190 -0.7617  0.8315
 9083TIP3    H248741   5.619   0.628  16.138 -0.8116 -2.2089 -1.4480
 9084TIP3   OH248742   6.486   1.434  10.105 -0.5358  0.4046 -0.0056
 9084TIP3    H148743   6.562   1.469  10.153  0.1796 -1.1165  0.0086
 9084TIP3    H248744   6.514   1.348  10.074 -1.8768  0.2905 -0.9880
 9085TIP3   OH248745   2.541   3.425   5.857 -0.3641  0.2601  0.5677
 9085TIP3    H148746   2.470   3.362   5.844 -2.0434  1.7390  1.9946
 9085TIP3    H248747   2.602   3.381   5.916 -0.8793 -0.4881  0.5617
 9086TIP3   OH248748   6.548   0.165  16.710 -0.5276  0.2693 -0.2357
 9086TIP3    H148749   6.586   0.222  16.643 -0.1926  0.5946  0.2264
 9086TIP3    H248750   6.553   0.077  16.672  2.1337  0.0576  0.3908
 9087TIP3   OH248751   2.765   3.681  13.837  0.0658  0.1478  0.5077
 9087TIP3    H148752   2.851   3.688  13.796  0.6697  1.1111  1.8818
 9087TIP3    H248753   2.735   3.593  13.814  2.0017 -0.7233  1.0985
 9088TIP3   OH248754   6.151   4.115  17.031  0.3045  0.1879  0.0785
 9088TIP3    H148755   6.218   4.092  17.095  1.4308 -3.0046 -2.0020
 9088TIP3    H248756   6.195   4.109  16.946 -2.0924  0.0820 -1.2423
 9089TIP3   OH248757   0.174   5.862   5.567  0.4412 -0.4473 -0.4494
 9089TIP3    H148758   0.226   5.895   5.494  0.7658 -2.9588 -1.4860
 9089TIP3    H248759   0.122   5.792   5.528 -1.6616  0.1394  1.1565
 9090TIP3   OH248760   2.471   5.818  13.959 -0.1922  0.1369  0.2240
 9090TIP3    H148761   2.530   5.834  14.033 -0.6778  1.9993  0.2487
 9090TIP3    H248762   2.526   5.827  13.881 -0.3097  1.3688  0.2667
 9091TIP3   OH248763   3.067   3.223   3.572 -0.6402  0.0030 -0.3931
 9091TIP3    H148764   3.124   3.173   3.631  0.5820 -1.0082 -2.3290
 9091TIP3    H248765   3.019   3.282   3.630  0.0359 -1.3519  1.6688
 9092TIP3   OH248766   2.776   4.477  16.336  0.2505  0.1503  0.2922
 9092TIP3    H148767   2.717   4.402  16.342  1.3260 -0.7319  0.0168
 9092TIP3    H248768   2.757   4.515  16.250 -2.2676  1.9195  1.5088
 9093TIP3   OH248769   5.085   4.623   4.984  0.1613 -0.5851  0.1751
 9093TIP3    H148770   5.037   4.666   4.914  1.8466 -2.8119 -2.5833
 9093TIP3    H248771   5.023   4.560   5.021 -1.1269  1.4579  1.6279
 9094TIP3   OH248772   1.630   2.342  13.742  0.1686 -0.0279  0.3431
 9094TIP3    H148773   1.626   2.247  13.744  0.3139 -0.1022 -1.4056
 9094TIP3    H248774   1.711   2.362  13.695 -1.0553  0.8874 -1.5027
 9095TIP3   OH248775   6.269   0.466  11.668 -0.3424 -0.6306  0.1378
 9095TIP3    H148776   6.207   0.452  11.739  2.4570 -0.9275  2.7146
 9095TIP3    H248777   6.353   0.479  11.712  1.0375  2.6746 -2.9688
 9096TIP3   OH248778   4.135   5.376  12.292 -0.4921 -0.2468  0.7579
 9096TIP3    H148779   4.100   5.304  12.239  1.7276  0.1058 -1.4070
 9096TIP3    H248780   4.185   5.333  12.361  0.9032 -0.8780 -0.5812
 9097TIP3   OH248781   1.900   1.492  11.196  0.1212 -0.6767  0.2559
 9097TIP3    H148782   1.880   1.410  11.241  1.3956 -1.2320 -0.1156
 9097TIP3    H248783   1.912   1.467  11.104  0.7073 -0.1203  0.1685
 9098TIP3   OH248784   4.894   0.597  14.092  0.0940 -0.0307 -0.4523
 9098TIP3    H148785   4.917   0.672  14.147  1.5586 -1.6089  1.2519
 9098TIP3    H248786   4.978   0.570  14.054 -0.6561  0.0751 -2.2494
 9099TIP3   OH248787   4.983   4.600  15.043  0.5162 -0.0692 -0.1286
 9099TIP3    H148788   5.046   4.529  15.031  0.1418 -0.2316 -1.3207
 9099TIP3    H248789   4.972   4.637  14.955 -0.2905  0.6038  0.2380
 9100TIP3   OH248790   5.456   4.187   2.750  0.4395  0.2735  0.2979
 9100TIP3    H148791   5.393   4.245   2.793  1.1702  1.9586 -0.8048
 9100TIP3    H248792   5.538   4.237   2.750  1.4452 -1.3092  0.4618
 9101TIP3   OH248793   1.875   3.126   6.255 -0.2304  0.0880  0.1549
 9101TIP3    H148794   1.909   3.039   6.233  0.9562  0.7629 -0.8599
 9101TIP3    H248795   1.786   3.126   6.219  0.8054  0.3002 -2.6804
 9102TIP3   OH248796   2.762   1.558  16.968  0.0146 -0.8180  0.2032
 9102TIP3    H148797   2.743   1.631  16.910  0.5579 -2.0567 -1.6358
 9102TIP3    H248798   2.848   1.577  17.006 -0.0038 -0.3558  0.0109
 9103TIP3   OH248799   5.580   3.675   3.638  0.4439 -0.3787  0.2876
 9103TIP3    H148800   5.555   3.605   3.699 -1.1753 -0.0221  0.0826
 9103TIP3    H248801   5.623   3.741   3.693  0.6717 -0.8913  0.7248
 9104TIP3   OH248802   5.420   0.997  10.296 -0.3101 -0.2596  0.4309
 9104TIP3    H148803   5.379   0.913  10.273 -0.5403 -0.5034  1.6639
 9104TIP3    H248804   5.442   1.036  10.212 -1.8920 -0.7237 -0.2449
 9105TIP3   OH248805   3.701   5.920   1.676 -0.3419  0.7393 -0.3683
 9105TIP3    H148806   3.725   5.976   1.750  1.3612  0.1654 -0.4570
 9105TIP3    H248807   3.681   5.835   1.716 -2.5389  1.2302 -0.2773
 9106TIP3   OH248808   2.853   3.645   5.560  0.2294  0.6884 -0.2103
 9106TIP3    H148809   2.849   3.583   5.487  1.6268  0.6809 -0.3006
 9106TIP3    H248810   2.931   3.698   5.542  1.4962 -0.2935  2.0455
 9107TIP3   OH248811   4.452   5.242  14.618  0.1033 -0.1497  0.6296
 9107TIP3    H148812   4.396   5.165  14.629 -0.6500  0.6275  2.8084
 9107TIP3    H248813   4.541   5.207  14.626 -0.1451 -1.0054 -0.1137
 9108TIP3   OH248814   3.250   6.356  14.341  0.4769  0.6501  0.5084
 9108TIP3    H148815   3.250   6.331  14.248 -0.2128  1.0645  0.3948
 9108TIP3    H248816   3.159   6.348  14.368  0.8201 -0.3975  1.4109
 9109TIP3   OH248817   1.176   0.453  17.017  0.0912  0.4434  0.4967
 9109TIP3    H148818   1.123   0.526  16.986  0.8476  2.1325  2.8926
 9109TIP3    H248819   1.117   0.378  17.013 -0.9805  1.3024 -1.2292
 9110TIP3   OH248820   0.989   6.311   0.691 -0.0954  0.8464  0.0060
 9110TIP3    H148821   1.037   6.229   0.702  0.1224  0.5724 -2.3404
 9110TIP3    H248822   1.028   6.351   0.613 -1.8883  1.9257 -0.4047
 9111TIP3   OH248823   6.631   6.036   3.858 -0.2241  0.2511 -0.1414
 9111TIP3    H148824   6.561   5.971   3.858  1.3588 -1.5812 -1.4224
 9111TIP3    H248825   6.646   6.055   3.951 -0.0734 -2.0475  0.3751
 9112TIP3   OH248826   3.079   6.488  16.224  0.4051  0.2421  0.6902
 9112TIP3    H148827   3.143   6.553  16.193  0.5283 -0.0775  0.2732
 9112TIP3    H248828   3.126   6.405  16.221 -1.3604 -0.9413 -4.3969
 9113TIP3   OH248829   0.876   1.565  13.419  0.2530  0.0022 -0.4490
 9113TIP3    H148830   0.856   1.544  13.510 -0.4168  0.8270 -0.4015
 9113TIP3    H248831   0.971   1.577  13.418  0.1296  1.2360  0.4134
 9114TIP3   OH248832   3.375   3.017  13.622 -0.1161 -0.4228  0.0471
 9114TIP3    H148833   3.327   3.095  13.649  0.1667 -0.2586  0.0757
 9114TIP3    H248834   3.467   3.044  13.622 -0.1027 -0.4146 -1.0814
 9115TIP3   OH248835   4.459   1.323  17.131  0.1385  0.1409 -0.0350
 9115TIP3    H148836   4.551   1.313  17.156  0.0191  1.8805  1.2464
 9115TIP3    H248837   4.460   1.387  17.060 -0.1857  1.5842  1.2100
 9116TIP3   OH248838   3.078   0.262  11.673  0.2888 -0.2731 -0.3889
 9116TIP3    H148839   3.149   0.286  11.615  0.1228  0.1071 -0.4379
 9116TIP3    H248840   3.068   0.167  11.662  1.7385 -0.5891  0.6874
 9117TIP3   OH248841   5.746   5.869  11.820  0.9691  0.0438 -0.1840
 9117TIP3    H148842   5.726   5.857  11.727  0.9515  2.3106 -0.5391
 9117TIP3    H248843   5.726   5.784  11.860  0.0383 -0.7013 -2.0867
 9118TIP3   OH248844   0.511   5.948  14.477 -0.5171  0.4432  0.0153
 9118TIP3    H148845   0.496   6.040  14.457 -1.6683  0.3372  0.2874
 9118TIP3    H248846   0.450   5.929  14.548 -0.1569 -0.4817  0.0953
 9119TIP3   OH248847   4.215   1.807   2.117  0.2106 -0.0327  0.0120
 9119TIP3    H148848   4.294   1.807   2.171  0.3837 -1.2405 -0.2169
 9119TIP3    H248849   4.163   1.880   2.151  1.5384  0.9693 -0.0232
 9120TIP3   OH248850   2.832   5.610  11.534 -0.2321  0.5937 -0.3904
 9120TIP3    H148851   2.809   5.658  11.454 -0.2138 -0.1845 -0.8702
 9120TIP3    H248852   2.908   5.657  11.568  0.8617 -0.0671 -1.7825
 9121TIP3   OH248853   5.042   2.729   0.426 -0.1978  0.0552  0.0458
 9121TIP3    H148854   5.123   2.716   0.375  0.0627 -2.5817  0.9747
 9121TIP3    H248855   4.973   2.693   0.370 -0.5185  0.7529 -0.0256
 9122TIP3   OH248856   4.551   0.422  16.879 -0.8719 -0.0386  0.6637
 9122TIP3    H148857   4.627   0.384  16.923  0.0739  0.9931 -0.0086
 9122TIP3    H248858   4.545   0.511  16.914  0.9703  1.4491 -2.3601
 9123TIP3   OH248859   4.776   3.400  12.566 -0.0010 -0.2024  0.4506
 9123TIP3    H148860   4.729   3.336  12.514  1.9017 -0.7854 -0.6436
 9123TIP3    H248861   4.846   3.350  12.608 -0.9793  0.4005  2.9857
 9124TIP3   OH248862   6.833   2.974   3.098 -0.3461  0.2007 -0.1799
 9124TIP3    H148863   6.777   2.952   3.023  1.5113 -2.9131 -0.8376
 9124TIP3    H248864   6.792   2.930   3.173 -1.8643  2.8111  0.6628
 9125TIP3   OH248865   0.685   4.162  16.523 -0.2458 -0.3605  0.0011
 9125TIP3    H148866   0.757   4.104  16.550 -0.6328 -0.3635  1.0858
 9125TIP3    H248867   0.721   4.250  16.532 -0.8450 -0.2703  2.1899
 9126TIP3   OH248868   1.593   3.222   3.604  0.6203 -0.0150 -0.2053
 9126TIP3    H148869   1.660   3.174   3.654  0.0709 -1.7697 -1.0757
 9126TIP3    H248870   1.643   3.269   3.537  1.0749 -0.4297 -0.1646
 9127TIP3   OH248871   5.442   5.458  16.622 -0.1823 -0.2456 -0.2887
 9127TIP3    H148872   5.386   5.519  16.575  1.0458  1.7270  0.6283
 9127TIP3    H248873   5.523   5.455  16.570  1.1133  1.8053  1.4215
 9128TIP3   OH248874   2.290   3.067   0.357 -0.1767 -0.1603  0.2611
 9128TIP3    H148875   2.250   3.015   0.288  1.9073 -0.9943 -0.3810
 9128TIP3    H248876   2.364   3.110   0.315 -0.0460  0.9237  1.5268
 9129TIP3   OH248877   2.647   2.043  14.965  0.0742  0.0971  0.0426
 9129TIP3    H148878   2.699   1.970  14.998 -0.6525 -0.3588  0.1992
 9129TIP3    H248879   2.574   2.051  15.027 -0.1959  0.5425 -0.3254
 9130TIP3   OH248880   4.280   6.555  15.275 -0.6956 -0.7902  0.2548
 9130TIP3    H148881   4.305   6.492  15.342 -0.5337 -0.4202  0.5495
 9130TIP3    H248882   4.240   6.503  15.206 -1.4580 -1.1097  0.9193
 9131TIP3   OH248883   0.577   3.581  13.528  0.0528  0.3964 -0.0378
 9131TIP3    H148884   0.654   3.631  13.553  1.2285 -1.4021  0.1495
 9131TIP3    H248885   0.503   3.632  13.559  1.2511  1.2149  1.5777
 9132TIP3   OH248886   4.348   5.177   5.770  0.1054  0.5249  0.0880
 9132TIP3    H148887   4.396   5.095   5.759  0.0171  0.7472 -2.7028
 9132TIP3    H248888   4.417   5.244   5.775  0.2255  0.3274  3.3835
 9133TIP3   OH248889   1.757   5.131  13.008  0.5122 -0.1068  0.4594
 9133TIP3    H148890   1.699   5.055  13.008  1.2582 -0.6948 -0.1444
 9133TIP3    H248891   1.813   5.119  12.931 -0.9204  2.2734 -1.1057
 9134TIP3   OH248892   1.820   1.203  15.550 -0.2276  0.2832 -0.2375
 9134TIP3    H148893   1.886   1.161  15.605 -1.0681  0.6076  1.0551
 9134TIP3    H248894   1.752   1.137  15.539 -1.0285  0.8874  0.8695
 9135TIP3   OH248895   6.185   4.646  16.721 -0.3965 -0.4480  0.2038
 9135TIP3    H148896   6.192   4.694  16.639 -0.0383 -3.5877 -1.7743
 9135TIP3    H248897   6.239   4.695  16.783 -0.4966  1.8951 -1.4422
 9136TIP3   OH248898   5.134   1.100  16.586  0.1666  0.5084 -0.1417
 9136TIP3    H148899   5.180   1.076  16.667  0.9196  0.6921 -0.5071
 9136TIP3    H248900   5.086   1.180  16.608  1.5018  1.3652 -0.2605
 9137TIP3   OH248901   5.935   3.110   4.935  0.3329  0.3211 -0.4303
 9137TIP3    H148902   5.842   3.128   4.954  0.3860  1.2459 -0.9737
 9137TIP3    H248903   5.977   3.107   5.021 -0.2087 -0.1416 -0.1780
 9138TIP3   OH248904   1.987   3.764   4.793  0.3872  0.0758 -0.5391
 9138TIP3    H148905   1.935   3.792   4.718 -0.3051  1.0295  0.2529
 9138TIP3    H248906   2.060   3.716   4.756 -0.7973 -0.8858 -1.7254
 9139TIP3   OH248907   6.109   0.184   1.149  0.0414 -0.7184 -0.1724
 9139TIP3    H148908   6.115   0.164   1.242 -0.2844  0.5509  0.1327
 9139TIP3    H248909   6.193   0.223   1.128 -0.2097 -0.1995 -0.2111
 9140TIP3   OH248910   5.449   1.225  12.231 -0.5953 -0.2327  0.2597
 9140TIP3    H148911   5.524   1.174  12.201  0.9008  1.6725  0.5691
 9140TIP3    H248912   5.451   1.216  12.326 -0.3646  0.2854  0.3119
 9141TIP3   OH248913   0.419   6.485   1.720 -0.5291  0.5507  0.6131
 9141TIP3    H148914   0.351   6.487   1.787  1.1330  4.4267  2.5076
 9141TIP3    H248915   0.501   6.487   1.769  0.9530 -1.2858 -1.6048
 9142TIP3   OH248916   4.646   1.505  11.481  0.2628  1.1365 -0.1149
 9142TIP3    H148917   4.573   1.507  11.542 -0.9831  1.7896 -1.5469
 9142TIP3    H248918   4.620   1.442  11.414  1.4518  0.6583 -0.1564
 9143TIP3   OH248919   6.247   2.907   4.193 -0.3511  0.1007  0.2102
 9143TIP3    H148920   6.264   2.975   4.257 -0.4915  0.8528 -0.5315
 9143TIP3    H248921   6.333   2.878   4.164 -0.2910 -0.0826  0.5669
 9144TIP3   OH248922   6.309   1.881  10.913  0.0423 -0.1648 -0.4053
 9144TIP3    H148923   6.403   1.862  10.912  0.0132 -0.3375 -0.0126
 9144TIP3    H248924   6.267   1.795  10.914 -0.0996 -0.0968  0.6923
 9145TIP3   OH248925   2.783   3.558   2.569  0.5470  1.0635  0.4783
 9145TIP3    H148926   2.875   3.549   2.595  0.5848  3.4350  1.4726
 9145TIP3    H248927   2.734   3.506   2.634  1.0934  1.3332  1.1232
 9146TIP3   OH248928   2.976   0.928   3.943  0.0999 -0.1587  0.6039
 9146TIP3    H148929   2.901   0.898   3.995  0.1554 -0.1419  0.6930
 9146TIP3    H248930   2.983   0.864   3.872 -2.0307  1.5646 -1.3147
 9147TIP3   OH248931   4.201   6.276   0.121  0.6011  1.1148  0.0404
 9147TIP3    H148932   4.126   6.306   0.172 -0.1791  0.6601 -0.8140
 9147TIP3    H248933   4.166   6.258   0.034  1.2243 -1.1373  0.1682
 9148TIP3   OH248934   3.922   5.360  15.772  0.1139  0.1235 -0.1954
 9148TIP3    H148935   4.008   5.399  15.789  0.8648 -0.2593 -2.6751
 9148TIP3    H248936   3.863   5.434  15.765  0.4499  0.4584  0.4080
 9149TIP3   OH248937   0.731   5.065   6.085 -0.1368 -0.1300 -0.2264
 9149TIP3    H148938   0.646   5.033   6.113  0.4099  0.0891  1.8106
 9149TIP3    H248939   0.717   5.158   6.066 -0.2152  0.1027  0.8906
 9150TIP3   OH248940   2.572   1.298   3.682 -0.2563 -0.2277  0.0136
 9150TIP3    H148941   2.611   1.384   3.671 -0.3736 -0.0683  0.7515
 9150TIP3    H248942   2.478   1.316   3.695 -0.2654 -0.4492  0.2744
 9151TIP3   OH248943   2.401   6.036  14.930  0.4676  0.3331  0.2561
 9151TIP3    H148944   2.437   6.081  15.006  0.6367 -0.5649  0.7158
 9151TIP3    H248945   2.477   6.009  14.878  0.4630 -0.8488  0.8193
 9152TIP3   OH248946   2.473   0.238  14.891  0.0276  0.3361 -0.1716
 9152TIP3    H148947   2.459   0.327  14.859 -0.0709 -0.4103 -2.3786
 9152TIP3    H248948   2.386   0.209  14.919 -0.2189  0.4850 -0.7535
 9153TIP3   OH248949   2.058   2.470   5.422 -0.2072 -0.1642 -0.5344
 9153TIP3    H148950   2.009   2.387   5.419  0.4106 -0.5160 -1.6151
 9153TIP3    H248951   2.134   2.454   5.367  0.8517  0.5564  0.6884
 9154TIP3   OH248952   6.241   0.471  13.335  0.0396 -0.4425  0.1239
 9154TIP3    H148953   6.288   0.554  13.322  1.8330 -1.5771 -1.2840
 9154TIP3    H248954   6.306   0.414  13.376 -0.1985 -1.9161 -1.4178
 9155TIP3   OH248955   2.980   2.215   5.230  0.4967 -0.2321  0.0525
 9155TIP3    H148956   2.938   2.271   5.164  1.3019  2.0538  1.3708
 9155TIP3    H248957   2.987   2.270   5.308  2.3326 -1.8331  1.1184
 9156TIP3   OH248958   3.230   3.895   4.786  0.2030  0.2513  0.0124
 9156TIP3    H148959   3.141   3.908   4.819 -0.7254 -0.6771 -1.9557
 9156TIP3    H248960   3.282   3.962   4.831 -1.0610 -0.4060  2.6539
 9157TIP3   OH248961   4.134   1.190  15.111 -0.4639  0.2601 -0.2756
 9157TIP3    H148962   4.067   1.215  15.175  0.5822 -1.2910  1.5231
 9157TIP3    H248963   4.217   1.211  15.154  0.2614  0.6403 -1.8021
 9158TIP3   OH248964   0.667   6.129  13.345 -0.2698  0.3335 -0.4100
 9158TIP3    H148965   0.716   6.052  13.316  0.2335  0.7896 -0.7987
 9158TIP3    H248966   0.719   6.163  13.418 -0.8780 -0.1053  0.2351
 9159TIP3   OH248967   1.528   5.589   0.185  0.4308  0.1806 -0.3853
 9159TIP3    H148968   1.575   5.670   0.167  2.1000 -0.2812  1.5246
 9159TIP3    H248969   1.588   5.539   0.241 -2.3357 -0.4868  2.1822
 9160TIP3   OH248970   6.705   2.982   2.817  0.5847 -0.6405  0.0372
 9160TIP3    H148971   6.730   2.892   2.796  0.0114 -0.8306  0.1654
 9160TIP3    H248972   6.623   2.997   2.771  0.9523  0.0118 -0.4395
 9161TIP3   OH248973   3.105   0.799  12.293  0.9229 -0.4321 -0.1125
 9161TIP3    H148974   3.102   0.875  12.351  1.4527 -0.1114 -0.5022
 9161TIP3    H248975   3.034   0.813  12.230  2.0134  0.5515 -1.1707
 9162TIP3   OH248976   4.767   0.321  17.019  0.2706 -0.5597 -0.1331
 9162TIP3    H148977   4.788   0.307  17.111  0.4243 -0.6879 -0.1884
 9162TIP3    H248978   4.783   0.236  16.977  0.5776 -0.3970 -0.3495
 9163TIP3   OH248979   0.514   4.033   5.740 -0.9408 -0.6444  0.1125
 9163TIP3    H148980   0.563   4.042   5.822 -2.4872  0.9087  0.9422
 9163TIP3    H248981   0.564   3.969   5.689  2.2018  1.1413  0.6617
 9164TIP3   OH248982   1.479   1.317   3.604 -0.4574  0.1895  0.5928
 9164TIP3    H148983   1.400   1.297   3.552  0.2100 -1.0798  0.0215
 9164TIP3    H248984   1.545   1.341   3.539  0.4326 -1.5578  0.7939
 9165TIP3   OH248985   5.634   5.559  12.606 -0.2560  0.3342  0.2963
 9165TIP3    H148986   5.685   5.479  12.593  2.4829  1.9232  0.3311
 9165TIP3    H248987   5.604   5.554  12.697  1.0266 -0.0994  0.7258
 9166TIP3   OH248988   0.862   4.062   3.243 -0.4069 -0.0200 -0.4831
 9166TIP3    H148989   0.893   4.126   3.307 -1.0389  0.5136 -0.7020
 9166TIP3    H248990   0.917   3.985   3.258  0.9929  0.8756 -0.8211
 9167TIP3   OH248991   2.171   4.133  12.404 -0.3195 -0.2977  0.3518
 9167TIP3    H148992   2.104   4.161  12.341  1.8011  0.6517 -1.6170
 9167TIP3    H248993   2.148   4.042  12.424 -2.0673 -0.0667 -0.3981
 9168TIP3   OH248994   2.702   5.100  15.247  0.7138 -0.4031  0.2024
 9168TIP3    H148995   2.731   5.162  15.313 -0.7021  0.4785  0.0494
 9168TIP3    H248996   2.609   5.086  15.267  0.0083  0.5603 -2.0535
 9169TIP3   OH248997   4.569   1.129   4.603  0.3233  0.6319  0.3351
 9169TIP3    H148998   4.478   1.108   4.627 -0.7085  1.7507 -2.2635
 9169TIP3    H248999   4.571   1.225   4.601  0.6935  0.6367 -2.3587
 9170TIP3   OH249000   6.085   6.236   5.682 -0.0365 -0.1997  0.0791
 9170TIP3    H149001   6.117   6.261   5.769  2.3060  0.1030 -0.7855
 9170TIP3    H249002   6.022   6.303   5.658  0.7284  0.7884  0.7809
 9171TIP3   OH249003   5.933   3.022  11.194  0.4078  0.4368 -0.3675
 9171TIP3    H149004   5.906   3.095  11.139 -1.6686 -1.2150 -1.6904
 9171TIP3    H249005   5.905   3.046  11.282 -0.6659  1.0521 -0.8579
 9172TIP3   OH249006   3.658   4.219   4.481 -0.0635  0.3072  0.3011
 9172TIP3    H149007   3.583   4.225   4.422  0.6357  2.3314 -0.4574
 9172TIP3    H249008   3.650   4.295   4.538  0.5001 -0.3984  1.3729
 9173TIP3   OH249009   1.350   4.440   5.777  0.4828  0.2545  0.2807
 9173TIP3    H149010   1.256   4.456   5.769 -0.1903 -2.9510  0.1718
 9173TIP3    H249011   1.373   4.468   5.865 -0.6270  0.7991  0.4086
 9174TIP3   OH249012   0.069   5.042  11.750  0.2035  0.9529 -0.5390
 9174TIP3    H149013   0.037   4.955  11.775 -1.8093  1.8001 -0.0115
 9174TIP3    H249014   0.164   5.036  11.762  0.2399 -1.4300 -1.3659
 9175TIP3   OH249015   5.547   4.240  13.702  0.1325  0.5651 -0.2915
 9175TIP3    H149016   5.457   4.230  13.735  0.7667  0.2657  1.4970
 9175TIP3    H249017   5.580   4.318  13.747  1.0005  0.2423 -0.3476
 9176TIP3   OH249018   2.016   5.495  12.679 -0.0179  0.2219  0.4643
 9176TIP3    H149019   1.980   5.557  12.742 -0.3279 -0.1986  0.7042
 9176TIP3    H249020   2.081   5.546  12.630 -0.7660  0.9260  0.1836
 9177TIP3   OH249021   2.939   5.839  14.555  0.3015 -0.0073 -0.3601
 9177TIP3    H149022   2.848   5.809  14.549 -0.0264  1.0776 -1.2122
 9177TIP3    H249023   2.991   5.767  14.520 -0.3266 -0.2108 -0.8883
 9178TIP3   OH249024   4.170   4.456  16.642  0.5191  0.5516 -0.0161
 9178TIP3    H149025   4.238   4.389  16.645  0.0837  0.1212  0.5574
 9178TIP3    H249026   4.088   4.407  16.633 -0.0839  0.7761  3.0477
 9179TIP3   OH249027   2.467   3.193   2.419  0.3299 -0.9066 -0.5683
 9179TIP3    H149028   2.374   3.206   2.437  0.3323 -1.7465  0.1314
 9179TIP3    H249029   2.499   3.280   2.395 -0.5488 -0.5321 -0.4377
 9180TIP3   OH249030   0.157   0.528   2.122 -0.8775 -0.3568  0.1932
 9180TIP3    H149031   0.120   0.566   2.202  0.4864  0.4286  0.4737
 9180TIP3    H249032   0.250   0.517   2.141 -0.7017 -1.0416 -0.9636
 9181TIP3   OH249033   6.639   5.408   1.128  0.0523  0.0085  0.0127
 9181TIP3    H149034   6.696   5.389   1.054 -1.0047 -0.8467 -0.6113
 9181TIP3    H249035   6.696   5.450   1.193  1.1399  0.1190 -0.9977
 9182TIP3   OH249036   4.806   1.104   1.223  0.7306 -0.2871  0.8319
 9182TIP3    H149037   4.740   1.038   1.244  1.8796 -1.1932  1.7013
 9182TIP3    H249038   4.888   1.068   1.257  1.7659  0.6225 -0.5834
 9183TIP3   OH249039   0.306   2.476  14.970  0.2134  0.1416  0.4440
 9183TIP3    H149040   0.270   2.442  15.051 -0.2204  1.0652  0.6581
 9183TIP3    H249041   0.351   2.557  14.995 -0.8035  0.9937 -0.3501
 9184TIP3   OH249042   0.170   5.052  15.192  0.0771  0.0167 -0.4383
 9184TIP3    H149043   0.251   5.040  15.242 -0.0735  1.0900  0.0953
 9184TIP3    H249044   0.141   4.963  15.172 -0.0578 -0.5009  1.7507
 9185TIP3   OH249045   6.259   6.360  15.871  0.4847 -0.3101  0.5292
 9185TIP3    H149046   6.301   6.324  15.948 -0.3559 -1.0852  0.6442
 9185TIP3    H249047   6.327   6.360  15.804  0.2576 -3.1332  0.2115
 9186TIP3   OH249048   5.641   4.565   2.938  0.1481 -0.0825 -0.3900
 9186TIP3    H149049   5.720   4.605   2.972 -1.5336  3.0413  0.2446
 9186TIP3    H249050   5.659   4.550   2.845  1.1302  1.6777 -0.5256
 9187TIP3   OH249051   4.033   1.102  13.820 -0.7377  0.0069 -0.3860
 9187TIP3    H149052   4.087   1.023  13.827  0.0498  0.5707 -0.0118
 9187TIP3    H249053   4.095   1.174  13.814 -1.4440  0.5871 -1.1117
 9188TIP3   OH249054   6.022   2.204  11.503  0.6144 -0.5339  0.5930
 9188TIP3    H149055   5.998   2.126  11.453 -0.1515 -0.4813  0.8592
 9188TIP3    H249056   6.090   2.175  11.563 -0.4295 -1.2824  1.4562
 9189TIP3   OH249057   3.149   3.354   0.918 -0.2055  0.4025 -0.3990
 9189TIP3    H149058   3.235   3.393   0.933 -0.4043  0.6377  0.1377
 9189TIP3    H249059   3.122   3.387   0.832 -0.2967  1.3177 -0.0255
 9190TIP3   OH249060   5.210   1.287  12.054 -0.4350 -0.4753  0.2490
 9190TIP3    H149061   5.296   1.328  12.057 -0.0519 -1.2721  1.1680
 9190TIP3    H249062   5.168   1.314  12.136 -0.9732 -0.2694 -0.0924
 9191TIP3   OH249063   2.631   0.327   3.670  0.2503  0.2721 -0.6365
 9191TIP3    H149064   2.588   0.310   3.754  0.2573  0.4103 -0.6041
 9191TIP3    H249065   2.645   0.240   3.632  2.3227  0.0066  0.5244
 9192TIP3   OH249066   2.650   3.488  13.687 -0.4529  0.4142 -0.0352
 9192TIP3    H149067   2.646   3.497  13.591 -1.2756 -1.1653 -0.1740
 9192TIP3    H249068   2.737   3.455  13.704 -0.7583 -0.6105 -0.3829
 9193TIP3   OH249069   4.970   5.339   5.120  0.6899 -0.2692  0.4998
 9193TIP3    H149070   5.011   5.304   5.199 -0.8841  0.4945  1.6994
 9193TIP3    H249071   5.024   5.305   5.049  0.6745 -3.1525  1.7079
 9194TIP3   OH249072   2.415   5.437  15.433  0.2177 -0.1449 -0.0597
 9194TIP3    H149073   2.499   5.419  15.476  0.1385  0.2585  0.2701
 9194TIP3    H249074   2.433   5.509  15.374  0.3509 -0.7724 -0.8006
 9195TIP3   OH249075   3.911   4.425   2.533  0.6321 -0.1641 -0.2276
 9195TIP3    H149076   3.854   4.440   2.457  0.9922  1.4393 -0.2276
 9195TIP3    H249077   3.905   4.331   2.550  0.0217 -0.4469 -1.8296
 9196TIP3   OH249078   1.029   1.894  16.617  0.4888  0.6724  0.1861
 9196TIP3    H149079   1.008   1.984  16.594 -1.4130  0.3257  0.4731
 9196TIP3    H249080   1.093   1.866  16.550  0.2801  1.8694 -0.5291
 9197TIP3   OH249081   0.919   3.229  15.761 -0.3764 -0.2115 -0.3048
 9197TIP3    H149082   0.983   3.192  15.700 -0.4036 -0.6834 -0.0490
 9197TIP3    H249083   0.854   3.272  15.704  1.4593  2.5520 -0.5455
 9198TIP3   OH249084   1.915   4.576  14.066  0.0120  0.2886 -0.2167
 9198TIP3    H149085   1.933   4.484  14.046 -0.0566 -0.1688  1.6237
 9198TIP3    H249086   1.881   4.574  14.155 -0.1808  2.0972 -0.2272
 9199TIP3   OH249087   1.082   1.764  15.798  0.4038 -0.3684  0.0342
 9199TIP3    H149088   1.078   1.732  15.888  1.0215 -1.0298 -0.1650
 9199TIP3    H249089   1.144   1.706  15.754 -0.5388 -0.5993 -1.0425
 9200TIP3   OH249090   5.189   3.547   5.735  0.2689 -0.3305 -0.4942
 9200TIP3    H149091   5.279   3.565   5.708  0.2143  0.0183 -0.4542
 9200TIP3    H249092   5.145   3.632   5.726  0.3750 -0.0646  1.1823
 9201TIP3   OH249093   1.463   4.143   3.961 -0.1171  0.5337 -0.9718
 9201TIP3    H149094   1.512   4.134   4.044 -1.2695 -1.2646 -0.4262
 9201TIP3    H249095   1.443   4.236   3.955  0.5549  0.8017  0.4472
 9202TIP3   OH249096   2.333   1.895  12.581  0.2290 -0.3970  0.0949
 9202TIP3    H149097   2.362   1.949  12.655 -1.1870 -0.6082  0.8472
 9202TIP3    H249098   2.386   1.925  12.508 -0.1023  1.6469  0.6095
 9203TIP3   OH249099   0.073   0.174   2.269 -0.0911 -0.0823 -0.4381
 9203TIP3    H149100   0.141   0.118   2.307  1.1424  1.5074 -0.2019
 9203TIP3    H249101   0.040   0.225   2.343 -0.2510  0.4458 -0.8716
 9204TIP3   OH249102   6.786   2.600  11.890  0.4169 -0.1624  0.2006
 9204TIP3    H149103   6.879   2.586  11.869  1.1033  0.7875  2.3397
 9204TIP3    H249104   6.752   2.648  11.814  1.8105 -0.0313 -0.3803
 9205TIP3   OH249105   2.355   5.391   5.805  0.8914  0.0152 -0.3213
 9205TIP3    H149106   2.357   5.439   5.722  0.8153  1.2008  0.3407
 9205TIP3    H249107   2.446   5.389   5.834  1.6186 -3.7908 -2.2423
 9206TIP3   OH249108   1.874   2.672   3.224  0.0721  0.3618  0.2267
 9206TIP3    H149109   1.964   2.642   3.240  0.4338  1.4004  0.1617
 9206TIP3    H249110   1.824   2.634   3.296  0.6501  0.1797  0.5455
 9207TIP3   OH249111   6.087   1.147   1.509 -0.2571 -0.3189  0.3063
 9207TIP3    H149112   6.168   1.185   1.544 -0.3289  0.5300 -0.4033
 9207TIP3    H249113   6.107   1.055   1.496  0.6259 -0.1061  0.0885
 9208TIP3   OH249114   2.674   1.067   4.283  0.3034 -0.0157  0.2356
 9208TIP3    H149115   2.580   1.080   4.269  0.2095 -1.3312 -0.5056
 9208TIP3    H249116   2.709   1.156   4.288 -1.0390  0.5021  1.0014
 9209TIP3   OH249117   3.577   0.916   4.400  0.0009  1.0453  0.1636
 9209TIP3    H149118   3.594   1.005   4.430 -1.5208  1.2772  0.4423
 9209TIP3    H249119   3.612   0.860   4.470 -0.0308  1.4667  0.5228
 9210TIP3   OH249120   1.528   3.672  15.876  0.4372  0.4567  0.0905
 9210TIP3    H149121   1.482   3.591  15.900 -0.4449  0.5966 -1.0409
 9210TIP3    H249122   1.479   3.706  15.801  0.5561  2.2677  0.7891
 9211TIP3   OH249123   1.444   2.245   1.504 -0.2742  0.2904  0.1377
 9211TIP3    H149124   1.471   2.300   1.430 -2.3076  1.3298  0.1088
 9211TIP3    H249125   1.379   2.186   1.467 -0.8594  0.4019  0.9741
 9212TIP3   OH249126   1.675   3.342  14.986 -0.6356 -0.0022  0.1251
 9212TIP3    H149127   1.754   3.397  14.985  0.3673 -1.2828  2.2368
 9212TIP3    H249128   1.621   3.378  14.916  1.5389  1.3203 -1.0103
 9213TIP3   OH249129   1.984   1.052  13.385  0.0379 -0.1614  0.1332
 9213TIP3    H149130   1.942   1.086  13.307 -1.0728 -0.0117  0.7772
 9213TIP3    H249131   2.031   0.974  13.355  0.2449  0.3108 -0.8071
 9214TIP3   OH249132   2.331   0.786  10.892  0.0556  0.2131 -0.3455
 9214TIP3    H149133   2.388   0.810  10.819 -0.6746 -0.8859 -1.3214
 9214TIP3    H249134   2.389   0.744  10.955  0.7838  1.6111 -0.0292
 9215TIP3   OH249135   1.866   1.417   1.060  0.2523  0.2987  0.2504
 9215TIP3    H149136   1.849   1.326   1.036  1.3058  0.4132 -0.9919
 9215TIP3    H249137   1.888   1.461   0.978  0.0415  1.6176  0.8699
 9216TIP3   OH249138   5.165   0.305   0.194 -0.5735 -0.1765  0.1508
 9216TIP3    H149139   5.155   0.299   0.289  2.6710 -0.4545  0.5697
 9216TIP3    H249140   5.184   0.397   0.177  0.2165 -0.3679 -0.0425
 9217TIP3   OH249141   3.925   4.884  12.888 -0.1971  0.1694 -0.3377
 9217TIP3    H149142   3.939   4.923  12.974  0.9701  0.3863 -0.6113
 9217TIP3    H249143   3.890   4.796  12.907  0.6119 -0.0111  0.3732
 9218TIP3   OH249144   0.234   0.942   2.353 -0.0123  0.1551  0.1214
 9218TIP3    H149145   0.213   0.970   2.442 -2.0233 -0.6382 -0.0412
 9218TIP3    H249146   0.259   0.851   2.361 -1.8898 -0.4418 -0.2552
 9219TIP3   OH249147   5.487   0.865  13.250  0.0744  0.6403  0.3242
 9219TIP3    H149148   5.550   0.889  13.318 -0.4128  0.5104  0.8251
 9219TIP3    H249149   5.402   0.874  13.292 -0.1967 -0.1712 -0.0365
 9220TIP3   OH249150   5.527   1.223  16.190 -0.1712  0.6822 -0.2185
 9220TIP3    H149151   5.575   1.234  16.108 -1.8245 -0.7930 -1.4551
 9220TIP3    H249152   5.466   1.151  16.173 -0.1533 -0.0902  2.5171
 9221TIP3   OH249153   2.050   0.313  16.081 -0.6106  0.2128 -0.1824
 9221TIP3    H149154   1.995   0.363  16.141 -1.7128 -2.6730  1.3829
 9221TIP3    H249155   2.096   0.250  16.137  2.8523  1.1314 -1.6827
 9222TIP3   OH249156   6.219   4.224  11.580  0.0622 -0.2183 -0.6380
 9222TIP3    H149157   6.127   4.248  11.580 -0.2723 -1.2507 -2.9996
 9222TIP3    H249158   6.262   4.290  11.525  0.8621  0.5137  0.7970
 9223TIP3   OH249159   3.745   6.234  11.858  0.1148 -0.5332  0.3877
 9223TIP3    H149160   3.732   6.311  11.913 -0.1732 -0.8021  0.7069
 9223TIP3    H249161   3.664   6.227  11.806  0.4123 -0.2421 -0.1234
 9224TIP3   OH249162   2.882   0.547  11.992 -0.4005 -0.4248  0.1729
 9224TIP3    H149163   2.974   0.548  11.964 -0.6178 -0.5158 -0.5624
 9224TIP3    H249164   2.849   0.463  11.962 -1.1075  0.2011 -0.8387
 9225TIP3   OH249165   1.668   2.493   5.389  0.5450 -0.0210  0.3786
 9225TIP3    H149166   1.655   2.470   5.297 -0.7914 -0.6408  0.7039
 9225TIP3    H249167   1.648   2.587   5.393  2.5747  0.5027 -0.2980
 9226TIP3   OH249168   3.972   3.975  11.756 -0.3968 -0.0916 -0.1700
 9226TIP3    H149169   4.061   4.010  11.759 -0.0990 -0.6910 -1.2722
 9226TIP3    H249170   3.984   3.882  11.738 -1.2375 -0.2727  0.1634
 9227TIP3   OH249171   0.957   3.851   0.423 -0.3904 -0.2248 -0.0758
 9227TIP3    H149172   0.887   3.915   0.411 -1.2020 -1.0263  0.2021
 9227TIP3    H249173   1.008   3.885   0.496 -1.0126 -0.0491  0.2907
 9228TIP3   OH249174   1.666   2.519  16.294  0.1279  0.3241  0.2304
 9228TIP3    H149175   1.745   2.477  16.262  0.2686  0.6668  0.1195
 9228TIP3    H249176   1.694   2.571  16.369 -0.2332 -0.6141  1.0318
 9229TIP3   OH249177   6.124   6.070   0.446 -0.1299 -0.4008 -0.0244
 9229TIP3    H149178   6.090   6.078   0.535  1.1028  0.0731  0.4118
 9229TIP3    H249179   6.064   6.008   0.404  0.4998 -2.3407  1.7698
 9230TIP3   OH249180   3.472   3.862  12.328 -0.2957  0.3991 -0.1692
 9230TIP3    H149181   3.463   3.906  12.243 -1.6205 -1.1171 -0.8709
 9230TIP3    H249182   3.480   3.769  12.306 -1.1844 -0.0793  1.3623
 9231TIP3   OH249183   1.384   5.338  12.081 -0.7370  0.2823  0.3504
 9231TIP3    H149184   1.460   5.394  12.070 -1.4015  0.9333 -1.2325
 9231TIP3    H249185   1.347   5.330  11.993 -2.8389  0.4822  1.1548
 9232TIP3   OH249186   2.724   6.341  15.540 -1.1662 -0.3141 -0.5125
 9232TIP3    H149187   2.725   6.360  15.447  0.0443  0.7532 -0.2996
 9232TIP3    H249188   2.704   6.424  15.582  3.3375  0.5882  0.3867
 9233TIP3   OH249189   4.622   2.426  16.810 -0.1257 -0.1898 -0.3272
 9233TIP3    H149190   4.554   2.396  16.870 -0.8649  0.8948 -0.5995
 9233TIP3    H249191   4.703   2.419  16.861 -0.4647 -1.2354  0.0866
 9234TIP3   OH249192   6.483   2.093  11.800 -0.2670  0.3682 -0.3444
 9234TIP3    H149193   6.433   2.078  11.719  3.4589 -1.3425 -2.6245
 9234TIP3    H249194   6.574   2.091  11.772  1.2513  0.5194  3.8743
 9235TIP3   OH249195   0.020   1.647  13.665  0.6680  0.7881 -0.2673
 9235TIP3    H149196  -0.073   1.631  13.677 -0.1130  5.3879  1.8352
 9235TIP3    H249197   0.063   1.571  13.705 -2.1686 -0.1664  1.2407
 9236TIP3   OH249198   1.658   0.363  14.167  0.0749 -0.3533 -0.4689
 9236TIP3    H149199   1.606   0.366  14.087  1.4971  0.6892 -1.3974
 9236TIP3    H249200   1.745   0.333  14.139  0.5275 -0.2382  0.7300
 9237TIP3   OH249201   3.614   6.425   4.270  0.6288  0.3465 -0.3020
 9237TIP3    H149202   3.592   6.336   4.241 -2.2191  0.6142  0.6574
 9237TIP3    H249203   3.607   6.479   4.192  1.4901 -0.1146 -0.7122
 9238TIP3   OH249204   0.352   1.587   2.085  0.4546 -0.5012 -0.1361
 9238TIP3    H149205   0.295   1.598   2.161  1.2112  0.3516  0.3300
 9238TIP3    H249206   0.322   1.505   2.045 -1.1211 -0.0620  0.0529
 9239TIP3   OH249207   2.789   0.231   1.117 -0.3616  0.5316  0.3980
 9239TIP3    H149208   2.769   0.220   1.211  0.1705 -3.2856  0.2413
 9239TIP3    H249209   2.705   0.215   1.074 -0.1860  0.1300  0.1984
 9240TIP3   OH249210   3.604   4.993   1.719 -0.4958 -0.2232  0.1680
 9240TIP3    H149211   3.540   4.922   1.722  0.6832 -1.3884 -0.9384
 9240TIP3    H249212   3.602   5.030   1.807 -2.2866 -0.5659  0.3169
 9241TIP3   OH249213   3.700   0.930   4.077  0.0293 -0.1670 -0.1019
 9241TIP3    H149214   3.727   0.860   4.018  1.2875  0.4437 -0.2866
 9241TIP3    H249215   3.627   0.973   4.032  0.1031 -0.5443 -0.5881
 9242TIP3   OH249216   2.983   1.414   2.135  0.3809  0.7159 -0.0308
 9242TIP3    H149217   3.041   1.488   2.150  1.2540  0.1433 -0.4723
 9242TIP3    H249218   3.038   1.349   2.091 -1.2107  1.1180 -2.8342
 9243TIP3   OH249219   4.037   5.441  16.945 -0.8000  0.3695 -0.3704
 9243TIP3    H149220   4.047   5.479  17.033 -1.8103 -0.7427  0.2601
 9243TIP3    H249221   4.092   5.496  16.889  1.3168  0.0474  1.2526
 9244TIP3   OH249222   5.947   1.899  16.001  0.1481  0.0315 -0.0254
 9244TIP3    H149223   5.948   1.924  16.093  0.1189 -0.1534  0.0275
 9244TIP3    H249224   6.024   1.844  15.990 -0.7767 -1.4263  0.3281
 9245TIP3   OH249225   2.474   0.921  12.742 -0.3087  0.0924  0.3062
 9245TIP3    H149226   2.385   0.895  12.722  0.2528 -0.2539 -1.9654
 9245TIP3    H249227   2.472   1.017  12.745 -0.8539  0.0686  0.9326
 9246TIP3   OH249228   1.833   4.259  14.747 -0.1165 -0.2965 -0.0672
 9246TIP3    H149229   1.809   4.235  14.657  0.2023  0.9460 -0.5022
 9246TIP3    H249230   1.811   4.352  14.754 -0.5671 -0.4868  1.2959
 9247TIP3   OH249231   4.725   0.656   5.602 -0.1457  0.2836 -0.5702
 9247TIP3    H149232   4.779   0.660   5.680  0.7210 -0.1122 -1.1387
 9247TIP3    H249233   4.718   0.747   5.573 -0.3576  0.4146 -0.1181
 9248TIP3   OH249234   3.734   6.690   3.487  0.4961  0.8402 -0.1601
 9248TIP3    H149235   3.683   6.759   3.529  1.8959  1.8511 -0.0450
 9248TIP3    H249236   3.801   6.667   3.552 -0.0528 -0.7694 -0.1249
 9249TIP3   OH249237   5.122   0.034  13.127 -0.0730  0.2878 -0.3739
 9249TIP3    H149238   5.210   0.062  13.103 -0.8375  2.0454 -1.3757
 9249TIP3    H249239   5.126  -0.061  13.127  2.2310  0.3163  1.3267
 9250TIP3   OH249240   1.491   3.692  12.131 -0.8288  0.0708  0.2390
 9250TIP3    H149241   1.446   3.622  12.084 -0.6022  2.6141 -4.3652
 9250TIP3    H249242   1.422   3.756  12.150 -0.2917  1.0338 -0.8715
 9251TIP3   OH249243   0.983   6.382  12.799 -0.1318  0.5080  0.2722
 9251TIP3    H149244   1.021   6.365  12.713 -0.6501 -0.9402  0.3019
 9251TIP3    H249245   0.901   6.428  12.781 -0.0606  0.5318  0.0153
 9252TIP3   OH249246   2.543   2.127  11.735  0.1003 -0.0108  0.6022
 9252TIP3    H149247   2.571   2.038  11.713 -0.7475 -0.4296  1.1386
 9252TIP3    H249248   2.614   2.162  11.788  1.3200  0.3474 -1.1650
 9253TIP3   OH249249   1.087   5.354  13.624 -0.5149 -0.1130  0.1531
 9253TIP3    H149250   1.093   5.393  13.537 -0.1679 -0.5542 -0.0264
 9253TIP3    H249251   1.104   5.427  13.684  0.5731 -0.0659 -0.1902
 9254TIP3   OH249252   5.126   0.013  11.844  0.4467 -0.3509  0.2838
 9254TIP3    H149253   5.110  -0.056  11.908  1.0596  1.1542  2.1698
 9254TIP3    H249254   5.043   0.060  11.838 -0.1105 -1.4862 -1.3540
 9255TIP3   OH249255   1.565   2.671  11.731 -0.0986 -0.9626  0.5125
 9255TIP3    H149256   1.495   2.636  11.676  1.1173 -0.1733 -1.6252
 9255TIP3    H249257   1.539   2.762  11.747 -0.0904 -0.9873  0.6718
 9256TIP3   OH249258   3.308   5.013   1.918 -0.0124  0.7587  0.0396
 9256TIP3    H149259   3.381   5.069   1.945  0.1194  0.7542 -0.3024
 9256TIP3    H249260   3.327   4.928   1.957 -0.9850  1.3252  1.8352
 9257TIP3   OH249261   5.773   1.090   1.529  0.1556  0.1255  0.0362
 9257TIP3    H149262   5.703   1.069   1.590  0.4685 -0.1733  0.2918
 9257TIP3    H249263   5.828   1.153   1.576  0.1830  0.1916 -0.0822
 9258TIP3   OH249264   5.237   1.328   3.420  0.2778  0.0846 -1.3776
 9258TIP3    H149265   5.278   1.260   3.474 -0.3307  0.7812  0.0103
 9258TIP3    H249266   5.270   1.410   3.455 -1.6138  0.6330 -0.7801
 9259TIP3   OH249267   0.289   5.511  13.113  0.3989  0.6264  0.0286
 9259TIP3    H149268   0.245   5.594  13.134 -2.8179 -1.3980  2.4272
 9259TIP3    H249269   0.238   5.474  13.041  0.5895 -0.0604  0.2303
 9260TIP3   OH249270   3.684   0.032   2.064  0.2074  0.0679  0.2750
 9260TIP3    H149271   3.638   0.008   1.984  1.2180 -0.6222 -0.1188
 9260TIP3    H249272   3.631  -0.005   2.135  0.8482 -1.9617 -0.2355
 9261TIP3   OH249273   3.592   4.722  11.799  0.0441  0.4213 -0.2142
 9261TIP3    H149274   3.649   4.650  11.772 -1.8268 -0.6572 -1.5237
 9261TIP3    H249275   3.632   4.756  11.879  2.6834 -0.0313 -1.2337
 9262TIP3   OH249276   5.707   6.016  13.722  0.5037  0.6160  0.5499
 9262TIP3    H149277   5.715   5.930  13.762  0.9042  0.2968 -0.1817
 9262TIP3    H249278   5.758   6.010  13.641 -2.5016  0.3160 -1.4699
 9263TIP3   OH249279   1.925   4.359  10.908  0.0572  0.2223  0.5493
 9263TIP3    H149280   1.950   4.375  10.999  0.9279 -1.0592  0.5488
 9263TIP3    H249281   1.847   4.414  10.895  0.4220  1.0663  1.8020
 9264TIP3   OH249282   5.279   1.916  15.622  0.3216  0.2697 -0.0387
 9264TIP3    H149283   5.284   1.957  15.536  0.3432  0.7022  0.1675
 9264TIP3    H249284   5.203   1.858  15.617  0.4563  0.1306 -0.4203
 9265TIP3   OH249285   4.727   0.666   0.317  0.2372  0.2406  0.3617
 9265TIP3    H149286   4.757   0.756   0.304 -0.5262  0.4808  0.1858
 9265TIP3    H249287   4.648   0.659   0.263 -1.5344  0.4650  2.7582
 9266TIP3   OH249288   4.929   4.794  12.140  0.8382 -0.5070 -0.1318
 9266TIP3    H149289   4.852   4.772  12.087  0.0490  0.1966  0.6966
 9266TIP3    H249290   4.997   4.814  12.076 -0.4491  1.6032 -0.9326
 9267TIP3   OH249291   1.328   0.849   0.039 -0.8541 -0.1249 -0.3890
 9267TIP3    H149292   1.244   0.826   0.079 -0.2969 -0.3302  0.7140
 9267TIP3    H249293   1.390   0.851   0.113 -0.0854  1.0078 -1.0271
 9268TIP3   OH249294   3.694   1.339  12.014  0.5420  0.0017  0.7907
 9268TIP3    H149295   3.759   1.400  11.979  0.1408 -0.1326 -0.2175
 9268TIP3    H249296   3.726   1.253  11.988  0.4909 -0.1433  1.1949
 9269TIP3   OH249297   2.514   2.066   1.658  0.4517 -0.2349  0.0149
 9269TIP3    H149298   2.508   2.065   1.754  0.3568 -0.5457  0.0067
 9269TIP3    H249299   2.542   2.155   1.637 -2.3707  0.7986  0.1747
 9270TIP3   OH249300   3.008   5.580  16.800  0.1875  0.4394  0.3848
 9270TIP3    H149301   2.998   5.486  16.815  0.8289  0.4418  0.9196
 9270TIP3    H249302   3.099   5.598  16.824  0.4468  0.9807 -0.9191
 9271TIP3   OH249303   2.439   5.178  16.822  0.4891 -0.1877 -0.0389
 9271TIP3    H149304   2.382   5.156  16.895  1.3234 -0.8100  0.4451
 9271TIP3    H249305   2.513   5.223  16.862 -0.4202  2.1896 -0.8456
 9272TIP3   OH249306   5.821   2.141   2.532 -0.5710  0.4328  0.1757
 9272TIP3    H149307   5.828   2.107   2.621 -2.1780 -1.0156 -0.1959
 9272TIP3    H249308   5.880   2.087   2.481  0.0525  1.0045  0.2795
 9273TIP3   OH249309   2.420   1.430  14.773 -0.3612  0.0683 -0.1352
 9273TIP3    H149310   2.488   1.397  14.714  0.7365 -0.4755  1.3368
 9273TIP3    H249311   2.374   1.351  14.802 -1.4635  0.4141 -0.9238
 9274TIP3   OH249312   1.720   2.150  14.336 -0.1297 -0.5634  0.0314
 9274TIP3    H149313   1.812   2.162  14.314 -0.0464  0.0561  0.6863
 9274TIP3    H249314   1.672   2.178  14.258  0.2406 -1.2136 -0.4357
 9275TIP3   OH249315   1.641   0.265   1.664  0.4431  0.6704 -0.8558
 9275TIP3    H149316   1.583   0.283   1.590 -1.8487  0.4296  0.7547
 9275TIP3    H249317   1.702   0.339   1.666 -0.5201  1.5281 -1.9993
 9276TIP3   OH249318   5.440   3.878   1.919 -0.1620  0.1472  0.5740
 9276TIP3    H149319   5.367   3.935   1.944 -0.9843 -1.1846  1.3557
 9276TIP3    H249320   5.478   3.850   2.002  1.1341  0.6656  0.1717
 9277TIP3   OH249321   3.458   1.502   0.947  0.1642  0.3249 -0.3332
 9277TIP3    H149322   3.527   1.523   1.009  2.2381  0.0283 -2.4065
 9277TIP3    H249323   3.489   1.423   0.902 -0.0422  1.7939 -3.3188
 9278TIP3   OH249324   4.495   6.032   2.083  0.1880 -0.6079  0.0727
 9278TIP3    H149325   4.404   6.006   2.086  0.4506 -1.5369  0.2231
 9278TIP3    H249326   4.505   6.094   2.155 -0.7441  0.9677 -1.0757
 9279TIP3   OH249327   5.685   5.952  11.205 -0.2788  0.2686  0.4115
 9279TIP3    H149328   5.721   6.003  11.133 -0.3663  1.3696  1.1317
 9279TIP3    H249329   5.687   5.862  11.173  4.1042  0.0413  0.7594
 9280TIP3   OH249330   6.081   5.947   5.076  0.5075  0.1998 -0.5481
 9280TIP3    H149331   6.025   5.983   5.144  1.0195  2.5731 -1.3096
 9280TIP3    H249332   6.023   5.933   5.001 -0.0118 -2.2101  0.2055
 9281TIP3   OH249333   0.590   1.261   5.377  0.6209 -0.8641  0.2509
 9281TIP3    H149334   0.624   1.230   5.461  1.8354  1.5225  0.6954
 9281TIP3    H249335   0.648   1.222   5.312  0.3771 -1.7881  0.5654
 9282TIP3   OH249336   2.258   4.798  15.763  0.2075  0.0569 -0.3043
 9282TIP3    H149337   2.297   4.752  15.837  1.1587  1.4301  0.0946
 9282TIP3    H249338   2.302   4.762  15.686  0.1609 -0.4477 -0.0953
 9283TIP3   OH249339   2.412   1.692  12.942  0.0101  0.3299 -0.1124
 9283TIP3    H149340   2.363   1.774  12.939  0.5495  0.6260 -1.2492
 9283TIP3    H249341   2.385   1.645  12.863 -0.4332 -0.6825  0.6210
 9284TIP3   OH249342   2.321   1.074  13.372  0.6907  0.1183  1.2016
 9284TIP3    H149343   2.344   1.051  13.282  2.0750 -0.4843  1.6850
 9284TIP3    H249344   2.231   1.043  13.383  1.2171 -1.6671  0.6594
 9285TIP3   OH249345   2.632   4.480  13.336  0.0146 -0.4844  0.0602
 9285TIP3    H149346   2.605   4.480  13.428 -1.5115 -1.1556 -0.3620
 9285TIP3    H249347   2.553   4.457  13.287  0.1466  2.1612 -1.6297
 9286TIP3   OH249348   4.745   4.682  13.388 -0.1351 -0.8594 -0.6457
 9286TIP3    H149349   4.771   4.702  13.478  1.0962 -2.7940 -0.4991
 9286TIP3    H249350   4.682   4.750  13.366  2.8584  2.4817  0.0544
 9287TIP3   OH249351   6.279   3.653  13.822  0.4651 -0.1021 -0.1276
 9287TIP3    H149352   6.200   3.649  13.769 -1.8555  0.1808  3.0221
 9287TIP3    H249353   6.320   3.567  13.812 -1.3500 -0.9868 -0.2680
 9288TIP3   OH249354   1.588   2.181   4.091  0.1892 -0.3044  0.4775
 9288TIP3    H149355   1.572   2.135   4.173  1.6911 -0.7942  0.5306
 9288TIP3    H249356   1.625   2.266   4.118  1.1030 -0.6404  0.3267
 9289TIP3   OH249357   0.719   2.007  15.859  0.9088 -0.2267 -0.8162
 9289TIP3    H149358   0.709   1.950  15.936  0.3045 -0.4861 -1.0851
 9289TIP3    H249359   0.679   2.090  15.886  2.6221  0.4123 -0.0848
 9290TIP3   OH249360   4.271   4.453  13.332 -0.0446  0.0846 -0.3833
 9290TIP3    H149361   4.296   4.543  13.353 -1.9367  0.6751 -0.4796
 9290TIP3    H249362   4.210   4.428  13.401  1.3453 -1.5951  0.3128
 9291TIP3   OH249363   1.908   3.956   0.462 -0.1487  0.0834 -0.4212
 9291TIP3    H149364   1.899   3.865   0.433  1.2966  0.2440 -1.4917
 9291TIP3    H249365   2.002   3.973   0.458 -0.3825  1.5709 -0.0761
 9292TIP3   OH249366   3.411   3.069   0.998  0.4258 -0.2242  0.7537
 9292TIP3    H149367   3.354   2.995   0.978 -1.0215  1.0722 -0.1692
 9292TIP3    H249368   3.419   3.068   1.094 -0.8967 -0.6284  0.8813
 9293TIP3   OH249369   6.676   0.948   5.966  0.0615  0.1606 -0.0932
 9293TIP3    H149370   6.599   0.954   5.910  0.6691 -1.7275 -1.1958
 9293TIP3    H249371   6.750   0.955   5.906  0.7273 -1.9575  0.4125
 9294TIP3   OH249372   5.192   2.562   2.805 -0.7451 -0.0988  0.9497
 9294TIP3    H149373   5.257   2.571   2.736 -2.6527 -1.5400 -1.2050
 9294TIP3    H249374   5.242   2.538   2.883  1.2638 -1.9774 -0.7774
 9295TIP3   OH249375   0.206   2.832   2.586  0.6235  0.1432  0.0094
 9295TIP3    H149376   0.286   2.819   2.638  1.1300 -0.2607 -0.8488
 9295TIP3    H249377   0.137   2.795   2.640  1.1596 -0.3997  0.3408
 9296TIP3   OH249378   1.692   4.148   1.668 -0.1778 -1.2310 -0.1152
 9296TIP3    H149379   1.762   4.083   1.661  1.2915  0.2358  0.5472
 9296TIP3    H249380   1.667   4.146   1.761 -1.4402 -2.1379 -0.4472
 9297TIP3   OH249381   3.117   1.923  10.857 -0.4840 -0.0733  0.2630
 9297TIP3    H149382   3.141   1.888  10.771 -1.5817  1.3774 -0.6946
 9297TIP3    H249383   3.181   1.993  10.872 -0.9635  0.4121  0.0851
 9298TIP3   OH249384   2.051   1.094   4.284 -0.0976 -0.0826  0.2146
 9298TIP3    H149385   1.990   1.031   4.323  1.3348 -1.2294  0.6728
 9298TIP3    H249386   2.115   1.041   4.238 -0.0786  1.1542 -1.2660
 9299TIP3   OH249387   0.677   1.221   2.673 -0.7581  0.0578  0.6669
 9299TIP3    H149388   0.739   1.148   2.676 -0.4475  0.3239  0.7271
 9299TIP3    H249389   0.594   1.181   2.647 -0.5541 -0.2946  0.5584
 9300TIP3   OH249390   0.406   1.460   5.420  0.2501  0.1434 -0.0788
 9300TIP3    H149391   0.411   1.535   5.361 -2.1928  2.8428  2.7733
 9300TIP3    H249392   0.471   1.399   5.387  0.4153  2.2484 -4.2815
 9301TIP3   OH249393   1.642   4.846   3.148  0.0767 -0.5541 -0.1639
 9301TIP3    H149394   1.706   4.819   3.082 -0.5303 -0.8035 -0.6609
 9301TIP3    H249395   1.648   4.942   3.151 -0.3813 -0.4880 -1.0949
 9302TIP3   OH249396   3.134   1.191  10.093  0.4942  0.0902 -0.0827
 9302TIP3    H149397   3.051   1.195  10.140  0.0540 -0.1546 -0.8173
 9302TIP3    H249398   3.192   1.250  10.142  0.1699 -0.4426  0.9658
 9303TIP3   OH249399   1.841   0.353  13.601  0.4889 -0.0103  0.3413
 9303TIP3    H149400   1.905   0.283  13.616  0.7314 -0.2423 -1.5005
 9303TIP3    H249401   1.875   0.400  13.525 -0.1758  1.5322  0.9617
 9304TIP3   OH249402   5.353   4.864  16.396  0.0045  0.0776 -0.1395
 9304TIP3    H149403   5.423   4.866  16.331 -0.7794  0.4539 -1.0035
 9304TIP3    H249404   5.297   4.939  16.373 -0.5945 -0.1223  0.6241
 9305TIP3   OH249405   1.793   0.168  11.496  0.1748  0.0957  0.2081
 9305TIP3    H149406   1.806   0.143  11.588  1.8161 -1.1039 -0.2862
 9305TIP3    H249407   1.706   0.207  11.493  0.4701  1.0505  2.4443
 9306TIP3   OH249408   3.864   6.049  13.082  0.0035 -0.4738  0.4959
 9306TIP3    H149409   3.940   6.098  13.052 -0.9808  0.8734  0.0971
 9306TIP3    H249410   3.896   5.995  13.154  1.5731 -0.8458 -0.4538
 9307TIP3   OH249411   2.364   3.209   3.468  0.1794  0.2422 -0.0365
 9307TIP3    H149412   2.364   3.128   3.518  0.0489  0.8424  0.9616
 9307TIP3    H249413   2.331   3.184   3.382 -1.2326 -0.5120  0.6868
 9308TIP3   OH249414   5.279   6.044   2.909 -0.2970  0.1018  0.0075
 9308TIP3    H149415   5.293   5.975   2.843 -0.0349 -0.8909  1.0615
 9308TIP3    H249416   5.222   6.107   2.866 -2.2176 -1.7497 -0.3765
 9309TIP3   OH249417   6.655   2.324  16.677  0.3078  0.3843  0.5997
 9309TIP3    H149418   6.631   2.248  16.624 -1.2905  0.4461  1.1693
 9309TIP3    H249419   6.671   2.394  16.613 -1.0507  0.3108  0.1504
 9310TIP3   OH249420   2.999   2.970  12.464 -0.3703 -0.2584  0.1831
 9310TIP3    H149421   3.080   2.980  12.412 -1.1098  1.9442 -0.6885
 9310TIP3    H249422   2.929   2.972  12.399 -1.2191  0.2141  1.0837
 9311TIP3   OH249423   4.774   2.700   3.915  0.3151 -0.5487  0.6430
 9311TIP3    H149424   4.754   2.687   4.008  1.5234  0.2075  1.0310
 9311TIP3    H249425   4.690   2.721   3.875 -0.3112 -1.4432  1.4588
 9312TIP3   OH249426   2.563   0.992  14.441 -0.3724  0.6904 -0.4821
 9312TIP3    H149427   2.619   0.985  14.364 -0.5302  0.0073 -0.5458
 9312TIP3    H249428   2.603   1.061  14.494  0.5333  0.2224 -0.5270
 9313TIP3   OH249429   3.332   5.022  11.560 -0.5905 -0.0317 -0.2658
 9313TIP3    H149430   3.418   5.006  11.599 -0.1034 -0.7121 -1.5863
 9313TIP3    H249431   3.325   5.117  11.558  0.5985  0.0655 -1.0940
 9314TIP3   OH249432   5.686   1.260   5.395 -0.9271  0.4516 -0.2111
 9314TIP3    H149433   5.700   1.200   5.321 -0.3805 -0.4854  0.6267
 9314TIP3    H249434   5.696   1.347   5.356 -1.4553  0.0094 -1.3991
 9315TIP3   OH249435   3.494   3.874   1.680 -0.3879  0.3067 -0.0598
 9315TIP3    H149436   3.562   3.941   1.676  0.1288 -0.2539 -1.1385
 9315TIP3    H249437   3.443   3.896   1.758  1.0395  0.7128  0.8015
 9316TIP3   OH249438   3.685   1.546   5.779  0.3038  0.1813  0.1765
 9316TIP3    H149439   3.633   1.535   5.859 -0.8916  0.4855 -0.5434
 9316TIP3    H249440   3.747   1.473   5.781  0.4266  0.2974  1.4793
 9317TIP3   OH249441   5.879   4.394   2.447 -0.1528 -0.1916  0.6606
 9317TIP3    H149442   5.901   4.415   2.537  1.3601  0.1253  0.2430
 9317TIP3    H249443   5.930   4.316   2.426 -2.5333 -1.9304  0.8687
 9318TIP3   OH249444   3.082   5.197  17.045  0.3770  0.0179  0.4144
 9318TIP3    H149445   3.035   5.239  17.117  0.2984 -1.4163  1.2376
 9318TIP3    H249446   3.136   5.130  17.088 -0.4210 -1.5444 -0.9214
 9319TIP3   OH249447   5.104   4.081  15.771 -0.3501 -0.0709  0.2111
 9319TIP3    H149448   5.035   4.148  15.766 -0.4829 -0.1174  1.3435
 9319TIP3    H249449   5.079   4.017  15.704 -1.7900 -0.4223  1.0446
 9320TIP3   OH249450   4.273   4.006  12.131 -0.1529  0.3902  0.3469
 9320TIP3    H149451   4.327   4.085  12.131 -1.5320  1.3875  2.1207
 9320TIP3    H249452   4.337   3.934  12.127  1.3330  1.5267  2.0214
 9321TIP3   OH249453   5.990   1.408   4.524 -0.1998 -0.1772  0.2891
 9321TIP3    H149454   5.922   1.465   4.487  1.3549  1.5421 -0.0721
 9321TIP3    H249455   5.948   1.367   4.599 -2.1536 -0.5090 -0.9012
 9322TIP3   OH249456   3.234   1.122   4.828  0.1371  0.0928  0.1301
 9322TIP3    H149457   3.321   1.105   4.790  0.0725 -1.5705  0.6364
 9322TIP3    H249458   3.188   1.171   4.761  1.5113  1.1532 -0.0926
 9323TIP3   OH249459   4.750   2.373  15.544  0.2056 -0.3972 -0.0585
 9323TIP3    H149460   4.817   2.439  15.563 -1.8205  1.3836  1.4251
 9323TIP3    H249461   4.683   2.421  15.495 -1.6458 -1.1193  1.6511
 9324TIP3   OH249462   5.741   6.081  15.644  0.3711  0.1368 -0.3598
 9324TIP3    H149463   5.717   6.061  15.735  0.0242  0.8342 -0.2963
 9324TIP3    H249464   5.818   6.138  15.652  3.7749 -3.9090 -0.5590
 9325TIP3   OH249465   2.969   0.138  12.185 -0.1867  0.2444  0.4295
 9325TIP3    H149466   2.895   0.189  12.219  0.4327  1.2358  0.3210
 9325TIP3    H249467   2.936   0.101  12.103  0.0135  2.2571 -0.6187
 9326TIP3   OH249468   4.009   0.025   1.410  0.0468  1.2526  0.2636
 9326TIP3    H149469   3.923  -0.014   1.398  0.0420  1.0110  1.0030
 9326TIP3    H249470   4.050   0.021   1.324 -1.0181  2.2124 -0.3086
 9327TIP3   OH249471   5.989   1.532  14.539 -0.1333  0.0932 -0.2152
 9327TIP3    H149472   6.044   1.606  14.512 -0.3930  0.4481  0.2107
 9327TIP3    H249473   5.949   1.501  14.458 -0.8989  1.1424 -0.2564
 9328TIP3   OH249474   1.961   0.139  12.334  0.0625  0.0358  0.0650
 9328TIP3    H149475   1.988   0.079  12.264 -0.4262 -0.8680  0.6301
 9328TIP3    H249476   1.996   0.224  12.307 -0.8625 -0.0866 -1.7363
 9329TIP3   OH249477   4.485   3.514   5.150 -0.1726  0.4853 -0.2789
 9329TIP3    H149478   4.421   3.443   5.142 -0.8793  1.2419 -1.9945
 9329TIP3    H249479   4.494   3.528   5.244 -0.1220 -1.7491  0.1070
 9330TIP3   OH249480   3.485   3.282  12.604  0.8001 -0.0558 -0.4524
 9330TIP3    H149481   3.486   3.191  12.632 -1.2491  0.7182  2.6227
 9330TIP3    H249482   3.537   3.328  12.669 -2.3387  1.5590  1.1507
 9331TIP3   OH249483   6.255   6.386   5.008  0.0439  0.3755 -0.0945
 9331TIP3    H149484   6.314   6.461   5.014 -0.0031  0.4599 -0.6769
 9331TIP3    H249485   6.302   6.316   5.053  1.2734  0.0225 -1.8020
 9332TIP3   OH249486   0.778   5.961   1.458 -0.2640  0.1115 -0.1280
 9332TIP3    H149487   0.745   5.875   1.434  1.0557 -0.7514  1.0729
 9332TIP3    H249488   0.699   6.015   1.468 -1.2604 -1.5475  1.4055
 9333TIP3   OH249489   4.485   0.777   0.121  0.2797  0.4471 -0.0598
 9333TIP3    H149490   4.476   0.860   0.073  0.4983  1.5721  1.7104
 9333TIP3    H249491   4.477   0.803   0.213  2.4876 -1.1778  0.6775
 9334TIP3   OH249492   2.163   6.122   5.816  0.2141 -0.2102  0.1235
 9334TIP3    H149493   2.214   6.202   5.833  1.5414 -1.3547  1.7709
 9334TIP3    H249494   2.118   6.104   5.898 -0.4267 -0.9279 -0.3773
 9335TIP3   OH249495   0.781   4.762  17.108 -0.0588 -0.3087  0.1935
 9335TIP3    H149496   0.689   4.749  17.130 -0.0952  0.7134  0.7057
 9335TIP3    H249497   0.784   4.849  17.068  0.5668 -0.6718 -0.5851
 9336TIP3   OH249498   5.414   4.798   2.823 -0.3086  0.3971  0.1493
 9336TIP3    H149499   5.401   4.773   2.914 -0.7914  0.9567  0.2437
 9336TIP3    H249500   5.371   4.729   2.772  2.2781 -1.3780  0.2246
 9337TIP3   OH249501   2.457   6.365  13.460  0.5671 -0.3828 -0.2879
 9337TIP3    H149502   2.406   6.379  13.540  1.4257 -0.0991  0.2352
 9337TIP3    H249503   2.415   6.292  13.416 -0.4386  0.0177 -0.0065
 9338TIP3   OH249504   5.256   3.110   6.648  0.5374 -0.5371 -0.0261
 9338TIP3    H149505   5.310   3.091   6.572  0.5458 -0.9880  0.0907
 9338TIP3    H249506   5.181   3.158   6.613  0.5469 -0.7334 -0.3166
 9339TIP3   OH249507   2.355   4.899   5.232 -0.0773 -1.0232  0.1815
 9339TIP3    H149508   2.320   4.863   5.314  0.3131 -0.0375  0.7967
 9339TIP3    H249509   2.327   4.991   5.233  1.9069 -0.3718  0.3685
 9340TIP3   OH249510   0.488   1.865  10.357  0.1386  0.8969 -0.5001
 9340TIP3    H149511   0.529   1.947  10.383  0.6151  0.7691 -0.8328
 9340TIP3    H249512   0.431   1.890  10.283  1.5669  0.6722 -1.7264
 9341TIP3   OH249513   0.535   2.564   1.435  0.1020  0.2256 -0.3133
 9341TIP3    H149514   0.569   2.533   1.519 -1.0183  0.8961  0.4111
 9341TIP3    H249515   0.445   2.592   1.454  0.3985  2.0346 -1.3508
 9342TIP3   OH249516   6.704   1.879   0.883  0.4450  0.2644  0.5219
 9342TIP3    H149517   6.610   1.882   0.866 -0.3923 -1.8754  3.8006
 9342TIP3    H249518   6.712   1.879   0.978  4.0124  3.0316  0.4387
 9343TIP3   OH249519   0.849   4.540  11.333 -0.8348 -0.1050  0.2535
 9343TIP3    H149520   0.756   4.561  11.340 -0.3960  2.5310 -0.7176
 9343TIP3    H249521   0.859   4.505  11.244 -0.7243  0.7094 -0.0569
 9344TIP3   OH249522   2.739   0.700  11.207 -0.1706  0.3556 -0.3905
 9344TIP3    H149523   2.790   0.758  11.264 -2.6621  1.0025  1.3856
 9344TIP3    H249524   2.775   0.613  11.222  1.9336  1.0580 -1.0802
 9345TIP3   OH249525   6.607   0.189   2.196  0.4246  0.0548  0.0531
 9345TIP3    H149526   6.590   0.144   2.113  0.2575 -1.2023  0.7356
 9345TIP3    H249527   6.702   0.196   2.201  0.3993  2.1482 -1.2401
 9346TIP3   OH249528   0.277   0.727   1.766 -0.5746 -0.0387  0.0219
 9346TIP3    H149529   0.298   0.699   1.677 -2.2264  0.8055 -0.6720
 9346TIP3    H249530   0.356   0.771   1.796  0.1116 -0.5876 -0.9146
 9347TIP3   OH249531   3.211   2.337  14.658  0.8000  0.3088  0.0012
 9347TIP3    H149532   3.254   2.380  14.732  0.1477 -0.3207  0.7605
 9347TIP3    H249533   3.245   2.248  14.659  0.2464  0.0985 -0.0286
 9348TIP3   OH249534   5.702   1.857  13.867 -0.2831  0.0717 -0.1785
 9348TIP3    H149535   5.620   1.837  13.822 -1.9924 -0.4017  2.8626
 9348TIP3    H249536   5.677   1.920  13.934  1.4915 -1.2383  1.8226
 9349TIP3   OH249537   0.922   4.291   4.950 -0.6611 -0.0325 -0.2787
 9349TIP3    H149538   0.848   4.350   4.935 -1.2511 -0.0346  2.2319
 9349TIP3    H249539   0.900   4.212   4.901 -1.6476  0.4604 -0.6611
 9350TIP3   OH249540   5.654   5.353  14.380  0.1132  0.0007  0.9027
 9350TIP3    H149541   5.628   5.383  14.468 -0.7900 -1.6121  1.2249
 9350TIP3    H249542   5.574   5.359  14.329  0.6927  1.1572  0.0858
 9351TIP3   OH249543   2.643   6.761   3.441  0.0622  0.0217  0.0275
 9351TIP3    H149544   2.552   6.733   3.451  0.3466 -0.7576  0.4921
 9351TIP3    H249545   2.657   6.823   3.513 -0.2223  0.4823 -0.3064
 9352TIP3   OH249546   3.837   0.676   4.944  0.0463 -0.1374 -0.9389
 9352TIP3    H149547   3.748   0.645   4.927  0.2101 -0.7711 -0.6874
 9352TIP3    H249548   3.837   0.699   5.037  0.6903 -2.1627 -0.3709
 9353TIP3   OH249549   2.169   6.103   3.437  0.2003 -0.5220  0.3696
 9353TIP3    H149550   2.237   6.063   3.382  1.4000 -0.1916  1.5516
 9353TIP3    H249551   2.171   6.196   3.414  1.0368 -0.2967  1.2363
 9354TIP3   OH249552   6.042   0.326  13.553  0.9066 -0.2529  0.3602
 9354TIP3    H149553   5.958   0.342  13.595 -0.3316 -1.9234 -1.3051
 9354TIP3    H249554   6.069   0.240  13.585  1.6591 -0.0179  0.3808
 9355TIP3   OH249555   4.221   0.428   1.807 -0.3043  0.1956  0.8266
 9355TIP3    H149556   4.156   0.418   1.877  0.4698 -0.3715  1.4873
 9355TIP3    H249557   4.256   0.340   1.795 -1.1977  0.0562 -1.0760
 9356TIP3   OH249558   5.383   0.808   4.766 -0.2827  0.2455  0.3689
 9356TIP3    H149559   5.379   0.903   4.758 -0.6044  0.4897  2.8082
 9356TIP3    H249560   5.406   0.778   4.678 -0.0260  2.5618 -0.4259
 9357TIP3   OH249561   3.821   2.658   4.233 -0.4229 -0.4596  0.6433
 9357TIP3    H149562   3.885   2.595   4.201 -1.4491 -1.7331  1.0132
 9357TIP3    H249563   3.847   2.674   4.324  2.2104  2.8003 -0.4822
 9358TIP3   OH249564   5.927   4.688   2.927  0.1400  0.2978 -0.4369
 9358TIP3    H149565   5.966   4.756   2.872  0.9135  0.5839  0.4311
 9358TIP3    H249566   5.994   4.669   2.993 -0.6080 -0.3129  0.1739
 9359TIP3   OH249567   6.131   2.206   4.622  0.1760  0.3933  0.2408
 9359TIP3    H149568   6.064   2.264   4.587 -0.2732  0.1695  0.7096
 9359TIP3    H249569   6.110   2.120   4.585 -0.7025  0.0149  1.5317
 9360TIP3   OH249570   2.327   6.606  12.411 -0.1511  0.3374  0.3242
 9360TIP3    H149571   2.277   6.530  12.440  0.5261 -0.7029 -1.1057
 9360TIP3    H249572   2.346   6.589  12.319  1.9934  1.1230  0.5505
 9361TIP3   OH249573   4.703   2.414   4.063 -0.0132 -0.3327  0.2058
 9361TIP3    H149574   4.612   2.433   4.088  0.6164  1.9570  0.9658
 9361TIP3    H249575   4.697   2.382   3.972 -1.4311  1.8874 -0.5577
 9362TIP3   OH249576   2.649   5.416   1.670  0.0853 -0.7375  0.2121
 9362TIP3    H149577   2.633   5.332   1.626  0.9862 -0.6388 -0.3416
 9362TIP3    H249578   2.701   5.466   1.607  0.3018 -0.0926  0.8885
 9363TIP3   OH249579   1.406   0.581   5.766 -0.0046 -0.5390 -0.4412
 9363TIP3    H149580   1.496   0.556   5.786 -0.1806 -0.7128  0.1513
 9363TIP3    H249581   1.373   0.509   5.712 -0.0214 -0.8451 -0.0307
 9364TIP3   OH249582   1.065   2.006   5.165  0.0489 -0.0966  0.8640
 9364TIP3    H149583   1.070   2.063   5.242  0.9889  0.9436  0.0783
 9364TIP3    H249584   1.022   1.927   5.196  0.6890  0.1733  2.5333
 9365TIP3   OH249585   6.535   2.369   0.634 -0.1083 -0.1268  0.2836
 9365TIP3    H149586   6.586   2.300   0.591 -2.8073 -1.5630 -0.8939
 9365TIP3    H249587   6.512   2.333   0.719 -3.0760 -1.7080 -1.0105
 9366TIP3   OH249588   6.354   0.892   0.280  0.7915 -0.4409  0.4406
 9366TIP3    H149589   6.428   0.876   0.222  0.3431 -2.4931  0.3522
 9366TIP3    H249590   6.383   0.860   0.365  0.8759  1.0935  1.0215
 9367TIP3   OH249591   0.810   1.306  16.724 -0.1721 -0.3774 -0.6843
 9367TIP3    H149592   0.788   1.242  16.793  1.0284 -0.5716 -0.4723
 9367TIP3    H249593   0.902   1.326  16.738 -0.4337  1.1230 -1.0014
 9368TIP3   OH249594   0.236   3.084  12.322 -0.3088  0.4769  0.1487
 9368TIP3    H149595   0.168   3.130  12.371 -0.0434 -0.1910  1.1724
 9368TIP3    H249596   0.315   3.093  12.375 -0.3141 -1.3927  0.5581
 9369TIP3   OH249597   3.299   2.705   5.984  0.4897 -0.1638  0.1447
 9369TIP3    H149598   3.387   2.675   6.007 -0.1661 -0.6575  2.2471
 9369TIP3    H249599   3.284   2.780   6.042  0.1965  1.1235 -1.5282
 9370TIP3   OH249600   4.745   2.229  11.122 -0.3700 -0.3041  0.0752
 9370TIP3    H149601   4.806   2.218  11.048 -0.9401  0.5135 -0.5290
 9370TIP3    H249602   4.668   2.270  11.084 -0.3227  0.9697  1.2936
 9371TIP3   OH249603   3.314   1.804  15.732 -0.2187  0.7463 -0.1652
 9371TIP3    H149604   3.223   1.776  15.723 -0.6348  2.5604 -2.8545
 9371TIP3    H249605   3.308   1.893  15.769  0.4412  0.9555 -0.5390
 9372TIP3   OH249606   3.922   0.012  16.612  0.4199 -0.2479 -0.3032
 9372TIP3    H149607   3.991   0.061  16.567  0.7989 -1.5639 -1.2186
 9372TIP3    H249608   3.914  -0.069  16.562 -0.0797 -1.1977  1.2458
 9373TIP3   OH249609   2.427   6.514  13.045 -0.1410 -0.2723  0.4299
 9373TIP3    H149610   2.449   6.554  13.129  1.3187  0.7945 -0.4106
 9373TIP3    H249611   2.488   6.442  13.036 -1.7791 -1.8457  1.2523
 9374TIP3   OH249612   1.061   2.334   1.038 -0.2192  0.0111  0.4167
 9374TIP3    H149613   1.057   2.430   1.036  0.1245  0.0176 -1.4119
 9374TIP3    H249614   0.998   2.309   1.106 -0.9313  1.4993  0.3444
 9375TIP3   OH249615   5.410   4.291   5.198  0.2234 -0.3508  0.4990
 9375TIP3    H149616   5.375   4.380   5.204  1.6799  0.6496 -2.8536
 9375TIP3    H249617   5.342   4.241   5.153  1.3486  0.6643 -2.6798
 9376TIP3   OH249618   5.100   0.823  11.378  0.1220  0.7092 -0.1013
 9376TIP3    H149619   5.050   0.886  11.429 -0.0321  0.4802  0.0344
 9376TIP3    H249620   5.161   0.876  11.327  0.6267  0.9069  0.6942
 9377TIP3   OH249621   5.837   6.405  15.380 -0.0921  0.5766 -0.6787
 9377TIP3    H149622   5.766   6.468  15.380 -2.1758 -1.6173 -0.8697
 9377TIP3    H249623   5.813   6.342  15.312  0.0159 -2.2970  1.7482
 9378TIP3   OH249624   0.572   1.962  14.246 -0.4790  0.0439 -0.5416
 9378TIP3    H149625   0.516   1.967  14.323 -0.8141  0.9075 -0.8311
 9378TIP3    H249626   0.583   1.868  14.230 -1.1196 -0.1338  0.0290
 9379TIP3   OH249627   6.452   0.354   0.977  0.2078 -0.1953 -0.2819
 9379TIP3    H149628   6.454   0.289   1.048 -2.7611 -0.2562 -0.1338
 9379TIP3    H249629   6.540   0.350   0.939  0.9350 -2.4059  1.3792
 9380TIP3   OH249630   0.704   5.154   1.047  0.0488  0.3686 -0.1928
 9380TIP3    H149631   0.770   5.123   1.110 -0.1217 -0.1208 -0.2464
 9380TIP3    H249632   0.686   5.244   1.074 -1.9752 -0.6273  2.1582
 9381TIP3   OH249633   5.205   2.876   2.860 -0.1717  0.3318  0.9567
 9381TIP3    H149634   5.274   2.938   2.885 -0.9095  1.8813 -0.6391
 9381TIP3    H249635   5.200   2.815   2.934  2.5870  0.3991  1.3279
 9382TIP3   OH249636   4.480   1.486   5.869 -0.7335  0.5572  0.2090
 9382TIP3    H149637   4.456   1.436   5.791  0.7430 -2.1963  1.3851
 9382TIP3    H249638   4.553   1.541   5.840 -0.5694 -0.0129 -0.4960
 9383TIP3   OH249639   1.762   2.486  14.423  0.0031 -0.1812 -0.1981
 9383TIP3    H149640   1.803   2.427  14.360 -1.4794 -3.6637  1.7789
 9383TIP3    H249641   1.675   2.503  14.388  0.3446  0.6650 -0.6501
 9384TIP3   OH249642   6.649   6.108   5.417  0.6192  0.1759  0.4097
 9384TIP3    H149643   6.684   6.025   5.383  1.4036 -0.1556  1.9460
 9384TIP3    H249644   6.554   6.093   5.422  0.7328 -0.5666  0.5145
 9385TIP3   OH249645   4.573   3.024  14.214 -0.0077 -0.1002  0.6111
 9385TIP3    H149646   4.631   3.070  14.275  0.2726  0.0925  0.2050
 9385TIP3    H249647   4.581   2.932  14.239 -0.4016  0.0439  1.2828
 9386TIP3   OH249648   6.023   2.964   3.502  0.3427  0.3419  0.0925
 9386TIP3    H149649   6.068   3.046   3.484  0.9565 -0.3423 -1.7283
 9386TIP3    H249650   6.003   2.929   3.415  0.9140 -1.8730  0.8073
 9387TIP3   OH249651   5.764   2.630  10.905  0.4137 -0.3376  0.0549
 9387TIP3    H149652   5.760   2.543  10.864  0.0058  0.3785 -1.4935
 9387TIP3    H249653   5.700   2.682  10.858  1.8410  1.2721 -0.2242
 9388TIP3   OH249654   5.336   0.883  10.588 -0.9906  0.0943 -0.2765
 9388TIP3    H149655   5.282   0.934  10.528 -0.0766  0.5062 -0.7714
 9388TIP3    H249656   5.288   0.885  10.672 -0.8135  2.0490 -0.1906
 9389TIP3   OH249657   6.589   5.485   4.226  0.4298 -0.2797  0.2749
 9389TIP3    H149658   6.525   5.550   4.198  1.4111  0.4427 -0.3494
 9389TIP3    H249659   6.661   5.494   4.164  1.6276 -0.3090  1.6152
 9390TIP3   OH249660   0.306   0.835   0.102  0.0852 -0.0353 -0.4633
 9390TIP3    H149661   0.374   0.782   0.060  1.8217 -0.8239  3.0254
 9390TIP3    H249662   0.245   0.771   0.139  0.4190  0.4867  1.0266
 9391TIP3   OH249663   2.866   1.552  15.846 -0.1985 -0.3484  0.2417
 9391TIP3    H149664   2.801   1.529  15.912  0.2328 -1.5164  0.2827
 9391TIP3    H249665   2.863   1.480  15.783 -0.0815  0.3831 -0.6336
 9392TIP3   OH249666   1.354   3.389   0.257 -0.7407 -0.3670  0.3029
 9392TIP3    H149667   1.334   3.482   0.271 -0.2706 -0.1807 -0.2417
 9392TIP3    H249668   1.318   3.369   0.171 -1.3871 -0.8559  0.6833
 9393TIP3   OH249669   2.728   2.120  13.464 -0.5057  0.3050  0.1950
 9393TIP3    H149670   2.649   2.131  13.411 -2.3325  2.1200  3.0377
 9393TIP3    H249671   2.799   2.153  13.408 -1.8675 -0.3173 -2.0331
 9394TIP3   OH249672   4.010   5.252   4.349  0.3937 -0.5306  0.6672
 9394TIP3    H149673   3.934   5.287   4.303 -0.4884  1.8008  3.5727
 9394TIP3    H249674   3.973   5.199   4.420  1.5616 -0.9856  0.9577
 9395TIP3   OH249675   5.157   5.460  13.120 -0.3029 -0.0986  0.2934
 9395TIP3    H149676   5.116   5.496  13.041  0.2015  2.2193  0.9913
 9395TIP3    H249677   5.218   5.528  13.147  0.7293 -1.5652  1.7748
 9396TIP3   OH249678   0.826   4.703   4.839  0.1581  0.0283  0.0434
 9396TIP3    H149679   0.769   4.719   4.914 -1.3068  1.1345 -1.2182
 9396TIP3    H249680   0.770   4.718   4.763  1.8691  0.0787 -1.2819
 9397TIP3   OH249681   6.205   2.084  15.790  0.2521 -0.0917  0.3935
 9397TIP3    H149682   6.274   2.148  15.809 -0.7959  1.7304 -1.4525
 9397TIP3    H249683   6.124   2.134  15.797 -0.5462 -0.8268 -2.2697
 9398TIP3   OH249684   2.768   4.644  14.218 -0.4802  0.2720  0.3104
 9398TIP3    H149685   2.759   4.561  14.263  0.5706  0.4737  0.9241
 9398TIP3    H249686   2.861   4.652  14.200 -0.8145  0.3976 -1.5479
 9399TIP3   OH249687   1.384   4.846   5.059  0.6310  0.0348 -0.1118
 9399TIP3    H149688   1.306   4.828   5.007 -0.0401  1.8051  0.2221
 9399TIP3    H249689   1.379   4.785   5.132 -0.9565  0.7571  0.4095
 9400TIP3   OH249690   5.890   3.709  12.184  0.8471  0.7686 -0.2162
 9400TIP3    H149691   5.937   3.740  12.106  3.3880  0.0572  0.9298
 9400TIP3    H249692   5.933   3.627  12.206 -1.8209 -0.5945  0.2513
 9401TIP3   OH249693   0.421   4.429   4.032  0.2579  0.5296  0.1020
 9401TIP3    H149694   0.395   4.510   3.989  0.7544  0.7474  0.2052
 9401TIP3    H249695   0.376   4.360   3.983  1.8159  0.6648 -1.6175
 9402TIP3   OH249696   2.668   5.286   4.059 -0.0184 -0.0937  0.2625
 9402TIP3    H149697   2.625   5.348   4.118 -1.8157  0.1130 -1.1816
 9402TIP3    H249698   2.632   5.201   4.083 -0.4978 -0.0533 -0.2987
 9403TIP3   OH249699   2.093   6.180  14.514 -0.5121  0.4463  0.0598
 9403TIP3    H149700   2.149   6.207  14.587 -1.4193  2.0324  0.1973
 9403TIP3    H249701   2.132   6.098  14.484  0.1607 -0.0062  2.0115
 9404TIP3   OH249702   4.574   6.186   2.659 -0.8812 -0.2033  0.4228
 9404TIP3    H149703   4.495   6.155   2.616 -1.0156 -0.9072  1.1563
 9404TIP3    H249704   4.625   6.228   2.589 -1.6327 -0.2499 -0.1639
 9405TIP3   OH249705   2.776   5.376  14.055  0.1438 -0.3472  0.2424
 9405TIP3    H149706   2.768   5.333  14.140 -0.2791 -0.0364  0.3651
 9405TIP3    H249707   2.776   5.305  13.991 -0.4307 -0.5385  0.4483
 9406TIP3   OH249708   5.948   4.680   2.384 -0.1252 -0.6202 -0.3609
 9406TIP3    H149709   5.921   4.651   2.297 -0.1882 -2.8593  0.3483
 9406TIP3    H249710   5.943   4.602   2.438  0.5531  0.5729  1.5291
 9407TIP3   OH249711   5.395   1.082  14.477 -0.4969 -0.8606  0.3711
 9407TIP3    H149712   5.329   1.151  14.488  1.1381  0.5972  1.5355
 9407TIP3    H249713   5.353   1.018  14.419 -1.9179  1.3262 -1.1504
 9408TIP3   OH249714   1.657   3.191   1.502 -0.0887 -0.4270 -0.4198
 9408TIP3    H149715   1.691   3.102   1.511 -2.0984 -1.2004  0.1185
 9408TIP3    H249716   1.628   3.215   1.590 -0.1261  0.5238 -0.6822
 9409TIP3   OH249717   3.761   5.101   5.374  0.9629  0.1167 -0.0375
 9409TIP3    H149718   3.760   5.123   5.281  1.2050 -0.2748 -0.1384
 9409TIP3    H249719   3.850   5.070   5.390  0.4655 -1.3920 -0.0617
 9410TIP3   OH249720   0.902   2.092   1.495 -0.3475  0.0774 -0.0548
 9410TIP3    H149721   0.882   2.055   1.581 -0.7831 -0.3663 -0.3400
 9410TIP3    H249722   0.995   2.113   1.498  0.3232 -2.5386 -0.4227
 9411TIP3   OH249723   0.059   5.984   3.766  0.1195 -0.1661 -0.1393
 9411TIP3    H149724   0.112   6.057   3.798  1.7569 -0.6013 -1.7129
 9411TIP3    H249725  -0.026   5.995   3.810  0.1827  2.8313 -0.5686
 9412TIP3   OH249726   1.659   6.203  11.230  0.2765  0.2815 -0.1696
 9412TIP3    H149727   1.659   6.288  11.187  0.8413 -0.0037 -0.7484
 9412TIP3    H249728   1.578   6.161  11.201 -0.9723  1.3187  1.5858
 9413TIP3   OH249729   6.727   5.069  13.349 -0.0893  0.5573 -0.4023
 9413TIP3    H149730   6.804   5.104  13.305  0.8310  1.5128  1.7927
 9413TIP3    H249731   6.753   4.983  13.381  0.0091  0.8010  0.1802
 9414TIP3   OH249732   6.789   0.066   1.420 -0.2749 -0.2591 -0.5304
 9414TIP3    H149733   6.817   0.034   1.334 -3.0919 -1.2702 -1.1992
 9414TIP3    H249734   6.870   0.077   1.469  1.6585  2.2271 -3.8544
 9415TIP3   OH249735   3.864   0.438  16.681 -0.0419  0.5672  0.0587
 9415TIP3    H149736   3.861   0.396  16.767 -0.2154  2.3389  0.9686
 9415TIP3    H249737   3.792   0.502  16.684 -0.7363 -0.0737 -1.8170
 9416TIP3   OH249738   1.133   4.743  13.274  0.3143 -0.1835 -0.1330
 9416TIP3    H149739   1.196   4.670  13.280  0.0949 -0.5435 -1.8534
 9416TIP3    H249740   1.183   4.819  13.304  0.7820 -0.8868  0.9588
 9417TIP3   OH249741   6.828   5.049  16.124 -0.6710 -0.1300  0.2931
 9417TIP3    H149742   6.789   5.003  16.051 -0.9928  0.3422  0.1620
 9417TIP3    H249743   6.819   4.989  16.198 -1.3060 -0.1751  0.1801
 9418TIP3   OH249744   6.358   2.244  15.942 -0.0196  0.0370 -0.0948
 9418TIP3    H149745   6.296   2.293  15.997  0.1436  1.7761 -1.3740
 9418TIP3    H249746   6.444   2.270  15.974  0.0715  0.8494 -0.9567
 9419TIP3   OH249747   2.661   2.635  11.108  0.3258 -0.2215  0.0716
 9419TIP3    H149748   2.617   2.573  11.050 -1.5889  1.1283 -0.0068
 9419TIP3    H249749   2.599   2.649  11.180  1.5763  0.1039  1.1249
 9420TIP3   OH249750   4.762   5.665   2.470 -0.1620 -0.2184 -0.0998
 9420TIP3    H149751   4.765   5.638   2.378 -0.1902 -0.3979 -0.0480
 9420TIP3    H249752   4.669   5.663   2.493 -0.3354  1.4430 -0.5442
 9421TIP3   OH249753   4.899   5.834   3.425  0.6349 -0.6961 -0.4276
 9421TIP3    H149754   4.819   5.800   3.385  0.4525 -0.2379 -0.4599
 9421TIP3    H249755   4.929   5.901   3.364  0.6678 -0.3881 -0.0725
 9422TIP3   OH249756   0.079   5.889   0.961  0.6651  0.6217  1.0888
 9422TIP3    H149757   0.003   5.916   1.013  1.5345  0.9176  2.2359
 9422TIP3    H249758   0.052   5.806   0.922 -0.9915  1.6849 -0.1812
 9423TIP3   OH249759   5.259   0.926   4.076  0.2317  0.1414  0.4936
 9423TIP3    H149760   5.242   0.899   4.167 -1.7779  1.2023  0.4865
 9423TIP3    H249761   5.234   0.849   4.024 -0.2377  0.1123  0.7540
 9424TIP3   OH249762   3.563   5.945  13.973 -0.2203  0.2194 -0.0286
 9424TIP3    H149763   3.523   6.024  13.937  0.7000  0.9275  0.4804
 9424TIP3    H249764   3.603   5.973  14.055  2.0707 -0.2592 -0.9204
 9425TIP3   OH249765   5.109   2.707  13.127  0.1251  0.9507  0.3647
 9425TIP3    H149766   5.104   2.786  13.181  2.4806  2.3890 -1.3373
 9425TIP3    H249767   5.165   2.648  13.176  0.7495  1.5186  0.3517
 9426TIP3   OH249768   2.767   0.357  11.823  0.3397 -0.6424  0.2956
 9426TIP3    H149769   2.808   0.414  11.757  1.8755 -0.6750  1.1733
 9426TIP3    H249770   2.700   0.309  11.774 -0.4464  1.2874 -0.6522
 9427TIP3   OH249771   5.873   6.791   2.241  0.2921 -0.6160  0.7927
 9427TIP3    H149772   5.809   6.794   2.312  0.7348 -1.6342  1.2462
 9427TIP3    H249773   5.880   6.699   2.218 -0.6136 -0.2080 -1.3172
 9428TIP3   OH249774   4.400   6.457   2.393  0.1380 -0.0349 -0.9245
 9428TIP3    H149775   4.347   6.421   2.322  0.4649  0.4249 -1.4079
 9428TIP3    H249776   4.472   6.395   2.404  1.0021  0.7129 -2.1246
 9429TIP3   OH249777   4.390   4.520  11.918  0.2829 -0.4847  0.5830
 9429TIP3    H149778   4.358   4.570  11.993  1.8062  0.3214  0.7240
 9429TIP3    H249779   4.311   4.478  11.883 -1.3840  3.0247 -0.3647
 9430TIP3   OH249780   3.563   0.250  13.156  0.2949  0.2228 -0.5043
 9430TIP3    H149781   3.486   0.214  13.112  0.8757  2.2626 -3.4694
 9430TIP3    H249782   3.527   0.292  13.235 -1.3441 -0.4193 -0.8653
 9431TIP3   OH249783   6.366   2.898  16.571  0.3911  0.7216 -0.4535
 9431TIP3    H149784   6.372   2.910  16.476  1.6809 -1.0552 -0.6462
 9431TIP3    H249785   6.413   2.973  16.607 -2.5998  3.0826 -1.0081
 9432TIP3   OH249786   4.140   0.433  16.647  0.0571 -0.2956 -0.3674
 9432TIP3    H149787   4.160   0.458  16.737  1.4323 -0.1884 -0.6905
 9432TIP3    H249788   4.044   0.431  16.644 -0.0095 -0.2400  1.0710
 9433TIP3   OH249789   4.542   4.287  13.571 -0.1318 -0.2423  0.4621
 9433TIP3    H149790   4.458   4.240  13.568  0.0268 -0.5678  1.1336
 9433TIP3    H249791   4.531   4.351  13.641 -0.6168  1.2747 -0.9239
 9434TIP3   OH249792   2.100   3.385  15.056 -0.9535 -0.0924 -0.4230
 9434TIP3    H149793   2.073   3.365  15.146 -0.3167 -0.5108 -0.3183
 9434TIP3    H249794   2.030   3.441  15.022 -0.0632  2.1206  1.1328
 9435TIP3   OH249795   2.178   4.820   6.261 -0.9389  0.3961 -0.4089
 9435TIP3    H149796   2.137   4.743   6.299 -1.1199  0.5949 -0.1941
 9435TIP3    H249797   2.114   4.850   6.195 -0.7721  0.2392 -0.6437
 9436TIP3   OH249798   4.415   4.168   0.119  0.5094 -0.0741 -0.0859
 9436TIP3    H149799   4.359   4.223   0.063 -0.7274 -1.0251  0.1676
 9436TIP3    H249800   4.472   4.122   0.057  0.7604  0.6041 -0.3775
 9437TIP3   OH249801   6.662   2.439  11.267  0.1902 -0.4754  0.7152
 9437TIP3    H149802   6.688   2.485  11.347  0.0472 -0.2282  0.6194
 9437TIP3    H249803   6.744   2.404  11.231  0.6407  1.5606 -0.3907
 9438TIP3   OH249804   4.474   4.018  12.675 -0.4481 -0.1458 -0.6121
 9438TIP3    H149805   4.542   3.953  12.693  0.4692  0.5087 -1.6289
 9438TIP3    H249806   4.476   4.030  12.580 -0.4996  1.4624 -0.4444
 9439TIP3   OH249807   3.549   1.227  17.064 -0.0295  0.4128  0.0187
 9439TIP3    H149808   3.639   1.251  17.085  0.4551 -0.6492 -0.7301
 9439TIP3    H249809   3.544   1.234  16.969 -0.9217  1.0232  0.0957
 9440TIP3   OH249810   6.245   0.250  11.344  0.1727  0.5085 -0.7701
 9440TIP3    H149811   6.255   0.205  11.428  1.2470  3.5745  0.9033
 9440TIP3    H249812   6.319   0.220  11.292  2.1987  1.8591  1.1316
 9441TIP3   OH249813   1.947   4.358   5.319  0.1161 -0.2388  0.2455
 9441TIP3    H149814   1.995   4.436   5.348  0.0838  0.7055 -2.0232
 9441TIP3    H249815   1.983   4.339   5.232 -2.7348 -0.1881 -1.0715
 9442TIP3   OH249816   4.406   0.125  15.401  1.1350 -0.5503  0.2562
 9442TIP3    H149817   4.377   0.099  15.313 -0.8164  0.9708  0.3683
 9442TIP3    H249818   4.488   0.173  15.386  0.5718  0.1246 -0.8193
 9443TIP3   OH249819   1.300   3.298  16.385 -0.9034 -0.1474 -0.3119
 9443TIP3    H149820   1.363   3.228  16.368 -0.3951  0.2217  0.0169
 9443TIP3    H249821   1.260   3.275  16.468 -2.3306 -1.1844 -1.2389
 9444TIP3   OH249822   4.358   5.715   2.774 -0.2519 -0.3500 -0.1495
 9444TIP3    H149823   4.266   5.741   2.783 -0.0706 -0.3824  2.4563
 9444TIP3    H249824   4.369   5.645   2.838  1.1918 -1.6426 -1.6928
 9445TIP3   OH249825   6.373   4.001  15.983  0.1447  0.1187 -0.3381
 9445TIP3    H149826   6.396   4.082  16.029 -1.4911  1.7884 -2.2731
 9445TIP3    H249827   6.283   3.984  16.009  0.4184 -0.9991 -0.0943
 9446TIP3   OH249828   1.065   4.801  16.230 -0.0546 -0.4427 -0.3214
 9446TIP3    H149829   0.976   4.796  16.196 -0.0710 -0.5926 -0.2582
 9446TIP3    H249830   1.106   4.718  16.203  0.4094  0.0911 -1.3144
 9447TIP3   OH249831   1.983   6.322   2.544 -0.2827  0.4008  0.1188
 9447TIP3    H149832   1.987   6.286   2.632  3.1099 -2.1710 -0.8966
 9447TIP3    H249833   1.946   6.252   2.490  0.1340  0.9272 -0.8854
 9448TIP3   OH249834   2.230   2.880  13.580 -0.2682 -0.2943  0.2638
 9448TIP3    H149835   2.283   2.955  13.551 -0.4223 -1.1191 -2.4681
 9448TIP3    H249836   2.161   2.873  13.514 -0.9276 -2.1688  1.0888
 9449TIP3   OH249837   1.255   1.494  11.133 -0.0261  0.0995  0.1906
 9449TIP3    H149838   1.266   1.587  11.151  0.6927 -0.2261  1.6322
 9449TIP3    H249839   1.160   1.481  11.131 -0.1363  0.7666  0.5909
 9450TIP3   OH249840   5.903   0.465   2.714  0.1214  0.0981 -0.0716
 9450TIP3    H149841   5.892   0.376   2.683  0.6704  0.2896 -0.8396
 9450TIP3    H249842   5.928   0.456   2.806  1.9446 -0.6173 -0.5952
 9451TIP3   OH249843   5.033   0.829   3.565  0.0491  0.7832 -0.1142
 9451TIP3    H149844   5.116   0.846   3.520  0.0225  1.1471 -0.0271
 9451TIP3    H249845   4.966   0.838   3.498 -0.1126  2.6343  0.2483
 9452TIP3   OH249846   1.426   1.851  13.100 -0.4950 -0.4718  0.5658
 9452TIP3    H149847   1.410   1.861  13.194 -2.5588 -2.0422  0.4345
 9452TIP3    H249848   1.371   1.917  13.059  2.2489  1.9542  0.4228
 9453TIP3   OH249849   0.960   0.163  16.701 -0.6244  0.5418 -0.3245
 9453TIP3    H149850   0.886   0.103  16.706  0.5154 -0.9510 -0.3392
 9453TIP3    H249851   0.960   0.193  16.610 -0.7419 -0.1023 -0.5432
 9454TIP3   OH249852   2.804   5.160   5.445  0.2960 -0.5836  0.1335
 9454TIP3    H149853   2.825   5.068   5.425  0.8380 -0.5397  0.4825
 9454TIP3    H249854   2.715   5.157   5.480  0.6795 -1.1125  1.1165
 9455TIP3   OH249855   5.789   2.691   5.313 -0.4348  0.6686  0.4481
 9455TIP3    H149856   5.866   2.634   5.310  0.6123  1.9766  1.2279
 9455TIP3    H249857   5.715   2.631   5.312  0.5829 -0.6415 -0.1752
 9456TIP3   OH249858   1.438   4.562   0.532 -0.1127 -0.2199  0.3276
 9456TIP3    H149859   1.368   4.584   0.471 -0.5312 -0.9937  0.5067
 9456TIP3    H249860   1.458   4.470   0.512  1.6877  0.3062 -0.5415
 9457TIP3   OH249861   3.934   6.565   2.622 -0.0250  0.1591  0.4626
 9457TIP3    H149862   4.008   6.624   2.637  0.5991 -0.1047 -1.3398
 9457TIP3    H249863   3.857   6.616   2.650  0.6380  1.2579  0.3401
 9458TIP3   OH249864   2.617   0.403   1.400 -0.2678  0.5993 -0.1822
 9458TIP3    H149865   2.683   0.460   1.439  0.9697 -0.9915  0.1486
 9458TIP3    H249866   2.534   0.439   1.429  0.5137  1.5656  0.9566
 9459TIP3   OH249867   5.972   1.189   5.157 -0.4805  0.4150  0.3028
 9459TIP3    H149868   6.060   1.153   5.172 -0.8496 -0.5572  0.1985
 9459TIP3    H249869   5.957   1.248   5.231 -0.5114 -0.9032  1.3725
 9460TIP3   OH249870   1.107   0.977   1.133  0.1479  0.0775 -0.4028
 9460TIP3    H149871   1.122   0.981   1.227  0.1392  1.8133 -0.4325
 9460TIP3    H249872   1.104   1.069   1.106 -1.4566 -0.3428 -1.8436
 9461TIP3   OH249873   0.078   5.274  15.987  0.0372  0.0748 -0.5971
 9461TIP3    H149874   0.034   5.242  15.907  1.0524 -1.9189 -0.4042
 9461TIP3    H249875   0.083   5.198  16.044  1.1345  0.9878  0.5793
 9462TIP3   OH249876   0.583   2.585  11.483  0.0671  0.5189 -0.3134
 9462TIP3    H149877   0.645   2.562  11.414 -0.7642  2.0082 -1.6357
 9462TIP3    H249878   0.608   2.531  11.557  1.4671 -0.6075 -1.5467
 9463TIP3   OH249879   6.409   6.042  16.425  0.5134 -0.1093  0.2443
 9463TIP3    H149880   6.445   6.078  16.506 -2.0867  0.1573  1.3765
 9463TIP3    H249881   6.320   6.078  16.420 -0.8286 -3.1758 -0.6267
 9464TIP3   OH249882   6.750   0.874  14.553 -0.3060  0.4698  0.6346
 9464TIP3    H149883   6.674   0.868  14.495 -0.4079 -0.9736  0.8952
 9464TIP3    H249884   6.818   0.914  14.499 -1.1327  1.4685  0.2962
 9465TIP3   OH249885   5.768   4.235   0.080 -0.1841 -0.6193  0.2146
 9465TIP3    H149886   5.702   4.286   0.033 -0.6443 -0.0993  1.3804
 9465TIP3    H249887   5.832   4.300   0.110  0.7574 -1.0925 -0.7220
 9466TIP3   OH249888   5.742   4.038  13.626  0.3576 -0.1921 -0.1306
 9466TIP3    H149889   5.688   4.104  13.667 -0.6981 -0.4093 -1.1194
 9466TIP3    H249890   5.680   3.974  13.590  1.2954 -0.9378 -0.4848
 9467TIP3   OH249891   4.925   2.767  12.605 -0.3264  0.3657  0.3601
 9467TIP3    H149892   4.971   2.692  12.567 -0.3246  0.3561  0.3814
 9467TIP3    H249893   4.838   2.733  12.627  0.2658 -0.1188  2.0643
 9468TIP3   OH249894   0.619   1.620  12.864 -0.0034 -0.4518  0.3298
 9468TIP3    H149895   0.627   1.707  12.904 -1.8016 -1.0348  2.1401
 9468TIP3    H249896   0.705   1.580  12.876 -0.1759 -0.2368  2.9405
 9469TIP3   OH249897   4.819   4.565   1.557  0.3093  0.0778 -0.0833
 9469TIP3    H149898   4.879   4.581   1.630 -0.0731  1.4984 -0.0604
 9469TIP3    H249899   4.779   4.481   1.577  3.0639 -1.5126 -0.6336
 9470TIP3   OH249900   0.387   3.494   3.728  0.3783  0.7401  0.3442
 9470TIP3    H149901   0.366   3.408   3.763  2.6756  0.5595  1.5358
 9470TIP3    H249902   0.435   3.537   3.800  0.0644  2.6613 -0.5377
 9471TIP3   OH249903   3.038   1.775  15.686 -0.0460 -0.0266  0.0727
 9471TIP3    H149904   3.005   1.698  15.733  1.2635 -0.6623  0.0129
 9471TIP3    H249905   2.967   1.799  15.626 -0.4270 -1.2969 -0.0269
 9472TIP3   OH249906   4.640   3.038  10.859  0.1479 -0.5246  0.5875
 9472TIP3    H149907   4.612   3.009  10.772 -0.7506  1.0609  0.2941
 9472TIP3    H249908   4.608   2.971  10.919  1.5759 -2.1287 -0.3524
 9473TIP3   OH249909   1.194   1.242   4.175 -0.8266  0.5293 -0.7234
 9473TIP3    H149910   1.170   1.174   4.238 -1.2803  1.0122 -0.3726
 9473TIP3    H249911   1.170   1.206   4.090 -2.9294  1.0375 -0.3865
 9474TIP3   OH249912   0.811   5.397  14.117  0.2552 -0.3082 -0.9457
 9474TIP3    H149913   0.730   5.424  14.161 -0.3286  0.9761 -2.6877
 9474TIP3    H249914   0.783   5.361  14.033  1.4576 -0.2616 -1.3928
 9475TIP3   OH249915   6.829   4.586   2.871 -0.1511  0.2373  0.1043
 9475TIP3    H149916   6.862   4.640   2.943  1.1509  0.1194 -0.3923
 9475TIP3    H249917   6.763   4.530   2.912  0.4245  0.3075  1.1656
 9476TIP3   OH249918   5.195   0.160   3.017 -0.5892  0.1815 -0.2441
 9476TIP3    H149919   5.131   0.098   2.982 -1.0742 -0.1293  1.1220
 9476TIP3    H249920   5.234   0.115   3.092  0.4400  0.7991 -0.3916
 9477TIP3   OH249921   3.471   5.050  14.480 -0.2435 -0.1495 -0.2481
 9477TIP3    H149922   3.555   5.091  14.457 -0.3414  0.3973  0.3392
 9477TIP3    H249923   3.406   5.117  14.461 -0.4504 -0.1998  0.2621
 9478TIP3   OH249924   3.535   3.560  15.661 -0.1993  0.0619 -0.3004
 9478TIP3    H149925   3.467   3.500  15.630 -1.2827  1.4537 -0.7325
 9478TIP3    H249926   3.512   3.644  15.621  0.3279  1.1489  1.5805
 9479TIP3   OH249927   1.230   1.542   3.561 -0.4427 -0.3573  0.7170
 9479TIP3    H149928   1.192   1.605   3.499 -0.4476 -0.7451  0.3266
 9479TIP3    H249929   1.320   1.574   3.575  0.1427 -1.2279 -0.8347
 9480TIP3   OH249930   4.801   0.369  16.696 -0.6713 -0.2493 -0.2244
 9480TIP3    H149931   4.871   0.323  16.741 -1.3575 -1.4223 -0.3045
 9480TIP3    H249932   4.809   0.460  16.724  0.6500 -0.4324  0.0376
 9481TIP3   OH249933   5.721   0.339   1.923 -0.0353  0.2644  0.2973
 9481TIP3    H149934   5.780   0.327   1.850 -0.0343  0.5115  0.2574
 9481TIP3    H249935   5.633   0.340   1.884 -0.1089 -0.6945  0.4203
 9482TIP3   OH249936   3.589   4.351  14.942  0.4694 -0.7683 -0.3312
 9482TIP3    H149937   3.630   4.314  14.864  3.8496  0.6829  0.6038
 9482TIP3    H249938   3.616   4.294  15.013  0.6422  0.0618  0.2842
 9483TIP3   OH249939   4.419   0.190  16.244  0.0118 -0.6485 -0.1299
 9483TIP3    H149940   4.374   0.172  16.161  0.0678 -3.0256  0.2814
 9483TIP3    H249941   4.365   0.256  16.287  0.2851  1.0853 -2.2548
 9484TIP3   OH249942   1.931   3.285   2.092  0.8528 -0.1666 -0.5641
 9484TIP3    H149943   1.888   3.306   2.174 -0.3533  2.1781 -1.7083
 9484TIP3    H249944   1.891   3.202   2.064 -2.4321  1.4822 -1.1464
 9485TIP3   OH249945   2.783   5.184  16.719 -0.0221  0.0493  0.1410
 9485TIP3    H149946   2.719   5.226  16.662 -1.4862 -0.1858  1.5251
 9485TIP3    H249947   2.867   5.226  16.697 -0.9605  1.7102 -0.4415
 9486TIP3   OH249948   1.329   5.269   4.999 -0.4598 -0.0155  0.7890
 9486TIP3    H149949   1.418   5.236   5.011  0.6887  1.6813 -2.1394
 9486TIP3    H249950   1.295   5.221   4.923 -0.8190  1.5453 -0.0829
 9487TIP3   OH249951   2.259   3.240   3.181 -0.4556 -0.8128  0.1396
 9487TIP3    H149952   2.347   3.269   3.159 -0.8513 -0.6209 -1.3144
 9487TIP3    H249953   2.239   3.173   3.116 -1.7262 -0.1606 -0.1835
 9488TIP3   OH249954   1.728   6.589  14.828 -0.4072  0.2486 -0.3405
 9488TIP3    H149955   1.655   6.531  14.808 -0.5592 -0.1888  1.3364
 9488TIP3    H249956   1.751   6.568  14.919 -0.4836  2.8164  0.3393
 9489TIP3   OH249957   0.053   0.567  11.133 -0.4833 -0.0394  0.3592
 9489TIP3    H149958  -0.018   0.508  11.107 -0.3248  0.1669 -0.5987
 9489TIP3    H249959   0.056   0.633  11.063  0.6240 -0.0219  0.3998
 9490TIP3   OH249960   0.618   0.435   0.158  0.0777 -0.4736  0.2778
 9490TIP3    H149961   0.540   0.484   0.131 -0.5094 -1.4747  0.1098
 9490TIP3    H249962   0.630   0.459   0.250  1.0194  1.5547 -0.3117
 9491TIP3   OH249963   1.499   2.324  14.656 -0.4446 -0.6965  0.2136
 9491TIP3    H149964   1.546   2.401  14.689  0.9096 -0.1994 -2.6068
 9491TIP3    H249965   1.424   2.360  14.608  0.6050 -0.9977 -1.7559
 9492TIP3   OH249966   6.831   1.040  15.494  0.1101 -0.1391  0.1709
 9492TIP3    H149967   6.770   1.083  15.554  0.2481 -0.4658  0.5461
 9492TIP3    H249968   6.844   0.953  15.530  0.3565 -0.2692 -0.2197
 9493TIP3   OH249969   5.449   0.211  16.357 -0.0843  0.1329 -0.8044
 9493TIP3    H149970   5.445   0.275  16.286  1.6988  0.3901 -0.7005
 9493TIP3    H249971   5.530   0.162  16.342 -0.4653 -0.8661  0.1768
 9494TIP3   OH249972   5.876   6.312  16.893 -0.7045 -0.6512 -0.1073
 9494TIP3    H149973   5.878   6.327  16.798 -0.5125 -0.4088 -0.0675
 9494TIP3    H249974   5.968   6.317  16.919 -0.7755 -0.5412  0.1197
 9495TIP3   OH249975   0.961   5.684   5.799  0.0475 -0.3255 -0.5032
 9495TIP3    H149976   1.015   5.610   5.774 -1.5532 -1.2977 -1.3017
 9495TIP3    H249977   0.880   5.673   5.748 -2.0146 -0.4538  2.5283
 9496TIP3   OH249978   0.154   4.777  12.099 -1.0209 -0.3229  0.0596
 9496TIP3    H149979   0.235   4.791  12.049 -1.4656 -0.3715 -0.6798
 9496TIP3    H249980   0.151   4.850  12.160  0.0805 -0.8428  0.7664
 9497TIP3   OH249981   5.687   2.915   4.319 -0.1856  0.5626 -0.2811
 9497TIP3    H149982   5.623   2.849   4.345  0.6917 -0.2061 -0.0022
 9497TIP3    H249983   5.635   2.994   4.303 -1.0536  0.3448  1.2641
 9498TIP3   OH249984   0.163   6.292  13.844 -0.0067  0.4874 -0.2453
 9498TIP3    H149985   0.141   6.370  13.793 -0.4077 -0.0338 -0.8917
 9498TIP3    H249986   0.144   6.219  13.785  0.7956 -0.0882  0.1870
 9499TIP3   OH249987   4.081   5.934   4.519  0.4612  0.6368  0.9887
 9499TIP3    H149988   4.083   5.985   4.438 -0.6839 -0.6933  0.0854
 9499TIP3    H249989   4.173   5.932   4.548  1.0853  0.2507 -0.8632
 9500TIP3   OH249990   4.467   4.299   2.765  0.5024 -0.6132  0.4857
 9500TIP3    H149991   4.555   4.298   2.729  0.7802  1.6225  0.9878
 9500TIP3    H249992   4.419   4.363   2.712 -0.1603 -0.1263  1.6320
 9501TIP3   OH249993   0.332   6.496   3.915 -0.0895  0.6389  0.1350
 9501TIP3    H149994   0.373   6.440   3.981  0.9843  0.3097 -0.7750
 9501TIP3    H249995   0.399   6.560   3.892 -1.0109  1.7844  0.5296
 9502TIP3   OH249996   6.663   0.945   5.152 -0.2597  0.1384 -0.0036
 9502TIP3    H149997   6.704   1.026   5.123  2.0297 -0.7455  0.5434
 9502TIP3    H249998   6.650   0.958   5.246  0.3715 -0.2197  0.1364
 9503TIP3   OH249999   5.565   0.173   1.158  0.2555 -0.5729 -0.3304
 9503TIP3    H150000   5.547   0.110   1.089 -1.3133  0.2236 -0.6819
 9503TIP3    H250001   5.647   0.215   1.132 -0.6336  0.1677 -2.0717
 9504TIP3   OH250002   4.827   2.597  16.072  0.4104  0.6301  0.2828
 9504TIP3    H150003   4.916   2.588  16.104  0.5638 -2.4759 -0.7215
 9504TIP3    H250004   4.796   2.679  16.110  3.8303  2.1077  0.1936
 9505TIP3   OH250005   6.289   0.020  15.635 -0.0554  0.1364 -0.1278
 9505TIP3    H150006   6.351   0.078  15.678  0.9436 -0.4069 -0.7778
 9505TIP3    H250007   6.205   0.065  15.640  0.6395  1.5010 -0.3681
 9506TIP3   OH250008   3.609   5.196   0.324 -0.0038 -0.9546  0.0588
 9506TIP3    H150009   3.676   5.128   0.321 -0.0118 -0.9270 -1.0622
 9506TIP3    H250010   3.593   5.219   0.233  1.5112  2.0571  0.4176
 9507TIP3   OH250011   5.519   3.587  15.778 -0.1112 -0.0401  0.0418
 9507TIP3    H150012   5.565   3.653  15.727  1.3298  0.1030  1.4293
 9507TIP3    H250013   5.589   3.535  15.819 -1.2048 -1.7146 -0.1070
 9508TIP3   OH250014   6.081   6.613   3.614 -0.0799  0.3096  0.1933
 9508TIP3    H150015   6.113   6.575   3.532 -1.4925  0.0391 -0.2557
 9508TIP3    H250016   6.074   6.707   3.595 -1.7931  0.0752 -0.5127
 9509TIP3   OH250017   6.238   1.053   2.446 -0.4140  0.7338 -1.1134
 9509TIP3    H150018   6.306   1.045   2.513 -0.3456  1.2673 -1.1133
 9509TIP3    H250019   6.191   0.969   2.449  0.1573  0.4136 -1.0251
 9510TIP3   OH250020   3.204   3.723  16.389 -0.3185 -0.6888 -0.2963
 9510TIP3    H150021   3.205   3.673  16.471 -2.1376 -0.0896  0.1359
 9510TIP3    H250022   3.136   3.682  16.336 -0.5653  0.1750 -0.6701
 9511TIP3   OH250023   1.687   2.255  13.189  0.5586  0.1842 -0.0281
 9511TIP3    H150024   1.692   2.251  13.093  1.1013  0.5280 -0.0167
 9511TIP3    H250025   1.605   2.302  13.206  0.0678 -0.5479 -0.3052
 9512TIP3   OH250026   1.905   4.678   4.438  0.0831  0.2786 -0.0463
 9512TIP3    H150027   1.821   4.636   4.456 -0.7701  2.5658  1.7506
 9512TIP3    H250028   1.918   4.666   4.344 -0.6772 -2.7959  0.1287
 9513TIP3   OH250029   1.344   4.711  13.073  0.0789  0.5166 -0.2899
 9513TIP3    H150030   1.317   4.778  13.011  0.2883 -1.6898 -2.9950
 9513TIP3    H250031   1.434   4.734  13.097 -0.6546  2.4388  0.8198
 9514TIP3   OH250032   4.143   3.348   0.844 -0.5413  0.6570  0.3558
 9514TIP3    H150033   4.196   3.400   0.903 -0.5449  0.8585  0.1809
 9514TIP3    H250034   4.101   3.282   0.901  0.3199  0.1475  0.4172
 9515TIP3   OH250035   5.808   2.296  13.742 -0.6161  1.0199  0.0486
 9515TIP3    H150036   5.822   2.279  13.836  1.4923  1.3873 -0.1432
 9515TIP3    H250037   5.894   2.283  13.703 -1.0576  2.6267 -1.5652
 9516TIP3   OH250038   0.195   4.091   1.820 -0.0919  0.8020 -0.6341
 9516TIP3    H150039   0.130   4.021   1.830  1.0912 -0.4780 -1.4330
 9516TIP3    H250040   0.164   4.142   1.746  0.8543 -1.1187 -2.4581
 9517TIP3   OH250041   2.901   5.456  13.307 -0.5706 -0.0546  0.1301
 9517TIP3    H150042   2.807   5.446  13.322 -1.5438  2.3440 -3.1582
 9517TIP3    H250043   2.933   5.500  13.385 -2.1093 -1.0740  1.4071
 9518TIP3   OH250044   5.995   0.846  15.207 -0.3201  0.1191 -0.5553
 9518TIP3    H150045   5.927   0.781  15.190  0.3029 -0.6508 -0.2117
 9518TIP3    H250046   6.021   0.878  15.121 -0.5371 -0.1959 -0.7391
 9519TIP3   OH250047   5.815   5.918   4.414 -0.3805  0.3452  0.5788
 9519TIP3    H150048   5.781   5.864   4.485 -0.5707 -0.0096  0.2267
 9519TIP3    H250049   5.737   5.953   4.371 -0.2470  1.7316  1.4170
 9520TIP3   OH250050   5.125   2.863   0.896  0.0568 -0.6405 -0.8290
 9520TIP3    H150051   5.204   2.858   0.842  0.4306  0.8591 -0.4656
 9520TIP3    H250052   5.070   2.928   0.852 -0.9462 -1.5977 -1.0209
 9521TIP3   OH250053   4.649   6.513   0.437 -0.0078 -0.2784  0.3241
 9521TIP3    H150054   4.586   6.454   0.397  0.2122  0.2677 -0.8893
 9521TIP3    H250055   4.596   6.586   0.469  0.0498  0.7927 -1.8139
 9522TIP3   OH250056   2.375   0.934   1.497 -0.1840 -0.5343  0.7990
 9522TIP3    H150057   2.341   0.964   1.413 -0.1696  0.1663  1.0288
 9522TIP3    H250058   2.375   1.013   1.552 -1.5039 -1.2557  1.8992
 9523TIP3   OH250059   5.915   5.815  11.012  0.8156 -0.8919  0.4193
 9523TIP3    H150060   6.001   5.837  10.977  0.7990 -0.4155  0.6767
 9523TIP3    H250061   5.854   5.873  10.966  0.6622 -1.0471  0.4239
 9524TIP3   OH250062   3.130   1.414  11.170  1.1775  0.4957  0.0378
 9524TIP3    H150063   3.067   1.432  11.240  2.2494  0.4473  1.0269
 9524TIP3    H250064   3.120   1.488  11.109  0.6221  0.8183  0.5130
 9525TIP3   OH250065   0.704   6.267  14.432 -0.3351  0.3615 -0.3856
 9525TIP3    H150066   0.620   6.282  14.390 -2.6008  0.3612  3.6812
 9525TIP3    H250067   0.735   6.355  14.456  0.3284  0.2892 -0.9464
 9526TIP3   OH250068   2.288   6.559   5.130 -0.3457 -0.5067 -0.1927
 9526TIP3    H150069   2.334   6.593   5.207 -0.6411  0.1975 -0.3181
 9526TIP3    H250070   2.252   6.636   5.088  0.3450 -0.8270 -1.4040
 9527TIP3   OH250071   4.203   5.518   1.236 -0.5034 -0.0200 -0.0278
 9527TIP3    H150072   4.181   5.497   1.145 -2.0656  3.6952 -0.7288
 9527TIP3    H250073   4.128   5.488   1.286 -1.5477  1.4177 -0.6357
 9528TIP3   OH250074   4.126   3.756  16.504 -0.2755 -0.0373 -0.0660
 9528TIP3    H150075   4.220   3.766  16.489 -0.2723  2.5889  1.2031
 9528TIP3    H250076   4.116   3.665  16.532  1.7737 -0.5624 -0.8442
 9529TIP3   OH250077   6.227   4.320   3.418  0.3533 -0.0463 -0.3016
 9529TIP3    H150078   6.147   4.365   3.447 -1.5806 -3.2872 -0.0517
 9529TIP3    H250079   6.236   4.345   3.326  0.7734  2.5486  0.3639
 9530TIP3   OH250080   2.295   0.199  12.754 -0.7294 -0.5082  0.1126
 9530TIP3    H150081   2.281   0.105  12.769 -2.1516 -0.1107  1.5417
 9530TIP3    H250082   2.381   0.216  12.793 -0.7196 -1.1137  0.3755
 9531TIP3   OH250083   4.430   4.430   1.852 -0.6478 -0.9270 -0.4720
 9531TIP3    H150084   4.410   4.466   1.765  0.7724  0.7078 -0.1809
 9531TIP3    H250085   4.472   4.346   1.834 -0.4407 -0.6417 -1.3814
 9532TIP3   OH250086   4.625   3.929   5.267  0.2660  0.0868  0.1729
 9532TIP3    H150087   4.703   3.984   5.279 -0.2776  0.8834  0.1798
 9532TIP3    H250088   4.626   3.869   5.341  0.8200  0.1491  0.2213
 9533TIP3   OH250089   0.353   2.567  13.246  0.5949  0.3654 -0.4806
 9533TIP3    H150090   0.287   2.572  13.316  1.2771 -2.6958  0.5726
 9533TIP3    H250091   0.416   2.636  13.267 -0.0768  0.5701  1.0051
 9534TIP3   OH250092   5.637   6.155   1.682  0.2510 -0.0657  0.7306
 9534TIP3    H150093   5.668   6.110   1.761 -1.7057 -0.8275  1.1215
 9534TIP3    H250094   5.623   6.245   1.710  0.8067 -0.0246  0.8936
 9535TIP3   OH250095   6.766   0.148   5.667 -0.0972  0.0132  0.3005
 9535TIP3    H150096   6.841   0.163   5.610  0.9993  0.7498  1.8615
 9535TIP3    H250097   6.762   0.053   5.678 -0.1434 -0.1096 -0.7417
 9536TIP3   OH250098   4.251   6.838   3.130 -0.3847  0.1107 -0.1149
 9536TIP3    H150099   4.197   6.824   3.208 -0.9972 -0.0734 -0.5604
 9536TIP3    H250100   4.286   6.926   3.140 -0.5219  0.1156  0.3276
 9537TIP3   OH250101   0.585   3.386  11.094  0.2009  0.8445  0.0386
 9537TIP3    H150102   0.613   3.345  11.013  0.4037  1.4168 -0.1812
 9537TIP3    H250103   0.601   3.479  11.082  0.3732  0.9224  0.7906
 9538TIP3   OH250104   2.123   1.033   4.947  0.7413  0.2222  0.2230
 9538TIP3    H150105   2.144   0.974   4.875  1.3635  0.1826  0.4356
 9538TIP3    H250106   2.200   1.090   4.955  0.2850  0.8480  0.2345
 9539TIP3   OH250107   4.220   5.547   5.057 -0.1849  0.0625  0.2725
 9539TIP3    H150108   4.225   5.628   5.109  3.5234  0.0627  0.1976
 9539TIP3    H250109   4.305   5.542   5.013 -0.9478 -3.0276 -1.1080
 9540TIP3   OH250110   3.265   3.994   3.632 -0.3297  0.7507 -0.3559
 9540TIP3    H150111   3.295   4.057   3.567 -2.7882  0.9461 -1.3882
 9540TIP3    H250112   3.209   4.044   3.690 -1.3029 -0.2134 -0.4428
 9541TIP3   OH250113   1.685   4.451  16.737 -0.3840 -0.5902 -0.5331
 9541TIP3    H150114   1.605   4.502  16.723  0.6562  1.0037 -0.9698
 9541TIP3    H250115   1.701   4.456  16.831 -0.2258  0.0371 -0.5869
 9542TIP3   OH250116   4.019   1.288   2.124  0.1261  0.2517 -0.2364
 9542TIP3    H150117   4.036   1.250   2.038  2.4686 -1.5090  0.9015
 9542TIP3    H250118   4.028   1.382   2.111 -1.8857  0.2542 -2.3194
 9543TIP3   OH250119   5.981   1.392   5.337 -0.0815  0.0344 -0.5720
 9543TIP3    H150120   5.953   1.483   5.340  1.8354  0.6629 -0.4464
 9543TIP3    H250121   6.074   1.395   5.359 -0.0588 -1.9949 -0.2060
 9544TIP3   OH250122   6.612   4.411  14.384  0.2640  1.0500 -0.0245
 9544TIP3    H150123   6.548   4.480  14.402  0.4975  1.4335 -0.6187
 9544TIP3    H250124   6.568   4.354  14.321  0.1927  0.8351  0.2176
 9545TIP3   OH250125   5.507   4.446   2.467  0.3609  0.1621 -0.2820
 9545TIP3    H150126   5.495   4.486   2.554  1.0018  0.3866 -0.2971
 9545TIP3    H250127   5.418   4.423   2.440  0.1273  0.3090  0.3315
 9546TIP3   OH250128   4.399   1.721   5.616  0.1385  0.5279 -0.7672
 9546TIP3    H150129   4.434   1.663   5.549 -0.4302 -0.2376 -0.4287
 9546TIP3    H250130   4.437   1.806   5.598  1.2372 -0.0173 -1.1009
 9547TIP3   OH250131   4.697   2.565  11.125 -0.1891 -0.3506  0.2641
 9547TIP3    H150132   4.712   2.599  11.213  0.5023  0.0398  0.0020
 9547TIP3    H250133   4.626   2.502  11.136 -0.6103  0.2338  0.9741
 9548TIP3   OH250134   0.555   0.853  13.724 -0.3222 -0.3083  0.3942
 9548TIP3    H150135   0.618   0.889  13.787 -0.2448  0.3291 -0.0359
 9548TIP3    H250136   0.489   0.810  13.778  0.4140 -0.8965  0.8613
 9549TIP3   OH250137   4.059   5.181   4.750  0.8981 -0.5245 -0.2018
 9549TIP3    H150138   4.002   5.152   4.678 -0.3064 -2.5137  1.4583
 9549TIP3    H250139   4.023   5.266   4.775 -1.2443 -1.6082  0.6146
 9550TIP3   OH250140   6.700   0.192   3.911  0.6168 -0.2106  0.1781
 9550TIP3    H150141   6.697   0.203   4.006  0.7883  0.9648  0.0619
 9550TIP3    H250142   6.704   0.097   3.898  0.4527 -0.3893  1.3349
 9551TIP3   OH250143   1.589   1.102  13.083  0.2598 -0.0243 -0.7003
 9551TIP3    H150144   1.505   1.060  13.062 -0.1566 -0.9017  2.2999
 9551TIP3    H250145   1.647   1.030  13.106  1.1276  0.7385 -0.4451
 9552TIP3   OH250146   4.452   5.093   2.939  0.3433 -0.0873  0.5501
 9552TIP3    H150147   4.534   5.143   2.944 -0.0753  0.8604 -1.1771
 9552TIP3    H250148   4.463   5.037   2.862 -0.5595 -0.0683  0.3960
 9553TIP3   OH250149   5.860   2.762  11.407 -0.2913  0.4054 -0.3671
 9553TIP3    H150150   5.812   2.775  11.325  0.3368 -2.0027 -1.1869
 9553TIP3    H250151   5.881   2.851  11.436 -1.4073  1.3635 -2.2664
 9554TIP3   OH250152   4.105   2.505   1.263  0.3047 -0.2395 -0.0227
 9554TIP3    H150153   4.181   2.553   1.296  0.4961 -0.5086 -0.0693
 9554TIP3    H250154   4.142   2.429   1.218  0.0902  0.5289 -1.5550
 9555TIP3   OH250155   3.633   1.207  15.537 -0.3652  0.1241 -0.3720
 9555TIP3    H150156   3.590   1.132  15.494  1.2029 -0.1106 -1.6102
 9555TIP3    H250157   3.683   1.168  15.608  1.0095 -0.1424 -1.4427
 9556TIP3   OH250158   5.743   6.435  13.670 -0.3830  0.1448  0.3025
 9556TIP3    H150159   5.721   6.436  13.577  0.6086  0.8713  0.0634
 9556TIP3    H250160   5.700   6.513  13.705 -0.9848 -0.2746  0.5268
 9557TIP3   OH250161   6.499   0.809   5.374  0.1114  0.1165 -0.1639
 9557TIP3    H150162   6.503   0.730   5.319  0.3355 -1.5607  2.1222
 9557TIP3    H250163   6.532   0.781   5.459 -2.1188  2.0611  1.4698
 9558TIP3   OH250164   4.025   6.111  11.296  0.0735  0.2358  0.1606
 9558TIP3    H150165   4.070   6.106  11.380 -1.4299 -1.4286  0.9560
 9558TIP3    H250166   4.013   6.019  11.271 -1.1635  0.6687 -0.9218
 9559TIP3   OH250167   5.031   5.013   3.398  0.3511  0.6762  0.1623
 9559TIP3    H150168   5.031   4.918   3.383  1.1579  0.6868  0.0243
 9559TIP3    H250169   4.969   5.026   3.469  0.6105 -0.0237  0.5317
 9560TIP3   OH250170   3.783   1.117   5.401  0.0859 -0.3397  0.0613
 9560TIP3    H150171   3.822   1.073   5.326  1.9181  1.2477 -0.0030
 9560TIP3    H250172   3.845   1.101   5.472  1.2446  2.6158 -0.1440
 9561TIP3   OH250173   0.555   3.638  12.912  0.6778 -0.6583  0.8629
 9561TIP3    H150174   0.491   3.669  12.976  1.9129 -0.1763  1.8998
 9561TIP3    H250175   0.572   3.547  12.938  0.4584 -0.7723  0.6130
 9562TIP3   OH250176   2.880   0.580   1.814 -0.4355  0.1784  0.2973
 9562TIP3    H150177   2.895   0.644   1.745 -1.1994  0.6189  0.5326
 9562TIP3    H250178   2.828   0.511   1.772  2.1797 -1.4235 -0.5599
 9563TIP3   OH250179   2.089   0.049   1.796 -0.1876 -0.4223  0.4064
 9563TIP3    H150180   2.120   0.069   1.708 -0.3850  1.1418  0.6535
 9563TIP3    H250181   2.102   0.130   1.845 -2.8614 -0.2482  1.0174
 9564TIP3   OH250182   0.481   1.290   1.322  0.3076  0.4680 -0.1407
 9564TIP3    H150183   0.564   1.336   1.336 -0.2883  1.2161  1.0462
 9564TIP3    H250184   0.506   1.198   1.310  1.3545  0.7902 -0.5221
 9565TIP3   OH250185   5.015   5.894   4.862 -0.1778  0.6406 -0.1299
 9565TIP3    H150186   5.027   5.860   4.773 -0.7841  1.5909 -0.5972
 9565TIP3    H250187   4.940   5.845   4.896  2.4507 -2.7343  1.4778
 9566TIP3   OH250188   5.085   0.123   1.252  0.2619  0.2062  0.0772
 9566TIP3    H150189   5.121   0.067   1.183  1.0083 -0.9248  1.3260
 9566TIP3    H250190   5.156   0.183   1.273 -0.6497  1.9223 -1.4885
 9567TIP3   OH250191   4.234   1.338   4.444 -0.1882 -0.0193  0.1943
 9567TIP3    H150192   4.273   1.298   4.521  1.1725  1.3778  0.2808
 9567TIP3    H250193   4.301   1.330   4.376 -0.7736  0.1387 -0.4209
 9568TIP3   OH250194   6.358   4.943  16.966 -0.1911 -0.1581  0.7343
 9568TIP3    H150195   6.297   4.873  16.990  0.6056 -1.3130 -0.4398
 9568TIP3    H250196   6.310   5.024  16.982 -1.6456 -1.0095  0.8417
 9569TIP3   OH250197   4.898   2.218  10.617 -0.3989  0.3715  0.3909
 9569TIP3    H150198   4.972   2.234  10.558  0.3431 -0.3428  1.1025
 9569TIP3    H250199   4.847   2.150  10.574  0.2911 -0.3468  0.6822
 9570TIP3   OH250200   1.371   3.306  17.143  0.0084  0.0604  0.3693
 9570TIP3    H150201   1.424   3.235  17.180 -1.1893 -0.5729  0.9053
 9570TIP3    H250202   1.281   3.274  17.146 -0.7547  2.0937  1.8647
 9571TIP3   OH250203   2.925   4.349  11.781  1.0985  0.3926 -0.2464
 9571TIP3    H150204   2.839   4.307  11.778  0.3150  1.9092 -0.3707
 9571TIP3    H250205   2.937   4.374  11.873  1.2236  0.5258 -0.2970
 9572TIP3   OH250206   0.645   2.933   0.521 -0.5645 -0.6672  0.4221
 9572TIP3    H150207   0.650   2.838   0.533 -0.0008 -0.5846  0.8950
 9572TIP3    H250208   0.675   2.948   0.431  2.4070 -0.6947  1.3184
 9573TIP3   OH250209   0.249   4.234   3.949 -0.4547  0.6305 -0.2174
 9573TIP3    H150210   0.217   4.144   3.961 -0.6662  0.6539 -0.5883
 9573TIP3    H250211   0.176   4.288   3.979 -1.0589  0.6932 -1.7117
 9574TIP3   OH250212   4.889   2.618  13.831  0.7705 -0.4891 -0.5251
 9574TIP3    H150213   4.894   2.708  13.801  0.8468  0.4516  2.0803
 9574TIP3    H250214   4.809   2.584  13.791 -0.1595  1.2719 -0.2594
 9575TIP3   OH250215   1.163   4.658   2.936 -0.3630 -0.1247  0.6002
 9575TIP3    H150216   1.227   4.606   2.889 -0.5753 -0.5690  0.7944
 9575TIP3    H250217   1.081   4.647   2.886  0.0391  1.7130 -0.5650
 9576TIP3   OH250218   5.773   0.916  12.731  0.3354  0.7128 -0.1273
 9576TIP3    H150219   5.837   0.845  12.720  1.2203  1.5840 -0.7514
 9576TIP3    H250220   5.814   0.975  12.794  0.6414  1.8084 -1.3223
 9577TIP3   OH250221   4.515   1.233  11.902 -0.4933 -0.6173 -0.1551
 9577TIP3    H150222   4.505   1.182  11.822 -1.2044 -0.6100 -0.0826
 9577TIP3    H250223   4.579   1.184  11.954  1.2844  0.2624 -1.4035
 9578TIP3   OH250224   2.121   5.430   0.289 -0.6786 -0.4612 -0.6528
 9578TIP3    H150225   2.187   5.389   0.233  0.1073  2.7300 -2.3225
 9578TIP3    H250226   2.170   5.467   0.362 -1.2552 -1.6438  0.3751
 9579TIP3   OH250227   3.574   4.644   1.250 -0.2205 -0.2281  0.1939
 9579TIP3    H150228   3.640   4.593   1.203  1.2043  0.2491  1.5862
 9579TIP3    H250229   3.506   4.580   1.270 -1.3694 -0.2653 -3.2095
 9580TIP3   OH250230   4.185   3.145   5.669 -0.0218  0.1317 -0.9211
 9580TIP3    H150231   4.107   3.143   5.613  0.9236 -2.7465 -2.3590
 9580TIP3    H250232   4.181   3.062   5.717  2.1767 -0.1312 -1.1204
 9581TIP3   OH250233   0.968   5.734  13.976  0.2228  0.5860 -0.0650
 9581TIP3    H150234   0.917   5.660  13.942 -0.8075  2.0812 -2.0370
 9581TIP3    H250235   0.930   5.752  14.062 -0.0077 -0.6785  0.1167
 9582TIP3   OH250236   1.239   1.389   4.891  0.1948 -0.1666 -0.6346
 9582TIP3    H150237   1.186   1.317   4.927 -1.0204  0.5968 -0.8168
 9582TIP3    H250238   1.204   1.467   4.932  1.5003  0.3354 -0.4522
 9583TIP3   OH250239   5.827   1.131  14.743 -0.4498  0.1629 -0.1297
 9583TIP3    H150240   5.787   1.147  14.658  1.1641 -1.0500 -1.1789
 9583TIP3    H250241   5.801   1.042  14.766  1.8355 -0.8231 -1.0397
 9584TIP3   OH250242   3.744   0.609  13.868 -0.1240 -0.3689  0.2159
 9584TIP3    H150243   3.669   0.596  13.810 -0.6941  2.1323  0.3076
 9584TIP3    H250244   3.817   0.630  13.808 -0.6297  1.8532  0.3126
 9585TIP3   OH250245   5.012   5.100  10.763 -0.6871  0.5871 -0.4255
 9585TIP3    H150246   5.055   5.123  10.681  0.3670 -0.5831 -0.2226
 9585TIP3    H250247   5.074   5.042  10.808 -1.9120 -0.0720  0.4778
 9586TIP3   OH250248   5.869   5.114  16.260 -0.4744 -0.1992  0.3409
 9586TIP3    H150249   5.780   5.144  16.243 -0.1847  0.4198 -0.1234
 9586TIP3    H250250   5.923   5.159  16.195  0.6437  1.9600  2.6171
 9587TIP3   OH250251   1.397   4.103   5.174  0.0659 -0.0053 -0.4328
 9587TIP3    H150252   1.467   4.160   5.205  1.1971 -1.3021 -0.5459
 9587TIP3    H250253   1.334   4.163   5.134 -0.4916  1.5477  2.4815
 9588TIP3   OH250254   2.014   0.215   5.395 -0.0775 -0.0370 -0.1360
 9588TIP3    H150255   1.968   0.292   5.361  1.0692  1.1959  1.0023
 9588TIP3    H250256   2.090   0.251   5.441 -0.2692 -1.7598  1.6394
 9589TIP3   OH250257   1.017   3.849  10.293  0.0246 -0.3621  0.0628
 9589TIP3    H150258   0.955   3.917  10.266 -0.8776 -0.8366  0.8531
 9589TIP3    H250259   1.095   3.897  10.321 -0.7587  0.4078  1.0183
 9590TIP3   OH250260   5.720   0.645  10.953  0.2036  0.1937 -0.0331
 9590TIP3    H150261   5.673   0.587  10.894  1.5492 -1.2301  0.2080
 9590TIP3    H250262   5.788   0.589  10.992  0.1025  1.3589  1.9749
 9591TIP3   OH250263   3.250   5.667  16.216 -0.0541  0.0307  0.4267
 9591TIP3    H150264   3.310   5.677  16.290 -1.6315 -1.0247  1.9374
 9591TIP3    H250265   3.279   5.586  16.173 -1.0170 -1.1405  1.8613
 9592TIP3   OH250266   3.226   3.756  12.131  0.0672 -0.1615 -0.0977
 9592TIP3    H150267   3.317   3.739  12.106 -0.2693 -0.2093 -1.3348
 9592TIP3    H250268   3.213   3.849  12.113 -0.3334 -0.3126 -0.5885
 9593TIP3   OH250269   5.830   2.359   0.800 -0.1763  0.1384  0.0495
 9593TIP3    H150270   5.794   2.326   0.883 -1.0570 -0.7121 -0.6603
 9593TIP3    H250271   5.788   2.306   0.732 -0.0116  1.3110 -0.9983
 9594TIP3   OH250272   0.862   3.112   2.990 -0.2475  0.1622  0.0419
 9594TIP3    H150273   0.785   3.113   3.047  0.5266  1.6898  1.1186
 9594TIP3    H250274   0.881   3.018   2.978 -0.9547 -0.2178  1.5819
 9595TIP3   OH250275   4.754   1.454  12.690  0.6218  0.8839 -0.1752
 9595TIP3    H150276   4.757   1.366  12.729 -1.1003  0.3276 -1.2242
 9595TIP3    H250277   4.678   1.453  12.632  1.0164  2.8387 -0.8121
 9596TIP3   OH250278   0.538   1.561   4.965  0.1445 -0.0236  0.1321
 9596TIP3    H150279   0.561   1.646   4.927  0.9338  0.5922  1.8624
 9596TIP3    H250280   0.517   1.581   5.056  0.8260 -1.7571  0.7039
 9597TIP3   OH250281   3.996   2.307   4.405  0.3559 -0.2056  0.0129
 9597TIP3    H150282   3.962   2.269   4.324  0.2926 -0.1322  0.0056
 9597TIP3    H250283   4.068   2.249   4.430  1.2032  0.4649 -0.7712
 9598TIP3   OH250284   5.461   5.866   6.623  0.0290  0.2135 -0.3116
 9598TIP3    H150285   5.452   5.777   6.656 -1.9523 -0.0621 -1.4691
 9598TIP3    H250286   5.447   5.859   6.529  0.2700  1.6878 -0.4849
 9599TIP3   OH250287   4.124   1.234   2.383 -0.0723 -1.2063 -0.4416
 9599TIP3    H150288   4.095   1.221   2.292  1.3625 -2.5376 -0.7422
 9599TIP3    H250289   4.165   1.321   2.383 -2.7450  0.1922 -0.2867
 9600TIP3   OH250290   2.782   0.716  12.472 -0.1568  0.5479  0.1932
 9600TIP3    H150291   2.846   0.661  12.428 -1.2127 -0.2569 -0.3860
 9600TIP3    H250292   2.708   0.658  12.490 -0.5964  1.3600  1.1637
 9601TIP3   OH250293   2.375   5.178   4.097 -0.0315 -0.0205 -0.1433
 9601TIP3    H150294   2.411   5.098   4.059  0.1142 -0.6012  1.1366
 9601TIP3    H250295   2.330   5.222   4.025 -0.0858 -1.2407 -0.8787
 9602TIP3   OH250296   5.162   0.355  17.033 -0.9320 -0.3374  0.1047
 9602TIP3    H150297   5.232   0.299  17.065 -0.2268 -0.7453 -1.9704
 9602TIP3    H250298   5.180   0.441  17.071  1.6610 -0.0449 -1.5194
 9603TIP3   OH250299   5.237   4.952  16.854 -0.3749 -0.1490 -0.2022
 9603TIP3    H150300   5.220   4.863  16.883 -0.4305  0.0907  0.5270
 9603TIP3    H250301   5.293   4.942  16.777  2.3743 -0.7623  1.7235
 9604TIP3   OH250302   1.950   2.144   5.177 -0.3579  0.9959  0.3227
 9604TIP3    H150303   2.008   2.203   5.129  1.7924 -2.3359 -1.5769
 9604TIP3    H250304   1.862   2.173   5.154  0.5991  2.5573 -1.6716
 9605TIP3   OH250305   3.477   5.554  11.879 -0.7234 -0.4337  0.4845
 9605TIP3    H150306   3.436   5.638  11.860  0.9048  0.3043  0.1101
 9605TIP3    H250307   3.407   5.501  11.918 -1.9882  0.7908 -0.0713
 9606TIP3   OH250308   2.773   6.414  16.231 -0.4540 -0.3822  0.3839
 9606TIP3    H150309   2.788   6.352  16.159  2.1079 -0.2297  0.7118
 9606TIP3    H250310   2.857   6.457  16.244 -1.6346  1.7385  1.5382
 9607TIP3   OH250311   2.642   3.001   1.623  0.0569  0.6165  0.1827
 9607TIP3    H150312   2.730   2.972   1.646  0.0747 -0.1343 -0.7646
 9607TIP3    H250313   2.591   2.920   1.614 -0.6716  1.0277  0.4920
 9608TIP3   OH250314   4.345   2.207   2.348  0.5640  0.1182 -0.4780
 9608TIP3    H150315   4.277   2.263   2.310  1.4347  0.9187 -0.8849
 9608TIP3    H250316   4.423   2.262   2.352  0.5723  0.0482  2.4249
 9609TIP3   OH250317   0.471   5.355  15.602 -0.4927  0.1899  0.3009
 9609TIP3    H150318   0.398   5.395  15.649 -1.7066 -0.8403 -0.6255
 9609TIP3    H250319   0.531   5.428  15.583 -3.2256  1.9543 -2.5113
 9610TIP3   OH250320   5.835   3.357  13.569  1.0021  0.3519  0.0455
 9610TIP3    H150321   5.849   3.450  13.550 -0.1809  0.1181 -2.3978
 9610TIP3    H250322   5.881   3.311  13.498 -1.5050 -0.7476 -0.9993
 9611TIP3   OH250323   5.813   6.402  15.847  0.5479  0.2164 -0.0297
 9611TIP3    H150324   5.883   6.368  15.792 -0.0072  0.2641 -0.7850
 9611TIP3    H250325   5.840   6.492  15.867  1.0703 -0.0137  0.3506
 9612TIP3   OH250326   4.290   0.324   2.605  0.2599 -0.0313 -0.1120
 9612TIP3    H150327   4.238   0.377   2.545  3.3577  2.1028 -1.1069
 9612TIP3    H250328   4.324   0.253   2.550  3.6226  2.2757 -1.3052
 9613TIP3   OH250329   1.534   0.092   1.214 -0.1588  0.2139 -0.6681
 9613TIP3    H150330   1.616   0.141   1.209 -1.0227  1.7067 -0.5912
 9613TIP3    H250331   1.507   0.080   1.123 -0.2838  0.4446 -0.6601
 9614TIP3   OH250332   6.499   1.663  11.215 -0.3467 -0.0509 -0.2152
 9614TIP3    H150333   6.407   1.645  11.233 -0.2359 -0.7735 -0.3452
 9614TIP3    H250334   6.547   1.613  11.281 -0.0688  1.4953  0.8185
 9615TIP3   OH250335   3.739   5.228  12.825 -0.9892  0.8298  0.3591
 9615TIP3    H150336   3.722   5.134  12.817  1.2079  0.5311 -2.1939
 9615TIP3    H250337   3.656   5.269  12.801 -0.7545 -0.5365 -3.6071
 9616TIP3   OH250338   1.861   1.452  15.409  0.6345  0.2829 -0.5666
 9616TIP3    H150339   1.850   1.366  15.449 -0.2341  0.4346 -0.4519
 9616TIP3    H250340   1.781   1.464  15.358  0.2026  1.5220  0.3653
 9617TIP3   OH250341   0.986   3.659  11.933  0.3198 -0.0735  0.2827
 9617TIP3    H150342   1.000   3.567  11.958  0.1956  0.0076  0.6622
 9617TIP3    H250343   0.938   3.654  11.851  2.6261 -0.3674 -1.1472
 9618TIP3   OH250344   5.439   4.381   4.229  0.3595  0.8006  0.6059
 9618TIP3    H150345   5.433   4.286   4.226 -0.1541  0.7917  1.3880
 9618TIP3    H250346   5.506   4.399   4.295  0.8948  0.9805  0.0176
 9619TIP3   OH250347   1.501   6.462  12.098  0.2570  0.6209 -0.3343
 9619TIP3    H150348   1.497   6.530  12.166  0.2135  1.8047 -1.4716
 9619TIP3    H250349   1.578   6.486  12.045  0.4974 -0.4775 -0.4918
 9620TIP3   OH250350   4.124   6.821  11.037 -0.0398 -0.0825 -0.0416
 9620TIP3    H150351   4.203   6.875  11.028  0.6399 -0.8318  1.2926
 9620TIP3    H250352   4.151   6.734  11.007 -0.6289 -0.1383 -0.4310
 9621TIP3   OH250353   0.793   1.107  15.395  0.3354 -0.2487 -0.5838
 9621TIP3    H150354   0.714   1.116  15.449  1.6186  0.8181  1.2448
 9621TIP3    H250355   0.771   1.040  15.331 -1.3624 -1.4464  1.1399
 9622TIP3   OH250356   2.286   2.450   4.306  0.0673  0.2985  0.0192
 9622TIP3    H150357   2.256   2.525   4.357 -1.9109 -0.4465  0.0415
 9622TIP3    H250358   2.362   2.417   4.356 -1.0290  0.3491  1.8246
 9623TIP3   OH250359   4.059   6.495  13.162 -0.6049  0.0267 -0.4718
 9623TIP3    H150360   4.057   6.589  13.147  0.3198 -0.0240 -0.9931
 9623TIP3    H250361   4.085   6.457  13.078 -1.0062 -0.6975 -0.2810
 9624TIP3   OH250362   5.034   5.466  14.868 -0.1127 -0.4084 -0.4343
 9624TIP3    H150363   5.031   5.397  14.935  1.0863  0.5674  0.6835
 9624TIP3    H250364   4.944   5.474  14.838 -0.5400 -1.4172  0.4962
 9625TIP3   OH250365   5.163   1.730   1.394  0.6658  0.3244  0.4654
 9625TIP3    H150366   5.243   1.690   1.428  1.0191  1.9917  1.7057
 9625TIP3    H250367   5.102   1.656   1.384  2.1863 -0.9089 -0.1081
 9626TIP3   OH250368   0.813   0.164   2.923 -0.5722 -0.2902 -0.0067
 9626TIP3    H150369   0.863   0.229   2.972 -1.8674 -0.6386  1.8587
 9626TIP3    H250370   0.842   0.080   2.958  0.2606 -0.7113 -1.6082
 9627TIP3   OH250371   1.463   0.845  14.078 -0.6817 -0.1157 -0.0944
 9627TIP3    H150372   1.521   0.915  14.109  0.9588 -2.1357  1.6940
 9627TIP3    H250373   1.467   0.852  13.982  0.1427  1.6520  0.0330
 9628TIP3   OH250374   4.750   6.546   6.540 -0.4669 -0.6569  0.8250
 9628TIP3    H150375   4.728   6.458   6.571 -0.3126 -1.3493 -0.8880
 9628TIP3    H250376   4.844   6.543   6.524 -0.7255 -0.7634 -0.8580
 9629TIP3   OH250377   1.486   2.626   3.856  0.2555  0.2744 -0.1228
 9629TIP3    H150378   1.405   2.577   3.846  1.0394 -0.9607 -0.6380
 9629TIP3    H250379   1.461   2.704   3.906 -1.2661  0.0144 -0.4283
 9630TIP3   OH250380   6.086   4.293  16.041  0.3020 -0.0813 -0.6343
 9630TIP3    H150381   5.997   4.321  16.059  0.7096 -0.0794  1.5857
 9630TIP3    H250382   6.082   4.254  15.953 -1.9009 -0.2617 -0.4908
 9631TIP3   OH250383   1.628   5.157   1.110 -0.1819  0.2393  0.0215
 9631TIP3    H150384   1.685   5.223   1.070  0.5289 -0.9696 -1.0422
 9631TIP3    H250385   1.560   5.142   1.045  0.2545 -0.8171 -0.2115
 9632TIP3   OH250386   4.290   5.273   1.690  0.2757  0.1771  0.4455
 9632TIP3    H150387   4.344   5.294   1.614  0.6127  2.5134  1.2631
 9632TIP3    H250388   4.201   5.272   1.656  0.5382 -0.4117 -0.2689
 9633TIP3   OH250389   1.942   1.588  17.071  0.1422 -0.6132  0.3810
 9633TIP3    H150390   2.025   1.543  17.054  0.0666 -1.3823  1.8777
 9633TIP3    H250391   1.968   1.668  17.117  0.0411 -1.3820  1.8534
 9634TIP3   OH250392   6.725   5.005   3.652 -0.1040 -0.8627  0.6504
 9634TIP3    H150393   6.676   4.971   3.727  0.2060 -1.5064  0.5712
 9634TIP3    H250394   6.759   4.926   3.608  0.7573 -0.4440  0.5433
 9635TIP3   OH250395   5.541   0.050   4.095  0.3345 -0.3621  0.3793
 9635TIP3    H150396   5.568   0.001   4.017 -2.0212 -1.2067  0.0306
 9635TIP3    H250397   5.476  -0.006   4.137  0.0371  1.0059  1.8324
 9636TIP3   OH250398   3.196   1.006   5.088 -0.7400 -0.0226 -0.1750
 9636TIP3    H150399   3.127   0.944   5.067 -2.8689  2.2746 -0.4434
 9636TIP3    H250400   3.203   1.062   5.011  3.5688 -1.8342 -1.3897
 9637TIP3   OH250401   2.996   2.970   5.505  0.3099  0.1406  0.8833
 9637TIP3    H150402   2.925   3.031   5.484 -1.6864 -2.1502  0.5302
 9637TIP3    H250403   3.075   3.012   5.470 -0.5673  3.3812  2.4035
 9638TIP3   OH250404   0.111   5.472   1.708 -0.0641 -0.3502 -0.3526
 9638TIP3    H150405   0.194   5.437   1.677  0.3361 -1.6251  1.9292
 9638TIP3    H250406   0.045   5.413   1.670  0.2570 -0.7268 -0.3298
 9639TIP3   OH250407   3.433   3.991  14.179  0.0327  0.2844 -0.1325
 9639TIP3    H150408   3.462   3.998  14.088 -0.5050 -1.5123 -0.4829
 9639TIP3    H250409   3.498   4.042  14.229  2.5152 -1.6854 -1.1330
 9640TIP3   OH250410   1.234   5.767  13.241  0.5977  1.2013 -0.3158
 9640TIP3    H150411   1.227   5.821  13.320 -2.5488 -2.2297  2.1226
 9640TIP3    H250412   1.160   5.795  13.187 -0.8178 -0.1538  0.7894
 9641TIP3   OH250413   4.853   6.500  15.019  0.4465  0.3910 -0.3766
 9641TIP3    H150414   4.843   6.545  14.935 -2.1613 -0.6950 -0.7448
 9641TIP3    H250415   4.860   6.407  14.995  2.0509  0.2355  0.5410
 9642TIP3   OH250416   2.660   0.203   0.732 -0.5064  0.2805 -0.3059
 9642TIP3    H150417   2.683   0.287   0.772  2.5085 -1.6149  2.4048
 9642TIP3    H250418   2.628   0.150   0.805 -0.0270 -1.6628 -1.4573
 9643TIP3   OH250419   1.478   4.789   2.571  0.0153  0.8253 -0.4239
 9643TIP3    H150420   1.428   4.708   2.562  1.5910 -0.3219  0.6371
 9643TIP3    H250421   1.456   4.840   2.493  0.1461 -1.2915 -1.9278
 9644TIP3   OH250422   0.492   5.406   3.725 -0.2045  0.2394  0.1458
 9644TIP3    H150423   0.505   5.398   3.820  3.1021 -2.5993 -0.3513
 9644TIP3    H250424   0.404   5.372   3.710 -0.2191 -0.7073  2.0750
 9645TIP3   OH250425   3.383   1.178   2.532 -0.0776 -0.1754  0.2322
 9645TIP3    H150426   3.357   1.128   2.610 -0.7909  0.6285  0.5305
 9645TIP3    H250427   3.452   1.125   2.492  0.2154 -0.6728  1.3390
 9646TIP3   OH250428   6.666   3.746   4.540 -0.1057 -0.1406 -0.2889
 9646TIP3    H150429   6.588   3.762   4.488  0.0805  1.9084 -0.0300
 9646TIP3    H250430   6.736   3.791   4.493  0.2723  0.8284  1.1387
 9647TIP3   OH250431   3.647   1.956  16.856 -0.2467  0.1600 -0.3759
 9647TIP3    H150432   3.638   1.964  16.951  0.5653  1.6533 -0.3934
 9647TIP3    H250433   3.723   1.898  16.844 -0.7972 -0.6284 -0.1415
 9648TIP3   OH250434   1.648   1.378   6.542  0.4761  0.3371  0.4291
 9648TIP3    H150435   1.596   1.451   6.575  0.1796  1.2594 -1.8707
 9648TIP3    H250436   1.731   1.383   6.589 -0.4462  0.5968  2.0889
 9649TIP3   OH250437   3.967   5.103  14.180 -0.2056  0.2205 -0.2871
 9649TIP3    H150438   3.987   5.050  14.257  0.4817  1.2422  0.2481
 9649TIP3    H250439   3.968   5.040  14.108 -0.0234 -0.6036  0.4112
 9650TIP3   OH250440   4.761   5.532   0.469  0.1059 -0.3598  0.4093
 9650TIP3    H150441   4.846   5.564   0.500 -0.0270 -1.1200  1.6247
 9650TIP3    H250442   4.701   5.605   0.486  0.4090 -0.0212  0.0476
 9651TIP3   OH250443   0.014   2.403   0.652 -0.8786 -0.1653 -0.0352
 9651TIP3    H150444   0.018   2.499   0.655 -1.0866 -0.0790 -1.5349
 9651TIP3    H250445   0.036   2.375   0.741 -0.2999  1.2570  0.2978
 9652TIP3   OH250446   6.266   0.008  12.586 -0.3702  0.2370 -0.1269
 9652TIP3    H150447   6.329   0.043  12.523  0.3534 -0.6864  0.0569
 9652TIP3    H250448   6.267  -0.087  12.571 -2.2063  0.2445 -0.5533
 9653TIP3   OH250449   0.079   3.652   2.185 -0.2532 -0.8636  0.3588
 9653TIP3    H150450   0.008   3.676   2.126  1.1530 -1.2212 -1.5630
 9653TIP3    H250451   0.038   3.595   2.250 -1.5885 -1.6990 -1.1551
 9654TIP3   OH250452   3.648   4.059   4.953  0.2450 -0.3344  0.5332
 9654TIP3    H150453   3.733   4.016   4.947 -0.4178 -1.5883 -0.1578
 9654TIP3    H250454   3.661   4.145   4.914  0.9911 -0.8298 -0.3218
 9655TIP3   OH250455   4.634   0.181  14.841 -0.0150 -0.2315  0.7367
 9655TIP3    H150456   4.540   0.198  14.852  0.0700  1.8523 -1.0171
 9655TIP3    H250457   4.664   0.156  14.929 -2.1087 -0.5012  1.4335
 9656TIP3   OH250458   0.188   1.145   4.445  0.2980  0.4395 -0.7191
 9656TIP3    H150459   0.227   1.230   4.464 -0.0813  1.2530 -3.2090
 9656TIP3    H250460   0.094   1.162   4.441  0.1495 -0.2738 -0.4628
 9657TIP3   OH250461   4.513   4.178  15.746  0.4911 -0.4619 -0.0532
 9657TIP3    H150462   4.519   4.224  15.662 -2.1071 -0.8016 -0.4975
 9657TIP3    H250463   4.476   4.092  15.724  0.4811 -0.8486  1.3695
 9658TIP3   OH250464   2.574   4.550   0.393  0.7161 -0.4055 -0.4504
 9658TIP3    H150465   2.596   4.616   0.327 -0.8224  0.5705 -0.0433
 9658TIP3    H250466   2.623   4.577   0.471  1.6174 -0.8874 -0.8371
 9659TIP3   OH250467   4.734   3.095   2.930  0.1926 -0.0350  0.1219
 9659TIP3    H150468   4.790   3.072   2.856  0.0855 -0.0763  0.0540
 9659TIP3    H250469   4.783   3.066   3.007 -0.0163 -0.6440  0.0273
 9660TIP3   OH250470   5.637   1.304   0.271 -0.0214 -0.1873  0.0548
 9660TIP3    H150471   5.561   1.287   0.216  1.2794 -1.4038 -1.4650
 9660TIP3    H250472   5.601   1.313   0.359 -2.1610  1.7132 -0.9259
 9661TIP3   OH250473   0.365   1.868   3.952  0.3610 -0.1665 -0.0358
 9661TIP3    H150474   0.413   1.935   3.904  0.6903  0.4133  1.0653
 9661TIP3    H250475   0.276   1.902   3.959  0.8129  0.7697  1.5860
 9662TIP3   OH250476   6.775   4.539  13.185 -0.2036  0.0924  0.5353
 9662TIP3    H150477   6.680   4.527  13.190 -0.1846  0.3083  1.7072
 9662TIP3    H250478   6.795   4.603  13.253  0.5951  1.2748 -0.7702
 9663TIP3   OH250479   0.943   3.300   5.077  0.6472  0.0280  0.1442
 9663TIP3    H150480   1.009   3.306   5.146 -0.1418  0.1029  0.9029
 9663TIP3    H250481   0.882   3.372   5.095 -0.2626 -0.7156  0.1266
 9664TIP3   OH250482   5.301   2.949  14.765  0.3670  0.8359  0.5113
 9664TIP3    H150483   5.378   2.904  14.799 -0.0383 -1.1213 -0.9333
 9664TIP3    H250484   5.230   2.885  14.773 -0.3438  1.3253 -1.2253
 9665TIP3   OH250485   2.575   5.614  16.398  0.1706 -0.0381  0.3534
 9665TIP3    H150486   2.551   5.572  16.315 -4.4246  2.1214  0.2537
 9665TIP3    H250487   2.637   5.683  16.373  0.0281 -0.3943 -1.0537
 9666TIP3   OH250488   2.816   2.108  10.477 -0.4735 -0.0552 -0.6416
 9666TIP3    H150489   2.779   2.149  10.555  0.2907 -1.1920  0.3401
 9666TIP3    H250490   2.869   2.177  10.436 -1.3782  0.7284 -0.5114
 9667TIP3   OH250491   3.633   0.609  16.595 -0.1065 -0.4119 -0.4249
 9667TIP3    H150492   3.591   0.662  16.527 -1.0382  0.0563  0.4822
 9667TIP3    H250493   3.560   0.578  16.649  0.6373 -0.4476  0.5912
 9668TIP3   OH250494   6.802   0.555  10.725 -0.3531  0.4527  0.1693
 9668TIP3    H150495   6.850   0.574  10.644 -0.5205  1.1290  0.2266
 9668TIP3    H250496   6.850   0.483  10.765  0.7600  1.2672  0.3401
 9669TIP3   OH250497   6.656   2.722  13.141 -0.4739  0.0067  0.6005
 9669TIP3    H150498   6.699   2.775  13.208 -0.0332  1.1677 -0.5633
 9669TIP3    H250499   6.725   2.706  13.076 -1.8104  2.3867 -1.5946
 9670TIP3   OH250500   3.926   2.700   1.195  0.1835 -0.2509 -0.4073
 9670TIP3    H150501   4.008   2.651   1.200  0.0615 -0.3371  1.5745
 9670TIP3    H250502   3.858   2.633   1.190  0.0935 -0.2941  0.9810
 9671TIP3   OH250503   0.425   1.875  12.812  0.4531 -0.2225  0.0496
 9671TIP3    H150504   0.388   1.887  12.725 -0.7007  1.9745  0.7829
 9671TIP3    H250505   0.520   1.879  12.799  0.3780 -1.6485 -1.2829
 9672TIP3   OH250506   4.008   0.475   4.984  0.1531  0.4636 -0.0234
 9672TIP3    H150507   3.955   0.541   4.939 -0.1016 -0.3101 -0.8987
 9672TIP3    H250508   4.045   0.422   4.914  0.8204  0.0233  0.6427
 9673TIP3   OH250509   1.347   3.202   2.429  0.1066 -0.4299 -0.3576
 9673TIP3    H150510   1.339   3.142   2.503 -0.9927 -0.0594 -0.1623
 9673TIP3    H250511   1.296   3.160   2.359  0.4677 -0.3857 -0.6505
 9674TIP3   OH250512   5.494   6.309   0.669 -0.4599 -0.0165 -0.6574
 9674TIP3    H150513   5.575   6.258   0.670 -1.2323 -1.2745  0.3643
 9674TIP3    H250514   5.488   6.346   0.757 -1.7469 -1.2209 -0.1975
 9675TIP3   OH250515   0.175   1.930  13.449 -0.1524  0.3652  0.3886
 9675TIP3    H150516   0.212   1.844  13.427 -1.5690  0.1956 -1.6199
 9675TIP3    H250517   0.221   1.956  13.528  1.5713 -1.4528  0.0705
 9676TIP3   OH250518   0.016   3.315   5.106 -0.6262  0.0364 -0.3092
 9676TIP3    H150519   0.018   3.273   5.020 -0.1856  0.2028 -0.3811
 9676TIP3    H250520  -0.021   3.402   5.088 -0.8318 -0.0437 -0.2783
 9677TIP3   OH250521   0.858   2.293  15.829 -0.1469 -0.2819  0.2353
 9677TIP3    H150522   0.860   2.243  15.747 -4.2775 -1.0038  0.3137
 9677TIP3    H250523   0.886   2.230  15.896  0.8596 -0.4543 -0.3317
 9678TIP3   OH250524   0.782   5.768   2.777  0.1659 -0.1550 -0.4249
 9678TIP3    H150525   0.825   5.799   2.857 -0.4826 -1.0125  0.2857
 9678TIP3    H250526   0.841   5.793   2.706  0.4615  1.1665  0.2605
 9679TIP3   OH250527   1.050   1.540  14.609  0.2316 -0.4599 -0.2193
 9679TIP3    H150528   1.008   1.458  14.636 -1.0002  0.3446  0.3647
 9679TIP3    H250529   1.069   1.527  14.516 -0.9723 -1.0065 -0.4157
 9680TIP3   OH250530   0.043   4.350   0.807  0.1141  0.3954  0.6392
 9680TIP3    H150531   0.043   4.262   0.844 -0.7577 -0.6756 -1.7265
 9680TIP3    H250532   0.115   4.350   0.744 -0.7099  0.9042 -0.3374
 9681TIP3   OH250533   3.881   5.883   3.645 -0.3441  0.3246  0.0488
 9681TIP3    H150534   3.933   5.820   3.596 -0.7063  0.9855 -1.2271
 9681TIP3    H250535   3.943   5.924   3.705  0.0247 -0.7878  0.4558
 9682TIP3   OH250536   0.832   0.651   3.950  0.7120  0.1194 -0.7694
 9682TIP3    H150537   0.747   0.616   3.977  0.9920 -1.3505 -1.6644
 9682TIP3    H250538   0.814   0.743   3.930 -0.4726  0.0552 -0.1091
 9683TIP3   OH250539   2.350   2.311   4.618  0.2591  0.2375 -0.1497
 9683TIP3    H150540   2.402   2.257   4.677  1.4031  3.2089  1.8341
 9683TIP3    H250541   2.415   2.350   4.558 -0.0703  1.5280  0.2973
 9684TIP3   OH250542   2.223   2.265   3.536  0.9174 -0.5754  0.1973
 9684TIP3    H150543   2.280   2.339   3.517 -1.0566  0.8576 -0.4399
 9684TIP3    H250544   2.272   2.213   3.600  2.3206  1.3103  0.7465
 9685TIP3   OH250545   1.155   6.004   5.599  0.0879  0.1254 -0.3803
 9685TIP3    H150546   1.107   6.083   5.574 -1.0643 -0.7377 -0.9822
 9685TIP3    H250547   1.139   5.995   5.693  1.2955  1.2954 -0.0361
 9686TIP3   OH250548   5.206   1.014  15.196  0.1860  0.0539 -0.0005
 9686TIP3    H150549   5.146   1.016  15.271 -1.0822  0.4220 -1.0019
 9686TIP3    H250550   5.247   1.100  15.196 -0.4413  0.3522 -0.2339
 9687TIP3   OH250551   1.151   2.359   2.277  0.4267  0.0141 -0.1409
 9687TIP3    H150552   1.192   2.360   2.363  2.1302 -0.7087 -0.9047
 9687TIP3    H250553   1.075   2.417   2.286  0.6538  0.0689  1.7842
 9688TIP3   OH250554   1.003   3.355  13.196  0.3600  0.3485  0.2817
 9688TIP3    H150555   0.911   3.372  13.220  0.6881  0.9420  1.2090
 9688TIP3    H250556   1.016   3.263  13.217  0.4791  0.7191  1.9894
 9689TIP3   OH250557   0.608   6.527   5.972 -0.7235  0.5338 -0.0917
 9689TIP3    H150558   0.575   6.612   6.002 -0.9088  0.4124  0.0502
 9689TIP3    H250559   0.539   6.465   5.995 -0.3302  0.2515  0.3484
 9690TIP3   OH250560   5.146   3.463   3.595  0.1007 -0.1610  0.4389
 9690TIP3    H150561   5.140   3.466   3.691  0.4818 -1.6951  0.5273
 9690TIP3    H250562   5.209   3.532   3.573 -0.1184  0.3204  1.2656
 9691TIP3   OH250563   0.902   3.901  16.996  0.3902 -0.8538 -0.3237
 9691TIP3    H150564   0.861   3.923  16.912 -1.3916  0.5570  0.8399
 9691TIP3    H250565   0.969   3.969  17.008  0.0942 -0.5721 -0.2448
 9692TIP3   OH250566   4.809   5.077  17.151 -0.3844 -0.2193 -0.8387
 9692TIP3    H150567   4.825   5.134  17.076 -1.4639  0.9894 -0.1711
 9692TIP3    H250568   4.796   5.136  17.225  0.5130 -1.3784  0.3094
 9693TIP3   OH250569   5.506   4.530   5.040 -0.6740 -0.4163 -0.6359
 9693TIP3    H150570   5.551   4.611   5.066  0.6044 -0.7691 -1.6603
 9693TIP3    H250571   5.432   4.524   5.101 -0.8740  1.5786 -0.6111
 9694TIP3   OH250572   5.937   1.611  16.600 -0.1871  0.2760 -0.1816
 9694TIP3    H150573   5.912   1.519  16.599 -0.9698  0.4862 -1.3878
 9694TIP3    H250574   5.976   1.624  16.687 -2.6180 -0.5030  1.1211
 9695TIP3   OH250575   0.324   1.401  10.174  0.4876  0.1889 -0.0199
 9695TIP3    H150576   0.316   1.317  10.131 -1.5647 -0.3815  1.3028
 9695TIP3    H250577   0.411   1.433  10.151  1.1026 -2.0371 -0.9683
 9696TIP3   OH250578   4.997   3.271   3.047  0.4764  0.2466  0.5075
 9696TIP3    H150579   5.040   3.246   2.965 -0.2327 -0.4408  0.3360
 9696TIP3    H250580   5.028   3.207   3.111 -1.3745 -1.1816  0.0579
 9697TIP3   OH250581   1.129   0.035  11.788 -0.4295 -0.1527 -0.1567
 9697TIP3    H150582   1.108  -0.007  11.871  1.1341  0.3790  0.5644
 9697TIP3    H250583   1.223   0.017  11.776 -0.3060  1.0032 -1.0701
 9698TIP3   OH250584   1.274   3.571   4.882 -0.6217 -0.1218  0.2804
 9698TIP3    H150585   1.364   3.539   4.870 -1.1022 -1.1980 -0.6503
 9698TIP3    H250586   1.219   3.506   4.837 -1.8052  1.0269  0.0022
 9699TIP3   OH250587   0.962   0.078  11.584 -0.1982 -0.2529  0.1980
 9699TIP3    H150588   1.014   0.044  11.658 -0.7873  2.8059  2.1739
 9699TIP3    H250589   1.023   0.132  11.535 -0.0672 -1.5009 -1.0891
 9700TIP3   OH250590   1.097   2.175   6.412  0.0027 -0.1712 -0.4612
 9700TIP3    H150591   1.009   2.178   6.450 -0.1090  0.7746 -0.7681
 9700TIP3    H250592   1.095   2.099   6.353 -0.0544 -1.2050  0.8257
 9701TIP3   OH250593   4.681   5.097  14.658 -0.3447  0.5912  0.3677
 9701TIP3    H150594   4.737   5.174  14.648 -1.0899  1.1726  0.6028
 9701TIP3    H250595   4.737   5.024  14.631  0.3818  1.2029  0.1608
 9702TIP3   OH250596   3.916   0.811   6.283 -0.6317 -0.1379  0.9827
 9702TIP3    H150597   3.941   0.755   6.357 -0.6335 -1.7975 -0.1954
 9702TIP3    H250598   3.912   0.899   6.319  0.5305 -0.7283  2.6770
 9703TIP3   OH250599   5.056   1.078  14.106 -0.0196  0.0736 -0.4562
 9703TIP3    H150600   5.043   1.155  14.162 -1.0390  0.1160 -0.7420
 9703TIP3    H250601   5.079   1.115  14.020  1.3552  0.0114 -0.1381
 9704TIP3   OH250602   3.205   6.628   5.123 -0.0526  0.5665 -0.2417
 9704TIP3    H150603   3.231   6.633   5.215  0.2096  1.6645 -0.3544
 9704TIP3    H250604   3.148   6.551   5.118  2.5548 -1.5369  0.1580
 9705TIP3   OH250605   4.547   0.835  13.190 -0.3186 -0.2084  0.2671
 9705TIP3    H150606   4.528   0.741  13.199  0.3127 -0.2391  1.3928
 9705TIP3    H250607   4.570   0.845  13.097  0.5492 -1.3573  0.3305
 9706TIP3   OH250608   6.249   5.411  12.316  0.2200 -0.4418 -0.4225
 9706TIP3    H150609   6.319   5.349  12.334  1.7727  1.0218 -1.1435
 9706TIP3    H250610   6.253   5.424  12.221  0.7218  1.6082 -0.1633
 9707TIP3   OH250611   4.711   4.272  11.904 -0.0784 -0.4948  0.2129
 9707TIP3    H150612   4.756   4.346  11.944 -0.8251 -0.0439  0.2349
 9707TIP3    H250613   4.779   4.227  11.853 -0.2441  1.9488 -2.3339
 9708TIP3   OH250614   3.504   4.691   3.956  0.2389  0.5895  0.1649
 9708TIP3    H150615   3.485   4.616   4.012 -3.6840 -1.1202 -2.9931
 9708TIP3    H250616   3.450   4.762   3.991  0.2639  0.4988  0.3899
 9709TIP3   OH250617   0.945   6.653   4.857  0.3966  0.3672 -0.0846
 9709TIP3    H150618   1.006   6.637   4.786 -0.1349  1.5403 -0.8345
 9709TIP3    H250619   0.876   6.706   4.818 -0.0682  0.7715  1.2269
 9710TIP3   OH250620   4.741   4.385  15.194  0.0548 -0.1186 -0.1000
 9710TIP3    H150621   4.791   4.344  15.265 -3.0948  2.2375  3.9745
 9710TIP3    H250622   4.660   4.333  15.190 -0.5135  0.7841 -0.7249
 9711TIP3   OH250623   6.138   6.649   1.351  0.3556  0.3463  0.0394
 9711TIP3    H150624   6.182   6.670   1.433  0.1836 -0.2589  0.2923
 9711TIP3    H250625   6.173   6.563   1.327 -1.2232 -0.4809  0.6220
 9712TIP3   OH250626   0.619   4.297   5.877 -0.2062 -0.0958  0.1035
 9712TIP3    H150627   0.630   4.209   5.912 -1.3998 -0.0634  0.6047
 9712TIP3    H250628   0.697   4.311   5.824 -0.2222 -1.6492 -0.3933
 9713TIP3   OH250629   3.801   1.677  12.447 -0.2135  0.1997  0.0622
 9713TIP3    H150630   3.893   1.701  12.439 -0.1743  0.2581  0.6649
 9713TIP3    H250631   3.765   1.692  12.359  0.4329 -0.2029 -0.2751
 9714TIP3   OH250632   6.363   0.696   4.309  0.0653  0.2369 -0.1962
 9714TIP3    H150633   6.430   0.628   4.316  0.1819  0.3106 -0.6264
 9714TIP3    H250634   6.364   0.723   4.218 -0.4269  0.3675 -0.1683
 9715TIP3   OH250635   5.087   5.234   4.902 -0.3681 -0.0068 -0.8637
 9715TIP3    H150636   5.165   5.211   4.851 -0.5387 -1.2605 -0.5894
 9715TIP3    H250637   5.055   5.150   4.936 -0.6393  0.7222  0.7727
 9716TIP3   OH250638   1.690   1.762  16.846 -0.0747 -0.0010  0.0053
 9716TIP3    H150639   1.698   1.711  16.927 -1.8563  0.7394  0.6774
 9716TIP3    H250640   1.737   1.843  16.864  0.1905 -0.1499  0.0005
 9717TIP3   OH250641   6.189   0.258   2.980 -0.7647 -0.2847  0.3182
 9717TIP3    H150642   6.149   0.275   2.894 -1.7257 -0.2098  0.7618
 9717TIP3    H250643   6.228   0.342   3.005 -0.7118 -0.2354  0.0760
 9718TIP3   OH250644   2.045   6.736   5.509 -0.1305  0.2027 -0.1493
 9718TIP3    H150645   2.122   6.785   5.480  0.5092 -1.3156 -1.1427
 9718TIP3    H250646   2.073   6.696   5.592 -0.0485  0.1220 -0.2154
 9719TIP3   OH250647   3.917   6.066  11.976  0.3566 -0.6097 -0.8607
 9719TIP3    H150648   3.857   6.136  11.952  0.2194 -0.2487  0.4219
 9719TIP3    H250649   3.957   6.038  11.894  2.1421  2.5456 -1.2366
 9720TIP3   OH250650   2.804   3.943  11.523 -0.2302  0.3250  0.2846
 9720TIP3    H150651   2.863   3.973  11.454 -0.8071  0.4812 -0.1447
 9720TIP3    H250652   2.842   3.978  11.604 -0.4396  1.5251 -0.1208
 9721TIP3   OH250653   3.277   5.857   2.205  0.4776 -0.4643  0.0598
 9721TIP3    H150654   3.303   5.909   2.281  0.0707  0.2946 -0.3040
 9721TIP3    H250655   3.189   5.826   2.226  0.2816 -0.0790 -0.1847
 9722TIP3   OH250656   3.064   4.119   5.711 -0.0119  0.5856  0.6752
 9722TIP3    H150657   3.074   4.212   5.728  0.5796  0.7179 -0.3193
 9722TIP3    H250658   3.124   4.101   5.638 -2.0419 -0.0145 -0.9539
 9723TIP3   OH250659   2.629   4.663   0.882  0.2185 -0.0264 -0.3273
 9723TIP3    H150660   2.702   4.633   0.829 -0.4688 -0.0886 -1.2804
 9723TIP3    H250661   2.563   4.691   0.817 -1.6517 -2.4196  0.3861
 9724TIP3   OH250662   5.054   3.352  12.317  0.3448  0.4442  0.6857
 9724TIP3    H150663   5.068   3.443  12.292 -0.3749  0.2495 -0.4940
 9724TIP3    H250664   5.129   3.331  12.373  0.9598  1.5076  0.2887
 9725TIP3   OH250665   6.281   5.542   5.284 -0.0580  0.0092 -0.0860
 9725TIP3    H150666   6.227   5.579   5.214  0.1978 -0.8208 -0.7450
 9725TIP3    H250667   6.222   5.484   5.332 -0.3348  0.8762  0.6442
 9726TIP3   OH250668   6.263   3.202  12.884  0.1061  0.3420  0.3503
 9726TIP3    H150669   6.290   3.193  12.975  1.1114 -0.5397 -0.0224
 9726TIP3    H250670   6.334   3.250  12.842  0.2959 -0.4401 -0.2531
 9727TIP3   OH250671   0.513   3.319  13.602 -0.1663 -0.1632 -0.0384
 9727TIP3    H150672   0.539   3.411  13.598 -0.4308  0.0072  1.5196
 9727TIP3    H250673   0.431   3.315  13.553 -1.7023  1.0740  2.2162
 9728TIP3   OH250674   0.722   5.084  14.210 -0.4105 -0.8618  0.1542
 9728TIP3    H150675   0.639   5.037  14.201  0.2962 -2.5948  1.8324
 9728TIP3    H250676   0.724   5.112  14.302  0.7098 -0.5751  0.0627
 9729TIP3   OH250677   4.355   1.385   0.893 -0.0627 -0.1972  0.7101
 9729TIP3    H150678   4.331   1.406   0.803 -0.6671 -1.6945  0.4958
 9729TIP3    H250679   4.343   1.467   0.941  1.3077  0.9192 -0.7352
 9730TIP3   OH250680   0.288   3.166   1.054  0.6765  0.4478 -0.1696
 9730TIP3    H150681   0.323   3.170   0.965  1.8764 -0.0617  0.2590
 9730TIP3    H250682   0.293   3.073   1.077  0.7992  0.6402  0.5894
 9731TIP3   OH250683   5.747   0.765  16.748 -0.5377  0.1481 -0.3854
 9731TIP3    H150684   5.674   0.722  16.702 -0.7956  0.7254 -0.5230
 9731TIP3    H250685   5.759   0.713  16.827  1.0433 -1.9234 -1.8676
 9732TIP3   OH250686   3.534   2.965  16.955 -0.0931 -0.3243 -0.6561
 9732TIP3    H150687   3.525   2.987  17.048 -0.5293 -0.4560 -0.6644
 9732TIP3    H250688   3.613   3.011  16.927 -2.0039  2.8918 -1.1928
 9733TIP3   OH250689   2.250   3.630  16.218  0.2645  0.0206  0.3634
 9733TIP3    H150690   2.211   3.710  16.182  1.1616  0.3679  0.1256
 9733TIP3    H250691   2.333   3.620  16.171  0.0046 -1.2535  0.1459
 9734TIP3   OH250692   0.334   1.348   4.811  0.6138 -0.4938  0.4507
 9734TIP3    H150693   0.376   1.369   4.894  1.8719 -0.6605 -0.1184
 9734TIP3    H250694   0.371   1.263   4.786  0.6880 -0.1867 -0.5417
 9735TIP3   OH250695   5.927   3.841   1.242 -0.1050 -0.1752  0.0968
 9735TIP3    H150696   5.989   3.895   1.290  0.0977 -0.9042  0.6820
 9735TIP3    H250697   5.861   3.817   1.306  0.2501 -1.2847  0.0706
 9736TIP3   OH250698   1.979   4.932   0.827  0.5176 -0.2355  0.9685
 9736TIP3    H150699   2.016   4.870   0.764  2.4567  3.2636 -1.7178
 9736TIP3    H250700   1.885   4.923   0.818  0.7292 -2.6219  0.5754
 9737TIP3   OH250701   0.348   2.309  16.621  0.0277 -0.1975  0.2494
 9737TIP3    H150702   0.311   2.253  16.689  0.3731 -0.3585  0.3064
 9737TIP3    H250703   0.427   2.344  16.659 -0.7490  1.2124  0.6111
 9738TIP3   OH250704   5.752   2.171  11.782 -0.2031  0.0010  0.3650
 9738TIP3    H150705   5.846   2.156  11.787 -0.2828 -1.0292 -0.8223
 9738TIP3    H250706   5.730   2.211  11.867  1.3386  0.6197  0.5145
 9739TIP3   OH250707   3.173   6.379  15.500  0.5391  0.5396  0.0960
 9739TIP3    H150708   3.192   6.336  15.417 -0.2465 -0.3095  0.3320
 9739TIP3    H250709   3.083   6.353  15.520  1.1369 -0.3124  1.8288
 9740TIP3   OH250710   0.742   0.637   4.970  0.5151  0.0431  0.1906
 9740TIP3    H150711   0.809   0.705   4.965 -0.0165  0.5565  0.0136
 9740TIP3    H250712   0.659   0.684   4.975  0.0399 -0.5928 -1.2328
 9741TIP3   OH250713   6.029   3.165  10.317  0.0466  0.1969 -0.1288
 9741TIP3    H150714   6.009   3.249  10.276 -2.1710 -0.0770  0.2761
 9741TIP3    H250715   6.036   3.185  10.410 -1.0780 -0.1345  0.0381
 9742TIP3   OH250716   5.653   3.906  14.063  0.1809  0.0753 -0.0652
 9742TIP3    H150717   5.723   3.856  14.021  1.4776  0.7685  1.1652
 9742TIP3    H250718   5.582   3.842  14.075  0.8090 -0.7908 -0.8339
 9743TIP3   OH250719   2.460   6.596   2.776 -0.6982 -0.0670 -0.1692
 9743TIP3    H150720   2.492   6.635   2.694 -2.2481 -1.8968 -1.7151
 9743TIP3    H250721   2.469   6.502   2.763 -1.7425 -0.4227  1.4595
 9744TIP3   OH250722   1.892   3.912   4.999 -0.1512  0.0271 -0.2766
 9744TIP3    H150723   1.919   3.877   4.914 -0.2012 -1.0092  0.1266
 9744TIP3    H250724   1.800   3.936   4.986  0.1605  0.9584 -0.8424
 9745TIP3   OH250725   3.127   0.295  13.415  0.5159 -0.0286  0.7269
 9745TIP3    H150726   3.054   0.252  13.369  0.7511  1.1351 -0.7940
 9745TIP3    H250727   3.205   0.251  13.382  0.7272  1.2268 -0.5009
 9746TIP3   OH250728   6.014   3.955  13.734 -0.0629  0.3096 -0.8647
 9746TIP3    H150729   6.000   3.865  13.705 -0.3090 -0.0914  0.4164
 9746TIP3    H250730   5.940   4.003  13.698 -1.6382 -0.6261  0.9000
 9747TIP3   OH250731   1.338   2.176  14.237  0.2467 -0.1343  0.3420
 9747TIP3    H150732   1.288   2.148  14.161  0.4208 -0.2522  0.2706
 9747TIP3    H250733   1.361   2.267  14.218  0.7520 -0.3282  0.0079
 9748TIP3   OH250734   3.081   3.491   2.845  0.0588  0.1930  0.0176
 9748TIP3    H150735   3.088   3.540   2.763 -0.9610  0.1390 -0.1135
 9748TIP3    H250736   3.091   3.400   2.820 -3.2019 -0.1217 -0.5494
 9749TIP3   OH250737   2.596   3.867  16.459 -0.1227 -0.4979  0.3983
 9749TIP3    H150738   2.508   3.831  16.463 -0.8556  1.0409 -0.8565
 9749TIP3    H250739   2.588   3.956  16.495  1.2697 -0.8822  1.7947
 9750TIP3   OH250740   3.550   4.674  17.122 -0.0906  0.1183  0.4260
 9750TIP3    H150741   3.596   4.652  17.041 -1.3270  0.3778 -0.3629
 9750TIP3    H250742   3.605   4.741  17.163 -0.0413  0.8314 -0.7725
 9751TIP3   OH250743   1.772   5.910   2.226 -0.6388 -0.6964  0.3175
 9751TIP3    H150744   1.688   5.953   2.209 -0.2194 -0.2631 -0.7623
 9751TIP3    H250745   1.764   5.825   2.184 -1.3685 -1.6304  2.2236
 9752TIP3   OH250746   1.267   5.651  14.076 -0.2659 -0.1224  0.1001
 9752TIP3    H150747   1.215   5.574  14.099 -0.4116 -0.5768 -1.6295
 9752TIP3    H250748   1.207   5.724  14.084 -0.6568 -0.4204 -0.0932
 9753TIP3   OH250749   3.828   3.965   0.267 -0.6022 -0.2556 -0.0627
 9753TIP3    H150750   3.824   4.011   0.183 -0.6331 -2.5509 -1.4225
 9753TIP3    H250751   3.920   3.967   0.292 -0.5937  0.4493 -0.1458
 9754TIP3   OH250752   4.684   6.271  16.218  0.3938 -0.2229  0.0634
 9754TIP3    H150753   4.766   6.318  16.230  1.6734 -1.9366 -1.3633
 9754TIP3    H250754   4.707   6.179  16.231 -0.9833 -0.8608 -1.6076
 9755TIP3   OH250755   2.920   6.108   2.810  0.2374  0.3792 -0.2737
 9755TIP3    H150756   2.922   6.192   2.764  1.0319  0.3027 -0.3965
 9755TIP3    H250757   2.973   6.123   2.888  1.4160 -0.3501 -0.9100
 9756TIP3   OH250758   4.219   4.214   2.540  0.2329 -0.4961 -0.5125
 9756TIP3    H150759   4.238   4.157   2.614 -2.5012 -1.1568 -0.2314
 9756TIP3    H250760   4.132   4.187   2.510  0.5693  0.8475 -2.9409
 9757TIP3   OH250761   1.952   2.272   0.533  0.1558 -0.0889 -0.4291
 9757TIP3    H150762   1.861   2.293   0.515  0.0431 -0.0575  0.1454
 9757TIP3    H250763   1.980   2.218   0.459 -1.2105 -2.5853  0.7327
 9758TIP3   OH250764   0.730   2.258   4.849 -0.7546  0.1293 -0.0180
 9758TIP3    H150765   0.635   2.267   4.852 -1.0519 -1.3729 -2.2092
 9758TIP3    H250766   0.757   2.315   4.777 -0.1881 -0.5092 -0.3227
 9759TIP3   OH250767   3.933   4.504   0.116 -0.0250  0.0828  0.4724
 9759TIP3    H150768   3.980   4.465   0.190  0.6674  0.9215  0.4973
 9759TIP3    H250769   3.887   4.579   0.154  0.5584  0.6830  0.0118
 9760TIP3   OH250770   0.367   5.289   1.052 -0.6715 -0.0381 -0.0264
 9760TIP3    H150771   0.460   5.281   1.032 -0.8329  0.8900 -1.2297
 9760TIP3    H250772   0.359   5.375   1.092 -1.1855  0.4362 -1.1080
 9761TIP3   OH250773   3.269   5.060  13.573 -0.2389  0.7271 -0.2695
 9761TIP3    H150774   3.309   4.975  13.555  0.3417  0.7826  0.7295
 9761TIP3    H250775   3.230   5.085  13.489 -2.1312 -1.3959 -0.1226
 9762TIP3   OH250776   2.139   0.934   3.699  0.1320 -0.1328  0.1453
 9762TIP3    H150777   2.191   0.858   3.724  0.3441  0.2177  0.7702
 9762TIP3    H250778   2.113   0.916   3.608  2.0057  0.0400 -0.4749
 9763TIP3   OH250779   1.035   1.029   5.666 -0.0864  0.4695 -0.1799
 9763TIP3    H150780   1.100   0.961   5.653 -0.6243 -0.2449  0.7464
 9763TIP3    H250781   1.075   1.088   5.731  0.4736  1.1922 -1.1505
 9764TIP3   OH250782   0.736   6.423   2.826  0.6505  0.1333 -0.0371
 9764TIP3    H150783   0.667   6.389   2.883 -0.3436 -0.3752 -1.4636
 9764TIP3    H250784   0.736   6.518   2.842 -0.1606  0.0957  0.2228
 9765TIP3   OH250785   3.263   6.323  15.886  0.3191  0.5767  0.2744
 9765TIP3    H150786   3.194   6.375  15.846  0.3695  1.5428  1.3963
 9765TIP3    H250787   3.344   6.361  15.851  0.3628 -1.7528 -2.5423
 9766TIP3   OH250788   5.182   2.295   1.558 -0.1307  0.2701 -0.3660
 9766TIP3    H150789   5.208   2.375   1.512 -1.7972  1.2128  0.2415
 9766TIP3    H250790   5.249   2.231   1.533  1.5770  1.9703 -0.4228
 9767TIP3   OH250791   5.665   2.675  13.391 -0.3086 -1.3816 -0.6892
 9767TIP3    H150792   5.619   2.640  13.468  1.4045 -1.3483  0.4156
 9767TIP3    H250793   5.678   2.599  13.334 -0.8548 -1.5782 -0.5543
 9768TIP3   OH250794   6.687   5.707  12.349  0.3155 -0.4095  0.5134
 9768TIP3    H150795   6.770   5.743  12.379  0.5737  0.5812 -1.2479
 9768TIP3    H250796   6.647   5.670  12.427  1.8024  0.2914  1.6512
 9769TIP3   OH250797   0.367   4.404  17.043  0.1924  0.0266 -0.2065
 9769TIP3    H150798   0.326   4.344  17.106  1.4938 -1.0367 -0.3221
 9769TIP3    H250799   0.293   4.450  17.003 -0.7924 -0.7313  0.6509
 9770TIP3   OH250800   4.254   0.826   4.405 -0.0827 -0.0898 -0.1897
 9770TIP3    H150801   4.207   0.891   4.352  0.0953  0.9208  0.8596
 9770TIP3    H250802   4.192   0.803   4.474  0.8216  1.0420  1.0422
 9771TIP3   OH250803   0.021   1.773   2.432  0.2662  0.1008  0.1803
 9771TIP3    H150804  -0.033   1.804   2.505  0.9612  0.6182  0.4872
 9771TIP3    H250805   0.085   1.843   2.418  0.2882 -0.0925 -0.7804
 9772TIP3   OH250806   2.731   6.561  13.617 -0.4067  0.5142 -0.5354
 9772TIP3    H150807   2.642   6.596  13.605  0.0001  1.9095  0.2649
 9772TIP3    H250808   2.773   6.574  13.532 -0.9412 -0.0992 -0.9016
 9773TIP3   OH250809   3.765   6.075  11.551 -0.0054 -0.5535  0.4231
 9773TIP3    H150810   3.803   6.031  11.627  0.0888  1.3213  1.5249
 9773TIP3    H250811   3.695   6.130  11.587  1.2432  1.8228 -0.5235
 9774TIP3   OH250812   5.359   0.720   2.911 -0.8406 -0.6835  0.5802
 9774TIP3    H150813   5.453   0.728   2.929 -0.5701  0.2919 -1.0603
 9774TIP3    H250814   5.353   0.655   2.842 -1.6094 -2.3123  2.0876
 9775TIP3   OH250815   0.115   3.451   1.009  0.0180 -0.1018  0.6021
 9775TIP3    H150816   0.137   3.364   1.043 -1.0961 -0.1292  1.3278
 9775TIP3    H250817   0.108   3.506   1.087 -0.2248  0.4106  0.2263
 9776TIP3   OH250818   5.639   0.894  15.085 -0.1508  0.2256  0.1269
 9776TIP3    H150819   5.656   0.841  15.163 -1.9064 -0.9509 -0.2151
 9776TIP3    H250820   5.556   0.859  15.050 -1.2312  2.9770 -0.3391
 9777TIP3   OH250821   0.326   1.393  13.244 -0.1272  0.2173  0.6212
 9777TIP3    H150822   0.239   1.382  13.205  0.9640 -0.7721 -1.7296
 9777TIP3    H250823   0.334   1.486  13.261 -1.0705  0.5493 -0.6389
 9778TIP3   OH250824   1.458   4.199   3.427  0.0695  0.3829  0.2979
 9778TIP3    H150825   1.375   4.222   3.385 -1.6128  0.6191  3.4201
 9778TIP3    H250826   1.492   4.282   3.459  0.1233 -0.0305  1.3394
 9779TIP3   OH250827   2.194   6.402  13.575 -0.2018 -0.0402  0.2507
 9779TIP3    H150828   2.242   6.481  13.550  1.0533 -1.1326 -0.9674
 9779TIP3    H250829   2.223   6.384  13.665  0.0507  0.4934  0.2800
 9780TIP3   OH250830   2.645   2.527   0.384 -0.2318 -0.0863 -0.0907
 9780TIP3    H150831   2.721   2.584   0.374 -1.4997  1.6096 -0.4897
 9780TIP3    H250832   2.660   2.456   0.321  0.9834  0.2467 -0.2013
 9781TIP3   OH250833   5.844   1.098  11.218  0.1316  0.3560  0.0789
 9781TIP3    H150834   5.844   1.122  11.310  0.6296  0.6021  0.0236
 9781TIP3    H250835   5.927   1.051  11.205  0.5069  1.1226 -0.4275
 9782TIP3   OH250836   5.520   6.786  14.723  0.7360  0.1607  0.5443
 9782TIP3    H150837   5.425   6.780  14.713  0.8165 -0.4040  0.0555
 9782TIP3    H250838   5.540   6.879  14.712  0.2584  0.2635  0.5232
 9783TIP3   OH250839   5.631   4.258  12.928  0.4590  0.5504  0.2288
 9783TIP3    H150840   5.620   4.163  12.930 -0.4059  0.6412  1.4479
 9783TIP3    H250841   5.639   4.280  12.836  1.0669 -0.7488 -0.0452
 9784TIP3   OH250842   0.438   1.111   4.283  0.4341 -0.4487  0.1301
 9784TIP3    H150843   0.377   1.096   4.211  0.9138 -0.4844 -0.2775
 9784TIP3    H250844   0.382   1.123   4.360 -0.0827 -0.4339 -0.2411
 9785TIP3   OH250845   6.343   5.469   6.451 -0.0736  0.1850 -0.0292
 9785TIP3    H150846   6.397   5.394   6.476 -1.7080 -1.4476 -1.1148
 9785TIP3    H250847   6.254   5.434   6.446 -0.5389  1.4877 -3.1571
 9786TIP3   OH250848   3.589   3.677   5.173 -0.0174 -0.2104 -0.4959
 9786TIP3    H150849   3.592   3.629   5.090  1.9450  0.2978 -0.7771
 9786TIP3    H250850   3.525   3.746   5.159 -0.8746 -1.0899 -1.0223
 9787TIP3   OH250851   6.181   1.716   4.541 -0.0172 -0.0009 -0.5495
 9787TIP3    H150852   6.151   1.803   4.514 -0.2385  0.1072  0.0304
 9787TIP3    H250853   6.118   1.689   4.608  0.3846 -0.3609 -0.3157
 9788TIP3   OH250854   3.940   5.151  16.397 -0.1585  0.1311  0.4013
 9788TIP3    H150855   4.003   5.222  16.401  0.2937 -0.0172 -2.2830
 9788TIP3    H250856   3.855   5.194  16.389  0.0352  0.3928 -0.3361
 9789TIP3   OH250857   4.848   3.839  14.597 -0.7406  0.1099  0.5445
 9789TIP3    H150858   4.770   3.793  14.629 -0.4083 -1.5260 -0.8272
 9789TIP3    H250859   4.814   3.908  14.540 -1.2355  1.3290  2.2356
 9790TIP3   OH250860   6.635   4.655   5.092  0.3791  0.5101 -0.0158
 9790TIP3    H150861   6.586   4.692   5.166  1.7682  2.5002  0.0030
 9790TIP3    H250862   6.726   4.657   5.121  0.8256  0.1780 -1.3216
 9791TIP3   OH250863   1.064   0.760   2.018 -0.7075  0.5493 -0.2701
 9791TIP3    H150864   0.992   0.798   1.968 -2.3772 -0.7516  1.0186
 9791TIP3    H250865   1.048   0.665   2.014  2.3396 -0.0022 -1.9588
 9792TIP3   OH250866   3.854   0.394   5.709  0.9766 -0.6024 -0.1097
 9792TIP3    H150867   3.882   0.469   5.656  0.3984  2.1398  3.1047
 9792TIP3    H250868   3.934   0.359   5.747  1.1212 -0.6440 -0.4541
 9793TIP3   OH250869   4.995   4.340   4.800 -0.4817 -0.7407  0.6175
 9793TIP3    H150870   4.953   4.320   4.717 -1.3378  0.4610  0.7412
 9793TIP3    H250871   5.066   4.400   4.777 -1.2116  0.2261  0.8155
 9794TIP3   OH250872   1.231   5.913   4.229 -0.6901  0.4223 -0.4506
 9794TIP3    H150873   1.305   5.972   4.214 -0.6703  0.2757 -0.9607
 9794TIP3    H250874   1.217   5.870   4.144  0.0312 -1.1643  0.2037
 9795TIP3   OH250875   4.249   4.814   0.296  0.5401  0.2696 -0.1512
 9795TIP3    H150876   4.175   4.820   0.235 -1.0276 -0.1141  1.6303
 9795TIP3    H250877   4.248   4.898   0.342  0.9297  0.0831  0.2018
 9796TIP3   OH250878   4.212   3.924   1.927  0.2700  0.1399 -0.1562
 9796TIP3    H150879   4.308   3.929   1.922  0.2936 -0.9853 -1.2753
 9796TIP3    H250880   4.189   3.988   1.995  1.8740 -0.2349  0.8068
 9797TIP3   OH250881   1.566   2.879   1.377  0.1512  0.6013  0.0128
 9797TIP3    H150882   1.475   2.906   1.382 -0.0536 -0.2867  1.5746
 9797TIP3    H250883   1.563   2.790   1.341  0.5064  0.9567 -0.9491
 9798TIP3   OH250884   2.908   1.938  12.488 -0.2405 -0.3590 -0.1276
 9798TIP3    H150885   2.971   1.947  12.559 -1.4325  0.7320  0.8376
 9798TIP3    H250886   2.881   1.846  12.491  1.5735 -0.9501 -0.8354
 9799TIP3   OH250887   2.078   5.736   3.034 -0.0616 -0.0820  0.5875
 9799TIP3    H150888   2.049   5.761   3.122  1.0481 -1.3029  1.3438
 9799TIP3    H250889   2.173   5.723   3.043  0.1826  0.4095 -0.9622
 9800TIP3   OH250890   2.065   0.033  16.626  0.0987  0.4656 -0.0245
 9800TIP3    H150891   2.030   0.022  16.715 -0.1460  0.3992 -0.1285
 9800TIP3    H250892   1.988   0.055  16.573  0.3247  1.0246 -0.1253
 9801TIP3   OH250893   2.060   3.920  10.770  0.1645  0.3992  0.6697
 9801TIP3    H150894   2.098   3.877  10.847 -0.3474 -0.6934  0.3315
 9801TIP3    H250895   2.089   4.011  10.777  2.2359 -0.2066  0.8300
 9802TIP3   OH250896   0.035   5.673   6.922 -0.4400  0.1785  0.1319
 9802TIP3    H150897   0.078   5.683   7.006  0.0294  0.6615 -0.1605
 9802TIP3    H250898  -0.056   5.697   6.939 -0.2524  0.7177  0.4079
 9803TIP3   OH250899   0.128   5.447   4.814  0.1019  0.0465 -0.2879
 9803TIP3    H150900   0.180   5.481   4.887  0.1887 -0.8743  0.1013
 9803TIP3    H250901   0.039   5.443   4.849  0.3078 -1.3731  0.1531
 9804TIP3   OH250902   6.439   6.094  14.491 -0.2081  0.1303 -0.3088
 9804TIP3    H150903   6.488   6.013  14.505  1.2725  1.1700  0.8627
 9804TIP3    H250904   6.452   6.144  14.571  0.8261  2.4871 -1.8423
 9805TIP3   OH250905   2.818   5.185  14.965  0.3257  0.0335 -0.3147
 9805TIP3    H150906   2.761   5.122  15.009 -0.1089  0.4000 -0.3456
 9805TIP3    H250907   2.872   5.132  14.906  2.1306 -0.7008  1.8684
 9806TIP3   OH250908   1.730   5.029   1.509 -0.0570 -0.0018 -0.0437
 9806TIP3    H150909   1.810   5.072   1.539 -0.4243  1.1772 -0.7122
 9806TIP3    H250910   1.663   5.097   1.512 -1.5199 -1.4000  2.2813
 9807TIP3   OH250911   2.022   0.838   6.109  0.0299 -0.0110  0.0495
 9807TIP3    H150912   1.991   0.781   6.180  0.6351 -0.2544  0.1222
 9807TIP3    H250913   2.081   0.900   6.152  1.1292 -0.7365 -0.3628
 9808TIP3   OH250914   2.198   6.677  13.928 -0.4399 -0.0545  0.1938
 9808TIP3    H150915   2.109   6.712  13.923 -0.6536 -0.7236 -0.9133
 9808TIP3    H250916   2.251   6.752  13.956 -0.9377  1.1414 -1.8229
 9809TIP3   OH250917   5.273   2.540  14.064 -0.0757 -0.7759  0.5451
 9809TIP3    H150918   5.215   2.477  14.022 -1.0806  0.9735 -0.8615
 9809TIP3    H250919   5.329   2.488  14.121  1.1023 -3.2773 -2.6381
 9810TIP3   OH250920   4.824   5.343  15.878 -0.1513 -0.2875  0.6060
 9810TIP3    H150921   4.784   5.302  15.802  1.0377  0.2219 -0.3224
 9810TIP3    H250922   4.845   5.270  15.937 -1.9240 -0.6026  0.9024
 9811TIP3   OH250923   4.515   0.519   2.380  0.5013  0.1644 -0.7442
 9811TIP3    H150924   4.522   0.597   2.435 -0.7888 -0.5854  0.5477
 9811TIP3    H250925   4.575   0.456   2.420  0.1822 -0.1106 -0.6985
 9812TIP3   OH250926   0.347   1.869  16.061 -0.1113  0.5449 -0.5480
 9812TIP3    H150927   0.369   1.934  16.127 -0.2625  0.2278 -0.1823
 9812TIP3    H250928   0.335   1.919  15.981  0.5769  0.8803 -0.4513
 9813TIP3   OH250929   4.768   3.296   2.062  0.6758  0.2314  0.2105
 9813TIP3    H150930   4.754   3.204   2.083  1.9157  0.1302  0.6986
 9813TIP3    H250931   4.762   3.301   1.967 -0.4284 -0.1551  0.2514
 9814TIP3   OH250932   0.749   0.460   5.875  0.7875  0.7982  0.8112
 9814TIP3    H150933   0.782   0.511   5.949  0.1501  1.2492  0.7911
 9814TIP3    H250934   0.685   0.517   5.832 -0.6742 -0.3630  1.3454
 9815TIP3   OH250935   0.071   6.276   1.752 -0.5496 -0.0481  0.0927
 9815TIP3    H150936  -0.009   6.280   1.700 -0.1723  0.1744 -0.4855
 9815TIP3    H250937   0.048   6.315   1.836 -1.4334 -1.3083  0.4490
 9816TIP3   OH250938   3.409   2.120   4.254  0.2392  0.1335  0.0678
 9816TIP3    H150939   3.429   2.074   4.336  0.8349  0.8548  0.3328
 9816TIP3    H250940   3.470   2.193   4.252 -1.2346  1.4035  0.0486
 9817TIP3   OH250941   1.974   3.533  11.301 -0.1275  0.2971 -0.2553
 9817TIP3    H150942   1.925   3.612  11.277 -1.7406 -0.9093 -1.1774
 9817TIP3    H250943   1.994   3.491  11.217  1.2129  0.0006  0.1968
 9818TIP3   OH250944   2.253   3.752  15.915  0.4114 -0.2574 -0.0105
 9818TIP3    H150945   2.165   3.737  15.881  0.8641  0.7434 -1.7562
 9818TIP3    H250946   2.298   3.669  15.904 -0.1271 -0.5935  0.2969
 9819TIP3   OH250947   3.443   5.467   0.213 -0.8888 -0.9831 -0.1114
 9819TIP3    H150948   3.366   5.505   0.254 -1.0097  1.7390 -2.5893
 9819TIP3    H250949   3.517   5.503   0.262 -1.1035 -0.5578 -0.1000
 9820TIP3   OH250950   4.887   6.598   3.369 -0.0202 -0.2325  0.5398
 9820TIP3    H150951   4.910   6.513   3.406  0.5059  0.2857  1.4202
 9820TIP3    H250952   4.949   6.612   3.298 -0.4540 -0.8181  0.0356
 9821TIP3   OH250953   4.767   3.848   0.818  0.2841 -0.5910 -0.1796
 9821TIP3    H150954   4.759   3.753   0.826  0.1279 -0.5902 -0.3395
 9821TIP3    H250955   4.860   3.866   0.837 -0.0281 -0.6098  1.4660
 9822TIP3   OH250956   6.222   4.471  13.879  0.2105  0.5826  0.3445
 9822TIP3    H150957   6.279   4.438  13.810 -0.4376  0.4075 -0.1194
 9822TIP3    H250958   6.215   4.565  13.862 -1.4095  0.2811 -0.9707
 9823TIP3   OH250959   0.159   3.202   2.867  0.0498  0.4788 -0.2269
 9823TIP3    H150960   0.088   3.171   2.922  0.4728  1.8592  1.1710
 9823TIP3    H250961   0.230   3.140   2.882 -0.0617  0.4722  0.3003
 9824TIP3   OH250962   3.899   4.078   6.264  0.9008  0.4736 -0.7690
 9824TIP3    H150963   3.978   4.027   6.280  0.6367 -0.0267 -1.0380
 9824TIP3    H250964   3.842   4.058   6.338  1.3151  1.4306 -0.1729
 9825TIP3   OH250965   2.656   5.749  14.540 -0.2154  0.1364 -0.1749
 9825TIP3    H150966   2.589   5.802  14.497 -1.3581  1.2470  2.6740
 9825TIP3    H250967   2.614   5.664  14.554 -0.5753  0.4026  0.4152
 9826TIP3   OH250968   0.941   5.534   6.334  0.2985  0.3894 -0.3745
 9826TIP3    H150969   1.027   5.576   6.335 -0.1156  1.2425 -0.2449
 9826TIP3    H250970   0.922   5.523   6.241 -0.0932  1.5427 -0.4403
 9827TIP3   OH250971   3.186   3.801   5.179 -1.1000  0.0678  0.3208
 9827TIP3    H150972   3.226   3.763   5.102 -1.0013 -0.1053  0.4581
 9827TIP3    H250973   3.232   3.884   5.192  0.9780 -1.2490  1.9443
 9828TIP3   OH250974   4.857   6.429   5.813  0.0286 -0.2258  0.1413
 9828TIP3    H150975   4.885   6.507   5.765 -0.5924 -0.2744 -0.3223
 9828TIP3    H250976   4.927   6.412   5.876  1.2720 -0.6268 -1.2880
 9829TIP3   OH250977   5.324   1.878   1.987 -0.3437 -0.5818  0.5449
 9829TIP3    H150978   5.234   1.911   1.992 -0.6466 -1.1628 -0.6282
 9829TIP3    H250979   5.374   1.935   2.045 -1.4217 -0.0947  1.0249
 9830TIP3   OH250980   4.598   6.511  15.214 -0.1825  0.1566  0.1097
 9830TIP3    H150981   4.510   6.537  15.244 -0.0874  0.3886  0.1912
 9830TIP3    H250982   4.628   6.450  15.282 -0.7092 -0.7742 -0.4685
 9831TIP3   OH250983   1.611   1.678  14.632 -0.1472  0.7063 -0.0598
 9831TIP3    H150984   1.645   1.764  14.655  1.6071 -0.4446  2.1252
 9831TIP3    H250985   1.571   1.690  14.546  1.3008  3.3651 -0.4792
 9832TIP3   OH250986   6.813   3.054   5.366 -0.5117 -0.4461 -0.8508
 9832TIP3    H150987   6.852   3.039   5.279  1.2956  0.4377 -0.2429
 9832TIP3    H250988   6.763   3.134   5.356 -1.3781 -1.0326 -1.3792
 9833TIP3   OH250989   2.270   4.860   4.566 -0.5239  0.4822  0.1186
 9833TIP3    H150990   2.356   4.897   4.587 -0.4294  0.5357 -0.3577
 9833TIP3    H250991   2.207   4.927   4.595 -0.3442  1.1792 -1.0573
 9834TIP3   OH250992   2.704   5.332   2.571  0.3270 -0.4095 -1.0304
 9834TIP3    H150993   2.696   5.262   2.635  1.6715  0.5065  0.2119
 9834TIP3    H250994   2.751   5.402   2.617  0.2173  0.7913 -2.6257
 9835TIP3   OH250995   0.183   3.823   1.546 -0.8643 -0.1660  0.1807
 9835TIP3    H150996   0.103   3.875   1.537 -0.4241  0.2853 -1.3465
 9835TIP3    H250997   0.153   3.732   1.537 -0.9532  0.0879 -2.7652
 9836TIP3   OH250998   0.724   0.082  14.073  0.0389 -0.2379 -0.2590
 9836TIP3    H150999   0.713   0.019  14.144  0.4346 -0.8766 -0.7594
 9836TIP3    H251000   0.670   0.048  14.001 -0.0388  0.1889 -0.4083
 9837TIP3   OH251001   0.096   6.514  14.572 -0.1042 -0.0149 -0.0117
 9837TIP3    H151002   0.163   6.558  14.625  0.5262 -0.3209 -0.5316
 9837TIP3    H251003   0.032   6.582  14.552  0.6601  0.5795 -0.4904
 9838TIP3   OH251004   2.318   4.367  12.965 -0.4889  0.0084 -0.1527
 9838TIP3    H151005   2.324   4.292  12.906 -0.9330 -0.4326  0.3502
 9838TIP3    H251006   2.257   4.339  13.033 -0.3670  0.6918  0.2471
 9839TIP3   OH251007   3.491   2.115  14.313 -0.3336 -0.2177 -0.2570
 9839TIP3    H151008   3.529   2.180  14.373  0.0883 -0.2057 -0.5335
 9839TIP3    H251009   3.434   2.062  14.369  1.4531 -1.3844  0.5572
 9840TIP3   OH251010   3.319   2.597  11.153  0.1307 -0.2773  0.4782
 9840TIP3    H151011   3.295   2.683  11.119 -0.1868 -0.4817  0.1815
 9840TIP3    H251012   3.408   2.582  11.120  0.0142 -0.2590  0.1517
 9841TIP3   OH251013   2.083   6.581   2.621  0.1082 -0.3075  0.4593
 9841TIP3    H151014   2.093   6.651   2.556  0.4660  0.5141  1.3727
 9841TIP3    H251015   2.096   6.500   2.571  1.6987  0.3504 -0.2430
 9842TIP3   OH251016   1.611   5.907  12.019 -0.2933 -0.0996  0.7090
 9842TIP3    H151017   1.686   5.942  12.066 -0.6023 -1.1712  2.0626
 9842TIP3    H251018   1.561   5.984  11.992  0.0717  0.5559  1.8540
 9843TIP3   OH251019   5.029   3.217  16.176 -0.7125  0.0155  0.7395
 9843TIP3    H151020   5.122   3.194  16.172 -0.9465 -0.8772  0.0982
 9843TIP3    H251021   5.028   3.313  16.171  0.1230 -0.0076 -0.5209
 9844TIP3   OH251022   2.943   6.000   6.329 -0.9347  0.6783  0.8251
 9844TIP3    H151023   2.865   6.026   6.379 -2.1723 -1.6553  0.2633
 9844TIP3    H251024   2.980   5.928   6.380 -0.6760  0.0465 -0.2409
 9845TIP3   OH251025   0.627   0.767   2.960  0.0335 -0.0552  0.5375
 9845TIP3    H151026   0.704   0.730   2.917  0.2512  0.4907  0.4580
 9845TIP3    H251027   0.637   0.861   2.952 -1.0166  0.0156 -0.1403
 9846TIP3   OH251028   0.052   1.068   0.985  0.3272 -0.0729  0.0932
 9846TIP3    H151029   0.003   1.043   0.907  1.7877 -1.3637 -0.4845
 9846TIP3    H251030   0.126   1.119   0.951  0.1196  0.7201  0.8024
 9847TIP3   OH251031   1.599   5.464   4.926 -0.7580 -0.5590 -0.3376
 9847TIP3    H151032   1.574   5.504   5.009 -1.4553 -0.7076 -0.4726
 9847TIP3    H251033   1.546   5.508   4.860  0.4512  0.2075 -0.8360
 9848TIP3   OH251034   3.845   3.660  15.752 -0.0563 -0.6378  0.6375
 9848TIP3    H151035   3.752   3.642  15.763 -0.5826  1.8487  0.9878
 9848TIP3    H251036   3.878   3.669  15.841  0.1222  0.1873  0.4936
 9849TIP3   OH251037   4.612   2.187  16.632 -0.4920  0.5958  0.0429
 9849TIP3    H151038   4.522   2.170  16.659  0.4790 -1.4671  2.2505
 9849TIP3    H251039   4.640   2.262  16.686 -0.1781 -0.2579  1.0912
 9850TIP3   OH251040   3.535   4.715  11.469 -0.1604  0.6227 -0.4792
 9850TIP3    H151041   3.472   4.662  11.517 -0.2951 -0.3145 -1.6431
 9850TIP3    H251042   3.604   4.734  11.533 -1.3412  1.2127  0.6551
 9851TIP3   OH251043   5.446   1.193   1.670 -0.1905 -0.1304 -0.1299
 9851TIP3    H151044   5.382   1.238   1.724  0.4378  0.1391  0.4049
 9851TIP3    H251045   5.502   1.263   1.636  0.3424 -0.4373  0.1068
 9852TIP3   OH251046   2.387   0.348   5.744  0.0030 -0.1035 -0.1314
 9852TIP3    H151047   2.458   0.286   5.725  1.2854  1.3767 -0.3266
 9852TIP3    H251048   2.371   0.336   5.838 -0.0105 -0.9804 -0.2387
 9853TIP3   OH251049   1.338   3.018   1.565 -0.2378  0.6312  0.2332
 9853TIP3    H151050   1.272   3.085   1.583 -2.4324 -1.4856  0.5991
 9853TIP3    H251051   1.316   2.985   1.478  2.0141  1.6042 -0.7944
 9854TIP3   OH251052   4.005   0.762  12.103 -0.2266  0.0760  0.3702
 9854TIP3    H151053   3.933   0.723  12.053 -0.0130  1.4815 -1.1036
 9854TIP3    H251054   4.048   0.687  12.144 -0.8387 -1.0752 -0.9978
 9855TIP3   OH251055   0.259   1.263  13.694  0.6129  0.3133  0.0674
 9855TIP3    H151056   0.333   1.208  13.719 -0.2219 -1.1675 -0.5785
 9855TIP3    H251057   0.246   1.243  13.601  0.7262  2.1639 -0.3730
 9856TIP3   OH251058   0.466   0.537   1.412 -0.6253  0.4038 -0.3168
 9856TIP3    H151059   0.548   0.552   1.365  1.8838 -2.3312  2.6776
 9856TIP3    H251060   0.417   0.475   1.358  0.7042 -0.2574 -0.7928
 9857TIP3   OH251061   2.953   3.945  12.110 -0.2372  0.3351 -0.2044
 9857TIP3    H151062   2.861   3.967  12.123  0.0628  0.7201  1.5018
 9857TIP3    H251063   2.957   3.850  12.118 -0.0702  0.5307  3.0664
 9858TIP3   OH251064   4.349   2.568   2.260 -0.2759 -0.3260  0.4496
 9858TIP3    H151065   4.409   2.576   2.334  1.8421  1.3761 -1.3053
 9858TIP3    H251066   4.297   2.648   2.263 -1.6866 -1.2355  1.2567
 9859TIP3   OH251067   5.551   0.633   4.068 -0.2228 -0.0752  0.3917
 9859TIP3    H151068   5.499   0.587   4.134  0.9041  0.9808  2.1056
 9859TIP3    H251069   5.566   0.568   4.000 -2.0390 -1.0049  0.8183
 9860TIP3   OH251070   3.247   3.085   1.707 -0.6832  0.4930  0.0337
 9860TIP3    H151071   3.170   3.106   1.654  0.1102  1.2121 -0.8674
 9860TIP3    H251072   3.252   2.989   1.705  0.1814  0.5108 -2.5291
 9861TIP3   OH251073   4.632   4.450  17.118 -0.4713  0.1242  0.0098
 9861TIP3    H151074   4.675   4.510  17.178  0.5739  0.0354 -0.6304
 9861TIP3    H251075   4.620   4.501  17.037  1.9371 -0.9561 -1.1194
 9862TIP3   OH251076   5.388   1.079   3.840 -0.3130  0.2213 -0.9128
 9862TIP3    H151077   5.444   1.002   3.848 -0.3012  0.3389  0.2738
 9862TIP3    H251078   5.318   1.064   3.902 -0.2094  1.2549 -0.5329
 9863TIP3   OH251079   0.529   6.795   4.982  0.6691  0.2559  0.1230
 9863TIP3    H151080   0.577   6.865   5.027 -0.0592  1.4174 -0.8227
 9863TIP3    H251081   0.440   6.802   5.017  0.2195  0.8400 -1.0824
 9864TIP3   OH251082   4.547   2.102  11.460  0.5616  0.5837 -0.6784
 9864TIP3    H151083   4.544   2.027  11.400 -0.0316  0.3452 -0.3625
 9864TIP3    H251084   4.455   2.128  11.469  0.5564  0.1635  0.6896
 9865TIP3   OH251085   3.551   5.542  16.312 -0.4748  0.2783  0.8562
 9865TIP3    H151086   3.627   5.576  16.266  0.3094 -0.1643  1.7927
 9865TIP3    H251087   3.500   5.496  16.245  0.2387  0.3081  0.2874
 9866TIP3   OH251088   1.682   2.809   5.149  0.7017  0.4889 -0.2175
 9866TIP3    H151089   1.627   2.754   5.094  1.2849 -0.7616  0.3991
 9866TIP3    H251090   1.629   2.828   5.226 -0.5137  3.1213 -1.5688
 9867TIP3   OH251091   4.890   0.242  15.380 -0.4190 -0.5889 -0.1716
 9867TIP3    H151092   4.857   0.156  15.355 -0.8550 -0.4473 -0.0983
 9867TIP3    H251093   4.959   0.261  15.316 -0.1913 -1.0691 -0.0763
 9868TIP3   OH251094   3.398   3.358   5.259  0.0466  0.9820  0.0231
 9868TIP3    H151095   3.436   3.437   5.299  0.2321  1.7739 -1.6379
 9868TIP3    H251096   3.473   3.302   5.240  0.0564  1.0443 -0.1234
 9869TIP3   OH251097   2.144   3.071  14.297  0.1128  0.0423 -0.2108
 9869TIP3    H151098   2.086   3.147  14.303 -0.6259 -0.4649 -0.8175
 9869TIP3    H251099   2.219   3.102  14.246 -0.5044  0.1779 -1.0437
 9870TIP3   OH251100   3.325   0.963   2.110  0.1061 -0.6891  0.0668
 9870TIP3    H151101   3.237   1.000   2.102  0.5459  0.2998 -0.3125
 9870TIP3    H251102   3.310   0.875   2.145 -1.0401 -0.5853 -0.1020
 9871TIP3   OH251103   4.175   3.152   2.569 -0.4038 -1.2071  0.2598
 9871TIP3    H151104   4.109   3.086   2.587 -2.1564  0.4246  0.1725
 9871TIP3    H251105   4.207   3.180   2.655 -1.5191 -0.4180  0.4393
 9872TIP3   OH251106   4.344   6.756  13.639  0.2290 -0.1176  0.5884
 9872TIP3    H151107   4.360   6.849  13.654 -0.5881  1.1425 -4.5125
 9872TIP3    H251108   4.264   6.738  13.688  1.2157  1.3418  2.9177
 9873TIP3   OH251109   0.580   2.300  15.087 -0.0338  0.5737  0.5743
 9873TIP3    H151110   0.660   2.286  15.037  1.1037  2.5415  1.7065
 9873TIP3    H251111   0.511   2.260  15.034  1.7371 -1.8223 -0.1181
 9874TIP3   OH251112   4.290   5.012  13.466  0.8801 -0.4828 -0.3711
 9874TIP3    H151113   4.221   5.076  13.452  1.9750  0.7946 -0.0839
 9874TIP3    H251114   4.259   4.933  13.420  0.2084  0.7141 -2.0840
 9875TIP3   OH251115   4.007   4.882   0.454  0.0442 -0.4884  0.2745
 9875TIP3    H151116   3.945   4.890   0.525 -1.1097  0.7335 -0.8032
 9875TIP3    H251117   3.999   4.965   0.406  3.2868  0.2082  0.6915
 9876TIP3   OH251118   3.027   0.291   1.059 -0.2447  0.4131  0.3785
 9876TIP3    H151119   3.034   0.375   1.014  2.4393 -0.1652 -0.4801
 9876TIP3    H251120   2.933   0.278   1.071 -0.8331  2.6531 -1.1126
 9877TIP3   OH251121   0.451   5.620   3.193 -0.0066  0.1869 -0.3985
 9877TIP3    H151122   0.479   5.569   3.116 -0.1285  0.2210 -0.4657
 9877TIP3    H251123   0.505   5.586   3.264 -0.4696 -0.4192 -0.3341
 9878TIP3   OH251124   6.150   4.555  11.743  0.1739 -0.3492  0.7174
 9878TIP3    H151125   6.076   4.495  11.750 -0.6547  0.1299 -2.2500
 9878TIP3    H251126   6.227   4.500  11.751 -0.5752 -1.8014 -1.2600
 9879TIP3   OH251127   1.910   1.706  12.779 -0.6860 -0.4284  0.6019
 9879TIP3    H151128   1.864   1.776  12.734 -0.3653 -1.3147 -1.2232
 9879TIP3    H251129   2.000   1.711  12.745 -0.3849 -1.0516  1.2696
 9880TIP3   OH251130   3.791   5.048  13.344  1.0537 -0.0420  0.1665
 9880TIP3    H151131   3.725   5.104  13.383 -0.0285 -0.4431 -1.0244
 9880TIP3    H251132   3.850   5.026  13.417 -0.9648 -0.9179  1.6433
 9881TIP3   OH251133   6.070   3.839  10.931 -0.1333  0.0332 -0.3258
 9881TIP3    H151134   5.981   3.872  10.933 -0.2306 -0.2538  0.7436
 9881TIP3    H251135   6.125   3.917  10.939 -0.3395  0.0735  0.9552
 9882TIP3   OH251136   0.749   3.462   3.711  0.1672  0.2288 -0.5022
 9882TIP3    H151137   0.830   3.442   3.757  0.8299  1.0652 -1.2814
 9882TIP3    H251138   0.681   3.417   3.762  0.6722  2.1828  2.0837
 9883TIP3   OH251139   2.293   0.845  16.736  0.9294 -0.1175  0.1245
 9883TIP3    H151140   2.320   0.753  16.741  0.2767 -0.3554 -0.6214
 9883TIP3    H251141   2.341   0.880  16.660 -0.0928 -0.2885 -0.6147
 9884TIP3   OH251142   4.923   0.358   2.620 -0.0992 -0.3175 -0.2387
 9884TIP3    H151143   4.956   0.398   2.700  0.8004 -1.4211 -0.0358
 9884TIP3    H251144   4.898   0.432   2.565 -0.5811  0.4663  0.9830
 9885TIP3   OH251145   4.225   3.125  12.644 -0.0248  0.7415 -0.0980
 9885TIP3    H151146   4.285   3.108  12.571  0.7083 -0.0270  0.6632
 9885TIP3    H251147   4.275   3.181  12.703 -0.5641  1.2372 -0.0956
 9886TIP3   OH251148   1.323   2.135   1.197  0.5097  0.0709  0.3783
 9886TIP3    H151149   1.254   2.113   1.134 -0.5797  0.9729  1.2165
 9886TIP3    H251150   1.303   2.224   1.224  1.4233 -0.0213  1.4076
 9887TIP3   OH251151   1.124   5.538  14.615  0.0578  0.1663  0.3005
 9887TIP3    H151152   1.048   5.583  14.578  0.3212  0.5284  0.1962
 9887TIP3    H251153   1.198   5.566  14.561  0.4076  0.4940  0.9342
 9888TIP3   OH251154   0.049   4.854   2.941  0.0487  0.3183  0.0437
 9888TIP3    H151155   0.102   4.931   2.960 -0.4929  0.7325 -0.0980
 9888TIP3    H251156   0.037   4.855   2.847 -0.7580  0.6015  0.1422
 9889TIP3   OH251157   5.917   1.332   1.413  0.1666  0.2149  0.1786
 9889TIP3    H151158   5.925   1.337   1.317  2.6015  1.6147  0.3700
 9889TIP3    H251159   5.958   1.249   1.436  0.1618  0.1727  0.0369
 9890TIP3   OH251160   2.268   5.442   3.206  0.4434 -0.1158  0.5489
 9890TIP3    H151161   2.296   5.419   3.295  0.1443  0.0660  0.6909
 9890TIP3    H251162   2.208   5.372   3.181 -0.5068  0.5023  1.0002
 9891TIP3   OH251163   5.963   0.616  14.120  0.0889 -0.1108  0.0313
 9891TIP3    H151164   5.941   0.538  14.070  0.6883 -1.8632  2.3404
 9891TIP3    H251165   5.880   0.646  14.157 -0.0083 -0.1850 -0.1287
 9892TIP3   OH251166   3.168   2.166   5.534 -0.4373  0.4047 -0.0094
 9892TIP3    H151167   3.215   2.244   5.564  1.8881 -1.1320  0.6587
 9892TIP3    H251168   3.086   2.166   5.583  0.7818  0.9644  2.1333
 9893TIP3   OH251169   0.501   5.678   5.144  0.0976 -0.3327  0.0519
 9893TIP3    H151170   0.543   5.748   5.095 -0.5038  0.3721  0.5227
 9893TIP3    H251171   0.423   5.656   5.093 -1.7251  1.8961  1.6996
 9894TIP3   OH251172   1.401   5.359   2.698  0.1799  0.7149  0.3792
 9894TIP3    H151173   1.462   5.357   2.771  0.3258  0.3939  0.2481
 9894TIP3    H251174   1.317   5.332   2.736  0.1863  0.8554  0.4941
 9895TIP3   OH251175   2.412   0.388  12.392  0.3356 -0.2337  0.9522
 9895TIP3    H151176   2.333   0.340  12.419  0.9224 -2.3135 -0.7241
 9895TIP3    H251177   2.482   0.324  12.398  1.1098  0.2477 -1.6739
 9896TIP3   OH251178   2.393   1.994  14.091 -0.0153  0.0009 -0.3089
 9896TIP3    H151179   2.445   2.040  14.157 -0.3762 -0.2618  0.1693
 9896TIP3    H251180   2.451   1.925  14.059 -0.5282 -1.2213  1.2697
 9897TIP3   OH251181   2.564   6.559   4.687  0.0161  0.2944 -0.2419
 9897TIP3    H151182   2.656   6.586   4.684  0.2171 -0.2984  0.3947
 9897TIP3    H251183   2.549   6.515   4.604  0.2559  0.5700 -0.4314
 9898TIP3   OH251184   1.454   2.927  12.574 -0.0367 -0.1872  0.3802
 9898TIP3    H151185   1.532   2.979  12.591  1.6012 -2.4457  0.2968
 9898TIP3    H251186   1.399   2.982  12.519  1.9702  1.1076 -0.4367
 9899TIP3   OH251187   0.075   3.064   3.581 -0.0933 -0.0174 -0.7148
 9899TIP3    H151188   0.092   3.157   3.562 -0.3269  0.2610  0.3683
 9899TIP3    H251189   0.091   3.055   3.675 -2.2455 -0.5366 -0.3238
 9900TIP3   OH251190   6.673   4.869  14.439 -0.4526 -0.6259 -0.2029
 9900TIP3    H151191   6.612   4.929  14.482 -0.3735 -1.0117  0.4638
 9900TIP3    H251192   6.647   4.782  14.469  0.2391 -0.8178 -0.1274
 9901TIP3   OH251193   3.333   2.691   4.203 -0.1664 -0.2427 -0.2675
 9901TIP3    H151194   3.251   2.684   4.154 -1.5940  0.7178  1.8572
 9901TIP3    H251195   3.313   2.655   4.289  2.0689 -1.2657 -0.1037
 9902TIP3   OH251196   4.998   5.651  13.893  0.5257 -0.5768  0.1752
 9902TIP3    H151197   4.951   5.696  13.823 -0.5981 -0.0402  1.2315
 9902TIP3    H251198   5.072   5.610  13.849  0.2506  0.3224 -1.2101
 9903TIP3   OH251199   1.453   6.299   6.014 -0.3851  1.1576 -0.4262
 9903TIP3    H151200   1.532   6.353   6.015  0.4429 -0.0112 -0.7466
 9903TIP3    H251201   1.462   6.240   6.089 -1.1840  1.3198 -0.1882
 9904TIP3   OH251202   1.802   3.843  13.290 -0.1403  0.1098  0.8847
 9904TIP3    H151203   1.721   3.870  13.246  1.4332  0.8148 -1.7888
 9904TIP3    H251204   1.825   3.918  13.345  0.9668  1.8724 -1.7962
 9905TIP3   OH251205   0.025   4.162   3.704 -0.2092  0.9055  0.3910
 9905TIP3    H151206  -0.015   4.164   3.617  0.5816  0.9239  0.0164
 9905TIP3    H251207   0.057   4.072   3.713 -0.6150  0.8021  0.8199
 9906TIP3   OH251208   2.554   6.104   1.713 -0.0662 -0.2487  0.6686
 9906TIP3    H151209   2.573   6.196   1.733 -3.2036  0.7814 -0.4846
 9906TIP3    H251210   2.587   6.056   1.789  0.1712  2.0159  2.0988
 9907TIP3   OH251211   2.392   6.560   4.260  0.1194  0.0426  0.3378
 9907TIP3    H151212   2.333   6.596   4.326  1.3614  3.5665 -0.2491
 9907TIP3    H251213   2.461   6.517   4.312 -0.6930 -0.2638  1.1919
 9908TIP3   OH251214   6.099   5.573  14.033 -0.4220  0.1977  0.3657
 9908TIP3    H151215   6.180   5.618  14.056 -0.7419  0.9746  0.0026
 9908TIP3    H251216   6.093   5.501  14.096  0.2122  0.5199  0.8056
 9909TIP3   OH251217   4.220   4.438   5.097 -0.0277  0.0944  0.5449
 9909TIP3    H151218   4.293   4.388   5.061  0.8703  1.7339  0.0132
 9909TIP3    H251219   4.159   4.371   5.130  0.6598 -1.3692 -1.0201
 9910TIP3   OH251220   1.124   6.597  16.462 -0.0384 -0.3316  0.5973
 9910TIP3    H151221   1.192   6.605  16.529  0.5758 -0.8961  0.0595
 9910TIP3    H251222   1.042   6.607  16.510  0.4237  1.1199  1.1483
 9911TIP3   OH251223   0.668   3.944  15.732 -0.4544 -0.0140 -0.5308
 9911TIP3    H151224   0.756   3.982  15.738 -0.6688  0.4462 -0.1920
 9911TIP3    H251225   0.645   3.923  15.823 -0.8807  0.3068 -0.5628
 9912TIP3   OH251226   2.957   1.074   6.204 -0.1626 -0.0472  0.2375
 9912TIP3    H151227   3.041   1.032   6.189 -0.3525 -0.1986 -0.4389
 9912TIP3    H251228   2.964   1.112   6.291  0.7834  0.3630 -0.0046
 9913TIP3   OH251229   2.453   1.261  14.003 -0.0157  0.3033  0.3068
 9913TIP3    H151230   2.426   1.190  14.062 -0.1945  0.2225  0.1287
 9913TIP3    H251231   2.545   1.276  14.025  0.6635 -1.4446 -1.0814
 9914TIP3   OH251232   1.060   5.065  14.446 -0.4434 -0.2467  0.0370
 9914TIP3    H151233   1.021   5.030  14.525  0.0108  0.3644  0.5401
 9914TIP3    H251234   1.084   5.155  14.468  1.1917 -0.5761 -0.2527
 9915TIP3   OH251235   3.349   1.056  13.422 -0.0354 -0.0965  0.8202
 9915TIP3    H151236   3.439   1.088  13.426  0.1184 -0.1028 -1.3026
 9915TIP3    H251237   3.304   1.120  13.366 -1.1483 -0.5467  1.1768
 9916TIP3   OH251238   6.230   0.941  14.680  0.4036  0.0513  0.1006
 9916TIP3    H151239   6.314   0.895  14.680  0.3432 -0.0595  0.1640
 9916TIP3    H251240   6.167   0.875  14.710  0.7146  0.8609  2.7901
 9917TIP3   OH251241   5.770   1.333   2.610  0.1932  0.3031 -0.6905
 9917TIP3    H151242   5.830   1.259   2.601  0.6622  0.7907 -1.8086
 9917TIP3    H251243   5.701   1.302   2.669  0.2871 -1.0708 -1.2727
 9918TIP3   OH251244   0.006   6.025  16.821 -0.4107 -1.0427  0.5050
 9918TIP3    H151245  -0.081   6.000  16.790 -0.2626 -0.1448 -0.7216
 9918TIP3    H251246   0.066   5.967  16.774 -0.2789 -0.8364  0.4186
 9919TIP3   OH251247   5.036   4.325   5.527  0.7480 -0.1759  0.0906
 9919TIP3    H151248   4.960   4.280   5.491 -0.5951  0.2142  2.2421
 9919TIP3    H251249   5.109   4.265   5.514 -0.3289 -1.4549 -0.2224
 9920TIP3   OH251250   2.025   4.762   3.759  0.0640  0.4228 -0.0118
 9920TIP3    H151251   1.979   4.749   3.676  0.5075 -0.3066 -0.1558
 9920TIP3    H251252   2.068   4.847   3.750 -1.8767  1.5023  0.4339
 9921TIP3   OH251253   0.969   3.992  12.704 -0.0781  0.1774  0.2590
 9921TIP3    H151254   0.946   3.900  12.695 -1.8827  0.6495 -0.2191
 9921TIP3    H251255   1.033   4.008  12.635 -0.1167 -0.5962  0.0381
 9922TIP3   OH251256   1.826   0.107  16.053  0.1084 -0.2375  0.2296
 9922TIP3    H151257   1.859   0.197  16.045  0.4257 -0.2613  1.1492
 9922TIP3    H251258   1.864   0.060  15.979 -0.1779  0.4155 -0.3437
 9923TIP3   OH251259   5.987   1.213   2.832  0.0540 -0.0751  0.7180
 9923TIP3    H151260   5.930   1.234   2.905  0.6916 -0.4655  1.3392
 9923TIP3    H251261   6.061   1.273   2.841 -0.8245  1.3292 -0.8252
 9924TIP3   OH251262   5.119   6.626  14.851 -0.4993  0.4943  0.3723
 9924TIP3    H151263   5.041   6.678  14.870 -0.1134  1.0203  0.5534
 9924TIP3    H251264   5.147   6.592  14.936 -1.4597 -1.0572  0.0958
 9925TIP3   OH251265   1.369   3.327  11.488 -0.5319  0.0905  0.1458
 9925TIP3    H151266   1.388   3.420  11.496 -2.0091  0.4197  0.2057
 9925TIP3    H251267   1.423   3.285  11.555  0.2867  0.8694 -0.0119
 9926TIP3   OH251268   6.445   2.960   5.176 -0.3487 -0.1176  0.3799
 9926TIP3    H151269   6.453   3.047   5.137  3.3952 -1.0580 -1.4030
 9926TIP3    H251270   6.464   2.973   5.268  0.9859  0.9097 -0.0129
 9927TIP3   OH251271   6.050   5.223   5.112  0.0900  0.2258  0.2386
 9927TIP3    H151272   5.970   5.213   5.061  0.0342 -0.2272  0.4095
 9927TIP3    H251273   6.113   5.166   5.069  0.7942  1.7503 -0.8345
 9928TIP3   OH251274   3.772   5.465   3.042 -0.0385 -0.5751  0.1662
 9928TIP3    H151275   3.845   5.463   2.980  0.3935  1.0688  0.5938
 9928TIP3    H251276   3.777   5.380   3.087  0.2974 -1.3404 -1.2697
 9929TIP3   OH251277   5.571   3.917   0.878 -0.2821 -0.0127  0.4149
 9929TIP3    H151278   5.512   3.901   0.951  1.8042 -0.6999  2.0341
 9929TIP3    H251279   5.520   3.892   0.801 -1.8707 -1.2079  1.7738
 9930TIP3   OH251280   0.091   6.651   1.967  0.0221 -0.0688 -0.6758
 9930TIP3    H151281   0.137   6.645   2.050 -1.5331 -1.1020  0.1725
 9930TIP3    H251282   0.121   6.575   1.917  0.8848  0.5006 -1.0516
 9931TIP3   OH251283   1.174   5.900  14.120 -0.1132 -0.0326 -0.5649
 9931TIP3    H151284   1.097   5.958  14.128  0.6524  1.1255 -1.2357
 9931TIP3    H251285   1.192   5.872  14.209  0.4172  2.0370  0.0280
 9932TIP3   OH251286   4.554   6.737   6.738  0.2473 -0.0594  0.1006
 9932TIP3    H151287   4.466   6.771   6.748 -0.9257 -2.9541  0.8022
 9932TIP3    H251288   4.553   6.691   6.654  1.4202  0.6403 -0.3327
 9933TIP3   OH251289   0.736   0.024  14.851  0.1770 -0.1576 -0.1586
 9933TIP3    H151290   0.682  -0.013  14.921  2.3635  0.6999  2.1292
 9933TIP3    H251291   0.739   0.118  14.871  0.4641  0.1985 -1.7419
 9934TIP3   OH251292   0.528   6.210   4.400 -0.0691 -1.0266 -0.1482
 9934TIP3    H151293   0.497   6.122   4.380 -1.6422 -0.6385  0.4645
 9934TIP3    H251294   0.485   6.233   4.482  3.1117 -1.0385  1.6893
 9935TIP3   OH251295   0.570   4.047   2.198 -0.0458 -0.2058 -0.0332
 9935TIP3    H151296   0.476   4.037   2.184  0.0307 -1.7261  0.3885
 9935TIP3    H251297   0.594   4.124   2.147 -1.5617  0.3593  0.0736
 9936TIP3   OH251298   0.599   5.676   0.397  0.1633 -0.2148 -0.0352
 9936TIP3    H151299   0.663   5.742   0.371 -1.7367  2.4979  1.6356
 9936TIP3    H251300   0.566   5.706   0.481 -2.0429 -2.4427  0.0246
 9937TIP3   OH251301   3.514   0.611   3.135  0.0371  0.4235  0.0920
 9937TIP3    H151302   3.530   0.679   3.069  2.5153 -0.6554 -0.5641
 9937TIP3    H251303   3.572   0.634   3.207  1.3986 -1.2367 -0.3985
 9938TIP3   OH251304   0.814   1.074  14.766 -0.3023 -0.2046  0.6538
 9938TIP3    H151305   0.825   0.979  14.771 -1.7705 -0.4855 -0.5426
 9938TIP3    H251306   0.820   1.104  14.856 -0.3993 -1.5135  1.1161
 9939TIP3   OH251307   1.374   6.564   1.095 -0.1582  0.6510  0.1466
 9939TIP3    H151308   1.300   6.505   1.081 -1.9327  2.4259  1.4561
 9939TIP3    H251309   1.392   6.602   1.009 -1.4649  0.9553 -0.0023
 9940TIP3   OH251310   3.980   4.349  11.089 -0.0042 -0.5167  0.4347
 9940TIP3    H151311   3.956   4.309  11.006  1.8162  0.7466 -0.7675
 9940TIP3    H251312   3.967   4.279  11.154  2.7472 -3.0527 -1.4898
 9941TIP3   OH251313   6.338   0.262  10.800 -0.3407  0.7346 -0.1540
 9941TIP3    H151314   6.415   0.315  10.780 -0.1669  0.1499 -1.1285
 9941TIP3    H251315   6.371   0.193  10.857 -0.3101  0.9463  0.0858
 9942TIP3   OH251316   0.421   6.818   1.760 -0.3675  0.1554  0.2118
 9942TIP3    H151317   0.457   6.834   1.847  0.5871  0.1451 -0.1708
 9942TIP3    H251318   0.339   6.771   1.776 -0.1763  0.1047  1.0949
 9943TIP3   OH251319   0.093   6.419  12.215 -0.4574 -0.5012 -0.3622
 9943TIP3    H151320   0.097   6.351  12.282 -0.5782 -0.5400 -0.3955
 9943TIP3    H251321   0.003   6.416  12.182 -0.3932 -0.4974 -0.5411
 9944TIP3   OH251322   2.116   5.880   5.706 -0.3207 -0.2370 -0.1376
 9944TIP3    H151323   2.151   5.968   5.724  2.1639  0.0754 -4.9556
 9944TIP3    H251324   2.021   5.891   5.711 -0.1528  2.9940 -1.2906
 9945TIP3   OH251325   0.158   4.505  16.398  0.4118 -0.1258 -0.1832
 9945TIP3    H151326   0.219   4.439  16.431  0.6305 -0.8544 -1.9301
 9945TIP3    H251327   0.077   4.458  16.381 -0.6690  0.8231  2.0282
 9946TIP3   OH251328   1.327   4.035   1.197  0.0237  0.0920 -0.0094
 9946TIP3    H151329   1.340   3.961   1.256  1.7194  0.3460 -0.0107
 9946TIP3    H251330   1.251   4.011   1.144 -0.0759 -1.1828  0.6775
 9947TIP3   OH251331   2.450   4.677  10.445 -0.1383  0.0134  0.0804
 9947TIP3    H151332   2.363   4.642  10.462 -0.7475  1.6040  0.4383
 9947TIP3    H251333   2.435   4.748  10.381  0.8581  0.4453  0.3028
 9948TIP3   OH251334   6.363   5.441  14.166 -0.2174 -1.0962 -0.4572
 9948TIP3    H151335   6.343   5.356  14.126  0.4025 -1.1312 -0.6960
 9948TIP3    H251336   6.338   5.430  14.258  0.0503 -1.6122 -0.4412
 9949TIP3   OH251337   0.698   4.078   2.711  0.6091 -0.1526  0.5410
 9949TIP3    H151338   0.670   4.044   2.626  0.7326 -0.0033  0.4408
 9949TIP3    H251339   0.754   4.008   2.746 -0.9466 -1.0463  1.3375
 9950TIP3   OH251340   1.822   3.276   5.153  0.6832 -0.3345 -0.4543
 9950TIP3    H151341   1.857   3.188   5.168 -0.3876 -0.7911 -0.5814
 9950TIP3    H251342   1.752   3.264   5.089  2.8794  1.0827 -3.3577
 9951TIP3   OH251343   5.981   3.782   0.865  0.5724  0.0449  0.0888
 9951TIP3    H151344   6.054   3.798   0.925  1.6469  1.4871 -1.5000
 9951TIP3    H251345   5.991   3.691   0.839 -0.9709 -1.2238  3.3266
 9952TIP3   OH251346   1.773   3.032   5.457  0.2378  0.0439  0.1088
 9952TIP3    H151347   1.717   3.024   5.380  0.4601  0.3335 -0.0861
 9952TIP3    H251348   1.816   3.117   5.446  0.2522  0.0975  0.5650
 9953TIP3   OH251349   1.099   1.681  16.078 -0.1725 -0.6880 -0.1932
 9953TIP3    H151350   1.153   1.610  16.111 -0.9577 -1.4875 -0.5958
 9953TIP3    H251351   1.011   1.644  16.072 -0.8340  0.6661  0.7078
 9954TIP3   OH251352   0.118   3.128   4.488 -0.3642  0.2131  0.4415
 9954TIP3    H151353   0.114   3.041   4.447 -2.7641 -0.1648  1.3193
 9954TIP3    H251354   0.211   3.149   4.490  0.3669 -2.5899  0.6727
 9955TIP3   OH251355   1.958   6.526   1.605 -0.2957 -0.4984  0.0305
 9955TIP3    H151356   1.868   6.555   1.620 -0.9979 -1.7960 -1.4425
 9955TIP3    H251357   1.975   6.462   1.674 -0.1051  0.5329  0.9563
 9956TIP3   OH251358   5.541   4.084  11.479 -0.1971  0.4882  0.4729
 9956TIP3    H151359   5.537   4.002  11.529  1.2829 -1.0022 -1.6713
 9956TIP3    H251360   5.500   4.062  11.395 -1.0261  2.3803  0.3536
 9957TIP3   OH251361   5.374   3.521   0.496  0.2122 -0.1609  0.2855
 9957TIP3    H151362   5.288   3.532   0.535  0.2175  1.2194 -0.0368
 9957TIP3    H251363   5.364   3.549   0.405  0.6768 -1.3923 -0.1764
 9958TIP3   OH251364   0.569   3.700  11.380  0.2372  0.3993  0.1639
 9958TIP3    H151365   0.490   3.729  11.426  1.6228  1.9282  1.7273
 9958TIP3    H251366   0.611   3.781  11.351  1.0905 -0.3973 -0.9298
 9959TIP3   OH251367   3.124   5.698  13.790 -0.0222  0.5385  0.1199
 9959TIP3    H151368   3.037   5.670  13.817 -0.1725  0.7693 -0.1172
 9959TIP3    H251369   3.119   5.794  13.790  0.7605  0.6226  1.8616
 9960TIP3   OH251370   3.500   5.064  15.486  0.1771 -0.0875 -0.3600
 9960TIP3    H151371   3.552   5.104  15.417 -0.3862 -0.7571 -1.1996
 9960TIP3    H251372   3.477   4.977  15.452 -0.1725 -0.4080  0.6411
 9961TIP3   OH251373   4.637   5.113   3.688  0.3407 -0.6036 -0.3115
 9961TIP3    H151374   4.710   5.106   3.627  0.3603 -0.4318 -0.3084
 9961TIP3    H251375   4.561   5.086   3.638 -0.3493  3.2509 -1.7113
 9962TIP3   OH251376   2.781   5.642   5.302  0.9060 -0.4995 -0.5053
 9962TIP3    H151377   2.818   5.720   5.344  1.5406 -0.7332 -0.6272
 9962TIP3    H251378   2.687   5.659   5.301  1.1877  1.8488 -3.6207
 9963TIP3   OH251379   1.551   6.624  11.267  0.5340 -0.2594 -0.2175
 9963TIP3    H151380   1.632   6.636  11.317  0.8494 -1.2955 -0.4509
 9963TIP3    H251381   1.488   6.685  11.307  1.4859  0.7326 -0.1889
 9964TIP3   OH251382   2.300   1.890   5.169  0.0477 -0.0124 -0.4825
 9964TIP3    H151383   2.228   1.830   5.150  0.4560 -0.8632  0.5529
 9964TIP3    H251384   2.279   1.926   5.255  0.7015 -0.0324 -0.3108
 9965TIP3   OH251385   0.762   5.059  12.974  0.1340  0.1221  0.3988
 9965TIP3    H151386   0.681   5.099  12.941 -0.7286 -0.9608  1.1204
 9965TIP3    H251387   0.785   5.112  13.051  0.2296  0.5559  0.0735
 9966TIP3   OH251388   3.201   1.824  11.826  0.6737  0.1326 -0.2663
 9966TIP3    H151389   3.238   1.851  11.910 -0.7583  0.3224  0.3280
 9966TIP3    H251390   3.233   1.890  11.764  0.4887  0.8957  0.4322
 9967TIP3   OH251391   0.868   6.597  15.129  0.1310 -0.0030  0.2051
 9967TIP3    H151392   0.811   6.600  15.205  0.6254  0.0557  0.5806
 9967TIP3    H251393   0.923   6.520  15.142  2.0511  1.4397  1.2808
 9968TIP3   OH251394   5.663   5.706  16.398 -0.3048  0.1140  0.4747
 9968TIP3    H151395   5.568   5.692  16.400 -0.2436 -0.2658  0.8592
 9968TIP3    H251396   5.699   5.634  16.450  0.1969  0.2484  0.3195
 9969TIP3   OH251397   3.730   4.826  16.807 -0.1744  0.2735  0.0691
 9969TIP3    H151398   3.760   4.917  16.805  1.4905 -0.2494  0.1584
 9969TIP3    H251399   3.767   4.789  16.887  0.2115 -0.8095 -0.5835
 9970TIP3   OH251400   2.870   6.598  13.399  0.2078 -0.1927 -0.2826
 9970TIP3    H151401   2.878   6.665  13.332 -1.4928 -1.4945 -1.9094
 9970TIP3    H251402   2.960   6.582  13.428  0.9950  0.5458 -2.1291
 9971TIP3   OH251403   1.930   2.829  15.806  0.5140 -0.5813 -0.0546
 9971TIP3    H151404   1.999   2.766  15.827  1.0428  0.4856  1.6545
 9971TIP3    H251405   1.860   2.811  15.870  0.3452  0.0464 -0.0513
 9972TIP3   OH251406   5.472   1.396   6.468 -0.0791 -0.0792  0.5101
 9972TIP3    H151407   5.435   1.355   6.546 -0.7859  0.3219  0.3986
 9972TIP3    H251408   5.395   1.427   6.419  0.3583 -0.3022 -0.3313
 9973TIP3   OH251409   3.168   4.551  11.405  0.2221 -0.0395 -0.0348
 9973TIP3    H151410   3.173   4.642  11.433 -0.7378  0.2334 -0.7020
 9973TIP3    H251411   3.193   4.553  11.313  0.6059 -0.5184  0.0533
 9974TIP3   OH251412   3.992   2.771   1.920  0.0810 -0.0094 -0.1507
 9974TIP3    H151413   3.976   2.741   1.831  0.1945  0.5559 -0.3680
 9974TIP3    H251414   4.070   2.723   1.949 -0.5619 -0.9670  0.0309
 9975TIP3   OH251415   1.980   0.661   2.585  0.0523 -0.6121  0.0310
 9975TIP3    H151416   1.892   0.698   2.579  0.9502  1.4490 -3.6716
 9975TIP3    H251417   1.972   0.573   2.548 -0.5533 -0.7178  0.4019
 9976TIP3   OH251418   4.452   3.033  13.351 -0.0312  0.0254  0.0247
 9976TIP3    H151419   4.463   3.104  13.287  0.9212  1.7377  1.9917
 9976TIP3    H251420   4.522   3.047  13.414 -2.7751  0.3719  3.2360
 9977TIP3   OH251421   1.861   5.673  10.506  0.5386  0.5612 -0.5548
 9977TIP3    H151422   1.884   5.639  10.420  0.5602 -0.6765 -0.0767
 9977TIP3    H251423   1.887   5.604  10.568  1.6594  1.9303  0.5636
 9978TIP3   OH251424   1.219   5.100  15.340  0.0324  0.3006  0.0116
 9978TIP3    H151425   1.169   5.169  15.296 -1.3116 -0.0032  0.9914
 9978TIP3    H251426   1.310   5.128  15.331 -0.4056  1.6899 -0.4810
 9979TIP3   OH251427   3.189   5.106   4.088  0.2578  0.2094 -0.2637
 9979TIP3    H151428   3.151   5.145   4.009 -0.7247  0.4731  0.3217
 9979TIP3    H251429   3.190   5.177   4.152  2.9332  0.5594 -0.6063
 9980TIP3   OH251430   5.275   1.446  16.351 -0.1368 -0.0066  0.4352
 9980TIP3    H151431   5.331   1.383  16.397  0.3375  1.2396  1.6199
 9980TIP3    H251432   5.188   1.434  16.390 -0.9307 -2.3008 -1.7576
 9981TIP3   OH251433   5.128   2.625  11.439  0.0912  0.3382 -0.6268
 9981TIP3    H151434   5.138   2.600  11.347 -0.9028  0.3071 -0.7435
 9981TIP3    H251435   5.066   2.561  11.474 -1.7251  1.9713 -0.6749
 9982TIP3   OH251436   6.267   5.375  15.856  0.2039 -0.1691  0.2083
 9982TIP3    H151437   6.261   5.291  15.903 -1.0080 -0.9974 -1.3201
 9982TIP3    H251438   6.354   5.373  15.815 -0.1004 -1.0730 -0.4465
 9983TIP3   OH251439   0.354   4.260  16.384 -0.1278 -0.5198  0.5554
 9983TIP3    H151440   0.395   4.183  16.344 -0.8580 -0.6070 -0.0496
 9983TIP3    H251441   0.378   4.255  16.476 -1.9732 -2.7134  1.0052
 9984TIP3   OH251442   5.187   6.726   2.547  0.2268  0.7199 -0.2025
 9984TIP3    H151443   5.199   6.814   2.583  0.6468  1.0223 -1.0547
 9984TIP3    H251444   5.124   6.738   2.475  0.0419  0.2740 -0.1197
 9985TIP3   OH251445   1.071   3.377   5.301  0.2935 -0.0132  0.1571
 9985TIP3    H151446   1.149   3.425   5.331  0.7128  0.3369 -1.4048
 9985TIP3    H251447   1.091   3.285   5.318  0.5451  0.1637  0.8477
 9986TIP3   OH251448   6.647   3.980  15.505 -0.1101 -0.1902  0.0272
 9986TIP3    H151449   6.711   3.941  15.445 -0.5030  1.1643 -1.3273
 9986TIP3    H251450   6.699   4.014  15.578  0.4505 -1.1825  0.1118
 9987TIP3   OH251451   0.707   0.437  11.356 -0.2953  0.6409 -0.4483
 9987TIP3    H151452   0.638   0.496  11.385  0.0156  1.3625 -1.1404
 9987TIP3    H251453   0.750   0.483  11.284  0.1964 -0.2714 -0.7618
 9988TIP3   OH251454   2.301   0.264   3.576 -0.1727  0.0527  0.3357
 9988TIP3    H151455   2.316   0.311   3.658 -0.5846 -0.3047  0.6228
 9988TIP3    H251456   2.341   0.178   3.589 -1.1239 -0.3763  0.5595
 9989TIP3   OH251457   4.559   5.365   2.593  0.1085  0.3769  0.2230
 9989TIP3    H151458   4.506   5.365   2.672  0.2455 -4.7923  0.6839
 9989TIP3    H251459   4.503   5.324   2.526  1.5759  0.1144 -0.9172
 9990TIP3   OH251460   5.003   6.489   3.836 -0.5197  0.1454 -0.0293
 9990TIP3    H151461   5.020   6.576   3.800  0.7892  0.1863  0.6005
 9990TIP3    H251462   4.934   6.453   3.782  1.6762 -0.0154 -2.9552
 9991TIP3   OH251463   6.753   4.293  13.580  0.6083 -0.2386  0.2332
 9991TIP3    H151464   6.790   4.377  13.607  0.6217  0.2043 -1.0783
 9991TIP3    H251465   6.666   4.290  13.620  0.8834  0.0771  0.8582
 9992TIP3   OH251466   4.873   1.562   1.143 -0.6913  0.1060  0.0238
 9992TIP3    H151467   4.942   1.508   1.102  0.5550  1.9323 -0.4321
 9992TIP3    H251468   4.915   1.597   1.221 -2.0048 -0.7799  1.1568
 9993TIP3   OH251469   2.746   4.794  14.477 -0.5629 -0.3508 -0.5319
 9993TIP3    H151470   2.686   4.748  14.535 -0.3330 -0.7708 -0.6201
 9993TIP3    H251471   2.747   4.741  14.397  0.3222 -0.6421 -0.3373
 9994TIP3   OH251472   0.917   3.665  15.681  0.0611  0.3741 -0.2412
 9994TIP3    H151473   0.966   3.650  15.600 -1.8905  0.5298 -1.5166
 9994TIP3    H251474   0.907   3.761  15.684  0.1071  0.3643  0.1589
 9995TIP3   OH251475   5.144   2.837   1.200  0.3109 -0.2100  0.9280
 9995TIP3    H151476   5.145   2.793   1.115  3.5030 -1.4605  1.4492
 9995TIP3    H251477   5.053   2.832   1.229 -0.8207  0.0460 -2.2574
 9996TIP3   OH251478   2.187   3.389   3.568 -0.2388 -0.1624  0.4581
 9996TIP3    H151479   2.194   3.315   3.507 -1.5731 -0.4319  0.5966
 9996TIP3    H251480   2.249   3.368   3.638  0.8394 -0.1637 -0.4640
 9997TIP3   OH251481   6.346   2.223  14.108 -0.3475 -0.6624 -0.4286
 9997TIP3    H151482   6.422   2.179  14.146 -0.8323 -0.8779  0.3112
 9997TIP3    H251483   6.359   2.315  14.129 -0.1849 -0.6701 -0.4895
 9998TIP3   OH251484   2.228   0.770   2.891  0.0060 -0.5361 -0.3994
 9998TIP3    H151485   2.315   0.781   2.928  0.3685 -0.5724 -1.2321
 9998TIP3    H251486   2.240   0.710   2.817 -0.9889 -1.8905  0.4748
 9999TIP3   OH251487   4.544   3.922   2.797  0.4452 -0.1030  0.2507
 9999TIP3    H151488   4.600   3.863   2.746 -0.4799 -0.9666  0.1979
 9999TIP3    H251489   4.604   3.965   2.858  1.2631 -0.5349 -0.2257
10000TIP3   OH251490   6.144   2.848  16.268 -0.3501  0.0633 -0.0691
10000TIP3    H151491   6.089   2.867  16.344  0.5812  0.3625  0.5465
10000TIP3    H251492   6.225   2.896  16.285 -0.4353  0.8458 -1.6592
10001TIP3   OH251493   0.149   3.856  14.495 -0.1427  0.0195  0.2403
10001TIP3    H151494   0.107   3.883  14.576  0.3539 -0.7603  0.7719
10001TIP3    H251495   0.078   3.822  14.441 -0.0479 -3.6505  2.0723
10002TIP3   OH251496   6.438   3.859   4.082  0.2870 -0.0783  0.2666
10002TIP3    H151497   6.468   3.949   4.096  0.0659  0.1779 -0.8133
10002TIP3    H251498   6.347   3.860   4.113 -0.1484  0.4423 -0.9453
10003TIP3   OH251499   0.832   5.632   1.645  0.1167  0.3074  0.6721
10003TIP3    H151500   0.912   5.656   1.599  0.5507 -0.0773  1.2055
10003TIP3    H251501   0.863   5.595   1.729 -0.5610 -0.8158  0.4509
10004TIP3   OH251502   1.421   2.704   1.119  0.2648  0.2081 -0.2080
10004TIP3    H151503   1.420   2.635   1.186  0.2826 -0.3690 -0.7871
10004TIP3    H251504   1.366   2.774   1.156  0.2717 -0.1001  0.4042
10005TIP3   OH251505   3.777   2.552  13.399 -0.0854  0.2474 -0.2208
10005TIP3    H151506   3.713   2.521  13.335 -0.4291  2.7327 -1.2060
10005TIP3    H251507   3.730   2.554  13.482  0.3774 -3.0542  0.2566
10006TIP3   OH251508   4.940   6.372  11.423  0.4636  0.6610  0.4798
10006TIP3    H151509   4.913   6.282  11.440 -1.9399  1.2155 -0.0538
10006TIP3    H251510   5.012   6.363  11.359 -1.3287 -0.8547 -1.4677
10007TIP3   OH251511   3.107   6.251   6.191 -0.3948 -0.7023 -0.1895
10007TIP3    H151512   3.141   6.339   6.209 -1.1137 -0.5268  0.3350
10007TIP3    H251513   3.015   6.255   6.217 -0.2671 -1.8052  0.4905
10008TIP3   OH251514   0.724   6.372   0.382 -0.5042 -0.1350 -0.2140
10008TIP3    H151515   0.701   6.430   0.454 -2.0712 -0.1843 -0.6579
10008TIP3    H251516   0.744   6.430   0.309  0.3755 -0.1076  0.0338
10009TIP3   OH251517   4.758   6.113   5.934  0.0817  0.3387  0.4575
10009TIP3    H151518   4.853   6.113   5.919  0.1751  1.5726  0.9465
10009TIP3    H251519   4.722   6.160   5.860 -0.3410 -1.5802 -0.6157
10010TIP3   OH251520   1.625   3.351   5.608  0.3063 -0.1119 -0.2736
10010TIP3    H151521   1.557   3.288   5.587  1.3790 -1.2446 -0.4976
10010TIP3    H251522   1.587   3.436   5.585 -1.2300 -0.6369  0.2073
10011TIP3   OH251523   3.522   5.348  15.608 -0.4039  0.5594 -0.0210
10011TIP3    H151524   3.545   5.256  15.619 -1.3406  0.4125  0.9200
10011TIP3    H251525   3.436   5.347  15.566  0.5678  1.0716 -2.1549
10012TIP3   OH251526   6.389   0.800  14.083 -0.4174  0.0794  0.3018
10012TIP3    H151527   6.357   0.790  13.994 -0.4061  0.8097  0.2101
10012TIP3    H251528   6.363   0.888  14.108  0.0113  0.0577  0.8413
10013TIP3   OH251529   2.282   1.864   5.453 -0.6616 -0.3450  0.5503
10013TIP3    H151530   2.192   1.868   5.419  0.1238 -0.8890 -1.7492
10013TIP3    H251531   2.272   1.831   5.542 -2.8372  0.8958  0.8442
10014TIP3   OH251532   6.753   3.646  14.802 -0.2260  0.1279  0.7400
10014TIP3    H151533   6.840   3.665  14.838 -0.3565  0.4741  0.8777
10014TIP3    H251534   6.758   3.673  14.710  0.0751 -0.6598  0.5202
10015TIP3   OH251535   5.212   5.432   5.445  0.2101  0.3281 -0.1386
10015TIP3    H151536   5.156   5.355   5.458  0.0756  0.3963 -0.3143
10015TIP3    H251537   5.301   5.399   5.459  0.4310 -0.5286 -2.8620
10016TIP3   OH251538   1.008   0.562   3.549  0.3182  0.7050 -0.1585
10016TIP3    H151539   1.060   0.608   3.483 -0.0597  0.1242 -0.8848
10016TIP3    H251540   0.964   0.492   3.500  1.5797 -1.0309  1.0231
10017TIP3   OH251541   2.139   6.610  15.014  0.0941  0.4099  0.1061
10017TIP3    H151542   2.050   6.578  15.022 -0.6150  2.4224  1.1219
10017TIP3    H251543   2.142   6.655  14.929  0.4299 -0.4137 -0.3290
10018TIP3   OH251544   3.627   5.693   1.847  0.0534 -0.6911 -0.7683
10018TIP3    H151545   3.575   5.731   1.919  1.3838 -0.5074  0.1290
10018TIP3    H251546   3.718   5.705   1.875  0.5813 -1.1418 -2.2398
10019TIP3   OH251547   0.383   1.103   0.186  0.4119  0.4391 -0.7191
10019TIP3    H151548   0.477   1.092   0.173  0.4829  0.2642 -0.0653
10019TIP3    H251549   0.349   1.014   0.194  0.5642  0.5377  1.5952
10020TIP3   OH251550   4.803   4.981   2.359 -0.5754 -0.4745 -0.2175
10020TIP3    H151551   4.742   5.013   2.425 -0.7709 -0.1246 -0.5612
10020TIP3    H251552   4.877   5.042   2.363 -0.7407 -0.2442 -0.5518
10021TIP3   OH251553   3.651   1.197  12.941  0.2653  0.1466 -0.1455
10021TIP3    H151554   3.650   1.168  12.850 -0.5604  0.9803 -0.4209
10021TIP3    H251555   3.639   1.117  12.992 -1.9475 -0.0506 -0.8864
10022TIP3   OH251556   0.064   0.780  10.885 -0.1141  0.1006  0.0826
10022TIP3    H151557  -0.024   0.763  10.852  0.2013  1.4022 -1.5497
10022TIP3    H251558   0.110   0.696  10.876 -0.7101 -0.1581 -0.5897
10023TIP3   OH251559   4.577   4.037  17.107 -0.1244  0.5055 -0.1149
10023TIP3    H151560   4.663   4.008  17.076  0.6349 -1.8071  3.5894
10023TIP3    H251561   4.517   3.968  17.078 -0.0736  0.3043  0.2467
10024TIP3   OH251562   4.453   4.940  12.866 -0.1016  0.1970  0.6157
10024TIP3    H151563   4.499   5.002  12.809  0.6162 -0.5368  0.3796
10024TIP3    H251564   4.363   4.971  12.867 -0.0135  0.5174 -0.5006
10025TIP3   OH251565   0.833   2.558   4.158  0.0695 -0.0525 -0.4919
10025TIP3    H151566   0.747   2.530   4.191  0.0518  1.2511  0.6333
10025TIP3    H251567   0.859   2.489   4.097 -0.6608 -1.6978  1.0080
10026TIP3   OH251568   6.268   4.059  13.682  0.0909 -0.1679 -0.5965
10026TIP3    H151569   6.272   4.118  13.758 -0.6872 -0.6988 -0.1214
10026TIP3    H251570   6.194   4.001  13.701  0.0797 -0.5116 -1.6249
10027TIP3   OH251571   3.396   3.255   0.312 -0.4845 -0.0656 -0.2076
10027TIP3    H151572   3.320   3.299   0.277  0.7248  1.3479 -1.1573
10027TIP3    H251573   3.450   3.325   0.349 -0.1366 -1.1498  1.4571
10028TIP3   OH251574   0.074   0.968   3.405 -0.5554  0.1806 -0.3574
10028TIP3    H151575   0.095   0.893   3.349  1.1120  0.5387 -0.2662
10028TIP3    H251576   0.083   1.044   3.347 -1.4998  0.3782 -0.2604
10029TIP3   OH251577   4.272   6.731   6.552  0.5013 -0.9891 -0.0754
10029TIP3    H151578   4.185   6.694   6.539  0.4189 -0.1746 -2.0206
10029TIP3    H251579   4.331   6.667   6.511  0.7008 -0.8549  0.0023
10030TIP3   OH251580   4.658   4.638   4.964 -0.5663 -0.5184  0.4296
10030TIP3    H151581   4.656   4.636   5.059  0.7719 -0.2807  0.4853
10030TIP3    H251582   4.638   4.728   4.941 -0.0460 -0.3730  0.5315
10031TIP3   OH251583   3.282   0.367  16.108 -0.0713  0.0666  0.5440
10031TIP3    H151584   3.252   0.401  16.192 -1.4824 -0.5797  0.3351
10031TIP3    H251585   3.207   0.377  16.049  0.5649 -0.3932 -0.3777
10032TIP3   OH251586   1.304   1.535   4.616 -0.0346  0.1734 -0.2382
10032TIP3    H151587   1.322   1.593   4.690  0.6738 -1.0264  0.5654
10032TIP3    H251588   1.354   1.456   4.635  1.0858  0.2465 -2.5703
10033TIP3   OH251589   1.589   3.127  12.128  0.2420 -0.0767  0.3406
10033TIP3    H151590   1.574   3.041  12.169 -0.5929  0.4122  1.1246
10033TIP3    H251591   1.599   3.186  12.203  0.4129  0.5638 -0.1899
10034TIP3   OH251592   6.043   2.439   1.871  0.6658  0.3285  0.4184
10034TIP3    H151593   6.119   2.394   1.833  1.0144  2.7185 -2.0266
10034TIP3    H251594   5.969   2.383   1.848  1.4950 -1.3697  1.6828
10035TIP3   OH251595   4.397   1.925  16.016  0.2528 -0.2662 -0.4030
10035TIP3    H151596   4.492   1.938  16.014  0.5027 -1.9242 -1.6257
10035TIP3    H251597   4.362   1.992  15.957  0.4204  1.5834  1.4677
10036TIP3   OH251598   5.498   4.925  15.615 -0.4774 -0.3821  0.5405
10036TIP3    H151599   5.586   4.922  15.653 -1.0402 -0.3327  1.9224
10036TIP3    H251600   5.452   4.991  15.667 -1.0262  0.3874 -0.8752
10037TIP3   OH251601   4.708   0.897  12.970 -0.1648  0.2058 -0.0704
10037TIP3    H151602   4.752   0.834  13.026  0.6392 -1.0849 -2.0592
10037TIP3    H251603   4.714   0.860  12.882 -0.9820  2.3472 -1.1042
10038TIP3   OH251604   1.908   3.143  15.007  0.0381 -0.5266  0.0055
10038TIP3    H151605   1.880   3.234  15.014  1.7974  0.4461 -3.2631
10038TIP3    H251606   1.971   3.132  15.078  0.5674  1.1935 -0.1489
10039TIP3   OH251607   0.059   5.998   2.754  0.2779 -0.0535  0.0215
10039TIP3    H151608   0.105   5.928   2.707  1.7303  1.8786 -1.6187
10039TIP3    H251609   0.105   6.005   2.838  1.1485 -0.0916 -0.4337
10040TIP3   OH251610   2.347   1.141   5.034 -0.1680 -0.2962 -0.4918
10040TIP3    H151611   2.379   1.143   5.124 -1.7402 -3.9672  0.3519
10040TIP3    H251612   2.405   1.079   4.989 -1.2471 -0.8734 -1.1276
10041TIP3   OH251613   4.205   3.507  14.280 -0.3718  0.0786  0.3737
10041TIP3    H151614   4.222   3.587  14.330 -0.8237  2.0948 -2.4355
10041TIP3    H251615   4.269   3.510  14.208 -1.8142 -0.9060 -1.0155
10042TIP3   OH251616   2.865   5.299  15.382  1.0264  0.2731  0.1820
10042TIP3    H151617   2.957   5.327  15.376  1.0197  0.3617  0.4815
10042TIP3    H251618   2.821   5.351  15.314  1.1902  0.2554  0.0596
10043TIP3   OH251619   6.366   3.718   3.101  0.8190 -0.1845  0.4134
10043TIP3    H151620   6.371   3.737   3.195  2.3878 -0.2317  0.3670
10043TIP3    H251621   6.457   3.704   3.075  0.5950  1.3848 -1.4345
10044TIP3   OH251622   2.913   0.564  12.263 -0.4499 -0.7595  0.3653
10044TIP3    H151623   2.995   0.606  12.292 -1.2614 -0.4991  2.4575
10044TIP3    H251624   2.902   0.593  12.173  2.4773 -1.9417 -0.4808
10045TIP3   OH251625   5.151   1.953   0.714  0.0905 -0.0488 -0.6036
10045TIP3    H151626   5.112   1.906   0.787 -0.4325  0.1901 -0.7244
10045TIP3    H251627   5.122   2.043   0.725 -1.6424 -0.3391 -2.1598
10046TIP3   OH251628   5.509   1.488   5.703 -0.8116 -0.3942 -0.5507
10046TIP3    H151629   5.521   1.522   5.792 -2.1170 -1.5163  0.0936
10046TIP3    H251630   5.586   1.433   5.689 -0.9936 -0.8781  0.2336
10047TIP3   OH251631   2.560   2.497  16.515  0.6102  1.2591  0.4018
10047TIP3    H151632   2.473   2.520  16.550  0.4452  2.1390 -0.5614
10047TIP3    H251633   2.553   2.512  16.421  1.3090 -0.2827  0.0773
10048TIP3   OH251634   6.837   5.243  14.852  0.0917 -0.4769 -0.9881
10048TIP3    H151635   6.821   5.260  14.760  1.2634  0.7431 -1.0006
10048TIP3    H251636   6.769   5.293  14.898  1.3264  1.4841 -1.1454
10049TIP3   OH251637   6.470   6.558   4.700  0.2498  0.5632  0.7113
10049TIP3    H151638   6.542   6.516   4.653  0.1892 -0.0432  1.1529
10049TIP3    H251639   6.416   6.597   4.631  0.9819  1.0046  0.3770
10050TIP3   OH251640   0.345   4.911  10.669  0.0565 -0.0603  0.0781
10050TIP3    H151641   0.325   4.962  10.590 -1.0853 -0.4027  0.1335
10050TIP3    H251642   0.397   4.837  10.637 -1.3828 -0.8299 -0.5438
10051TIP3   OH251643   0.398   5.619  11.644  0.5667 -0.0886  0.1663
10051TIP3    H151644   0.483   5.641  11.604 -0.3116 -0.4241 -2.0523
10051TIP3    H251645   0.421   5.566  11.720  2.3654  0.3013 -0.0488
10052TIP3   OH251646   1.791   4.774   5.919 -0.1543  0.1955 -0.2260
10052TIP3    H151647   1.801   4.682   5.945  0.6008 -0.0970 -1.4503
10052TIP3    H251648   1.723   4.773   5.853  0.9345  0.2576 -1.3847
10053TIP3   OH251649   0.318   5.612  14.911  0.0922 -0.0354 -0.1206
10053TIP3    H151650   0.259   5.632  14.838 -0.1293 -0.1545  0.0261
10053TIP3    H251651   0.397   5.663  14.892 -0.8819  1.9240  0.8458
10054TIP3   OH251652   5.618   6.570   1.059 -0.1226 -0.1670 -0.3623
10054TIP3    H151653   5.655   6.504   1.001 -0.4832  0.4198 -1.2646
10054TIP3    H251654   5.596   6.522   1.139 -0.2165 -1.1024 -0.9425
10055TIP3   OH251655   2.781   4.965   1.137 -0.2123 -0.0584  0.1011
10055TIP3    H151656   2.753   4.980   1.047  0.2638  1.2460  0.1488
10055TIP3    H251657   2.873   4.937   1.129  0.5414  2.2022  0.2516
10056TIP3   OH251658   5.981   1.477  13.693 -0.1888  0.5849  0.5677
10056TIP3    H151659   5.989   1.537  13.767 -1.0041 -0.1933  1.3089
10056TIP3    H251660   6.071   1.466  13.662  0.0879  1.4330  1.0119
10057TIP3   OH251661   1.306   6.413   3.390  0.0465 -0.3971 -0.3450
10057TIP3    H151662   1.363   6.370   3.454  1.3690  0.0487 -1.1824
10057TIP3    H251663   1.334   6.505   3.391 -0.4264 -0.2392 -1.0247
10058TIP3   OH251664   4.976   1.003  15.410 -0.5861 -0.1715  0.2353
10058TIP3    H151665   4.918   1.021  15.484 -0.7822  0.0344  0.0317
10058TIP3    H251666   4.998   0.910  15.419 -2.5977 -0.8132 -0.8338
10059TIP3   OH251667   3.833   5.226   5.103  0.4885  0.3206 -0.0153
10059TIP3    H151668   3.789   5.288   5.044  0.7518 -0.6959 -1.3401
10059TIP3    H251669   3.926   5.244   5.090  0.5561 -0.1308 -0.1741
10060TIP3   OH251670   3.408   5.339  12.504 -0.4289 -0.2971  0.4836
10060TIP3    H151671   3.484   5.338  12.447 -0.4301  0.3672  0.4614
10060TIP3    H251672   3.383   5.247  12.512 -1.5493 -0.3158 -2.1020
10061TIP3   OH251673   1.080   1.524   0.127 -0.7384 -0.6924  0.3787
10061TIP3    H151674   1.016   1.522   0.056 -1.0524  0.5973  0.5941
10061TIP3    H251675   1.029   1.541   0.205 -0.3699 -1.8939  0.9095
10062TIP3   OH251676   0.925   2.335   3.987 -0.1885 -0.2403 -0.2223
10062TIP3    H151677   0.862   2.280   4.033  0.5136 -0.0603  1.0050
10062TIP3    H251678   1.002   2.279   3.975 -0.3989 -0.3185 -1.3044
10063TIP3   OH251679   1.458   6.640   3.331  0.9856  0.2544  0.7409
10063TIP3    H151680   1.502   6.656   3.248 -0.8254  0.9593 -0.1309
10063TIP3    H251681   1.487   6.711   3.388  1.5343  0.2905  0.4186
10064TIP3   OH251682   0.587   0.248   3.941  0.4178  0.2670 -0.2725
10064TIP3    H151683   0.574   0.330   3.893  0.8963  0.9496  0.7290
10064TIP3    H251684   0.515   0.244   4.003  0.0028 -0.4359 -0.7799
10065TIP3   OH251685   5.444   5.044   2.676  0.4853 -0.0212 -0.2925
10065TIP3    H151686   5.533   5.033   2.645  0.2044 -0.3521 -0.9884
10065TIP3    H251687   5.421   4.960   2.715  0.3115 -0.0884 -0.5389
10066TIP3   OH251688   0.079   0.073  14.411 -0.0050  0.4825 -0.1333
10066TIP3    H151689   0.129   0.139  14.460  0.6851  0.4172 -0.7379
10066TIP3    H251690   0.094   0.094  14.319 -0.7531  0.1959 -0.3346
10067TIP3   OH251691   4.815   1.641  16.919  0.5752 -0.4369 -0.7471
10067TIP3    H151692   4.883   1.631  16.986  1.2168 -0.7672 -1.4308
10067TIP3    H251693   4.794   1.551  16.893 -2.3374 -0.5994  1.5623
10068TIP3   OH251694   4.177   2.334  16.298  0.2397 -0.3491 -0.0052
10068TIP3    H151695   4.134   2.331  16.384  0.0192  1.1263 -0.0289
10068TIP3    H251696   4.106   2.355  16.237  0.8051  1.3147 -0.1552
10069TIP3   OH251697   4.653   0.653  11.810  0.1202  0.4021 -0.0836
10069TIP3    H151698   4.680   0.563  11.794 -1.1165  0.3761 -2.5252
10069TIP3    H251699   4.735   0.702  11.821  0.9024 -0.6561 -1.0398
10070TIP3   OH251700   2.402   5.319  16.464 -0.4668  0.0021 -0.0264
10070TIP3    H151701   2.496   5.300  16.466 -0.4963 -0.5545 -2.1290
10070TIP3    H251702   2.360   5.234  16.476 -0.7789  0.4020  2.1730
10071TIP3   OH251703   3.641   2.269  17.093 -0.3676  0.0607 -0.3198
10071TIP3    H151704   3.590   2.188  17.093 -1.1135  0.4334  2.2822
10071TIP3    H251705   3.583   2.335  17.058 -0.4560 -0.1649 -0.5963
10072TIP3   OH251706   1.200   3.324  12.876  0.6191 -0.2360 -0.3946
10072TIP3    H151707   1.198   3.394  12.810  0.3394  1.2372  1.1093
10072TIP3    H251708   1.275   3.345  12.931 -1.3527  0.8799  2.0730
10073TIP3   OH251709   4.937   6.838   0.505  0.1631 -0.2760  0.2812
10073TIP3    H151710   4.855   6.879   0.532 -0.6983 -0.8590 -1.2871
10073TIP3    H251711   4.914   6.746   0.491  0.5476 -0.1000 -2.0298
10074TIP3   OH251712   4.923   3.755  13.750  0.3318 -0.2365 -0.4033
10074TIP3    H151713   4.842   3.791  13.712  1.3097  1.1804 -1.2131
10074TIP3    H251714   4.991   3.779  13.687  1.9036  1.5213  1.8419
10075TIP3   OH251715   3.262   0.696   1.529 -0.1189 -0.1853  0.3544
10075TIP3    H151716   3.309   0.752   1.591 -0.3834  0.4004  0.0384
10075TIP3    H251717   3.267   0.608   1.567  0.6833 -0.0251  0.6431
10076TIP3   OH251718   4.390   1.444  15.109 -0.0534  0.0853 -0.0565
10076TIP3    H151719   4.426   1.361  15.139 -0.0693  0.2544  0.4316
10076TIP3    H251720   4.463   1.486  15.062  0.4387  0.4850  1.0421
10077TIP3   OH251721   5.201   6.031   5.686 -0.1931 -0.1000 -0.3388
10077TIP3    H151722   5.184   6.124   5.675  1.3970  0.4190  1.1502
10077TIP3    H251723   5.157   6.007   5.768 -1.2865 -0.8955 -1.1185
10078TIP3   OH251724   5.613   4.493   1.278 -0.4908  0.1328  0.0729
10078TIP3    H151725   5.529   4.498   1.230  1.1271  1.0602 -2.9404
10078TIP3    H251726   5.634   4.399   1.277 -1.5050 -0.1291  0.9692
10079TIP3   OH251727   6.588   2.093   2.255  0.4028  0.0653 -0.3028
10079TIP3    H151728   6.637   2.025   2.209  2.3539 -0.2057  1.9968
10079TIP3    H251729   6.532   2.045   2.316  1.1141  0.4664  0.6869
10080TIP3   OH251730   6.696   4.209   0.566 -0.3415 -0.0042 -0.1864
10080TIP3    H151731   6.738   4.295   0.559 -1.2608  0.6524  1.6931
10080TIP3    H251732   6.769   4.147   0.566  0.4494  0.9007  0.0090
10081TIP3   OH251733   3.909   6.771   4.489 -0.5119  0.2337  0.2505
10081TIP3    H151734   4.003   6.758   4.501 -0.6176  0.9495  2.1857
10081TIP3    H251735   3.899   6.783   4.395  1.2428 -0.4664 -0.0759
10082TIP3   OH251736   5.715   5.302   0.823 -0.5359  0.1319 -0.6952
10082TIP3    H151737   5.622   5.319   0.839 -0.4780  1.9578 -1.9494
10082TIP3    H251738   5.720   5.281   0.730  0.2811 -0.4027 -0.5450
10083TIP3   OH251739   1.129   2.043   2.382 -0.0125  0.3901  0.5737
10083TIP3    H151740   1.094   2.036   2.471  0.5118  0.9031  0.8306
10083TIP3    H251741   1.108   2.132   2.355 -0.9709 -0.0518 -0.1736
10084TIP3   OH251742   1.731   5.171  11.281  0.4979 -0.6171  0.0201
10084TIP3    H151743   1.781   5.109  11.227  0.3884 -0.0096 -0.7913
10084TIP3    H251744   1.669   5.116  11.328 -0.6506 -0.9977 -1.8416
10085TIP3   OH251745   5.395   5.510  11.494 -0.1867 -0.3637  0.1047
10085TIP3    H151746   5.422   5.600  11.478 -0.8972 -0.3209 -0.8970
10085TIP3    H251747   5.398   5.468  11.408  0.1633 -1.3088  0.5666
10086TIP3   OH251748   5.787   3.877  13.293  0.0394 -0.1000 -0.3632
10086TIP3    H151749   5.881   3.864  13.281  0.4360  0.2870  1.9014
10086TIP3    H251750   5.774   3.971  13.280 -0.5250 -0.4742 -3.1460
10087TIP3   OH251751   0.012   2.983  14.485  0.5372  0.0140 -0.6445
10087TIP3    H151752   0.079   2.938  14.433  1.2052  0.2122  0.0170
10087TIP3    H251753   0.056   3.003  14.567 -0.8185 -1.3090  0.4669
10088TIP3   OH251754   4.532   2.230  12.787  0.2329  0.2143  0.1615
10088TIP3    H151755   4.610   2.283  12.805  0.2247  0.4648 -0.5137
10088TIP3    H251756   4.545   2.151  12.840  0.2183  0.9006  1.2183
10089TIP3   OH251757   5.409   2.081  13.088  0.1569 -0.4015  0.5091
10089TIP3    H151758   5.467   2.135  13.034 -0.2942 -2.0943 -1.8391
10089TIP3    H251759   5.460   2.002  13.107  0.1801  0.0198  2.3577
10090TIP3   OH251760   3.894   5.922  14.079 -0.2119 -0.0814  0.1163
10090TIP3    H151761   3.988   5.929  14.060 -0.2969 -0.8373 -0.6284
10090TIP3    H251762   3.872   5.831  14.060 -0.9454 -0.1089  1.0279
10091TIP3   OH251763   4.951   3.950  12.517  0.5621  0.1642  0.5379
10091TIP3    H151764   4.891   3.900  12.461  1.4440 -1.9151  1.3290
10091TIP3    H251765   4.925   4.041  12.504  0.1584 -0.2589 -2.5541
10092TIP3   OH251766   4.871   5.393   3.011 -0.4069  0.2846 -0.3721
10092TIP3    H151767   4.903   5.366   3.098  2.9430  0.0892 -1.5279
10092TIP3    H251768   4.912   5.478   2.996 -1.1450  0.4195 -1.6869
10093TIP3   OH251769   1.203   6.720   0.661  0.5760  0.2148  0.4181
10093TIP3    H151770   1.187   6.796   0.606  0.7809  0.3557  0.5520
10093TIP3    H251771   1.160   6.648   0.615 -1.9546  0.8562  1.5839
10094TIP3   OH251772   2.273   5.818  14.775  0.2770 -0.1396 -0.1779
10094TIP3    H151773   2.204   5.876  14.742  1.0368  1.2811  0.6295
10094TIP3    H251774   2.326   5.874  14.832  1.8506 -1.2923 -0.4492
10095TIP3   OH251775   1.281   0.485  13.278  0.2663 -0.6712  0.1904
10095TIP3    H151776   1.239   0.456  13.359 -0.8572  0.9869  0.2595
10095TIP3    H251777   1.251   0.576  13.268  1.8658 -0.2619 -1.1154
10096TIP3   OH251778   2.244   2.270   3.137 -0.3607  0.2366 -0.2161
10096TIP3    H151779   2.195   2.249   3.216 -0.5409  0.6245 -0.2208
10096TIP3    H251780   2.334   2.280   3.166 -0.5180  0.9738  0.0517
10097TIP3   OH251781   3.308   1.010  14.098 -0.5103 -0.2876  0.1009
10097TIP3    H151782   3.367   1.083  14.082 -0.9701  0.1755  0.4708
10097TIP3    H251783   3.339   0.940  14.040 -1.1096  0.7558 -1.5454
10098TIP3   OH251784   2.932   3.671   1.102 -0.2715 -0.1220  0.4106
10098TIP3    H151785   2.887   3.701   1.181 -0.3238  0.6658  0.0992
10098TIP3    H251786   2.991   3.743   1.079 -0.1584 -0.3959 -0.1851
10099TIP3   OH251787   2.204   2.139   2.228  0.0214  0.5771 -0.5424
10099TIP3    H151788   2.260   2.187   2.290 -0.4602  0.7377 -0.2306
10099TIP3    H251789   2.174   2.063   2.277 -1.5724  1.4739 -0.0596
10100TIP3   OH251790   5.240   6.267  11.280 -0.3440 -0.2321 -0.0603
10100TIP3    H151791   5.204   6.353  11.260 -0.1356  0.0311  0.6503
10100TIP3    H251792   5.314   6.256  11.220  1.1967  1.1563  1.4729
10101TIP3   OH251793   3.021   3.183  15.108 -0.2219 -0.1770  0.1692
10101TIP3    H151794   2.946   3.236  15.134 -0.1951 -0.2438  0.3860
10101TIP3    H251795   3.071   3.170  15.189  1.5685  2.2883 -0.4163
10102TIP3   OH251796   5.477   4.327   4.881  0.5132 -0.0062  0.2740
10102TIP3    H151797   5.428   4.379   4.818 -3.0977 -0.8600  2.1500
10102TIP3    H251798   5.492   4.385   4.955 -1.9742 -0.9675  1.6398
10103TIP3   OH251799   2.881   4.662   0.768  0.4602  0.0786 -0.4264
10103TIP3    H151800   2.887   4.725   0.840 -0.0828  0.7010 -0.9283
10103TIP3    H251801   2.919   4.581   0.805 -0.0004  0.3251  0.6264
10104TIP3   OH251802   0.055   0.631   4.403  0.2952  0.1213 -0.5699
10104TIP3    H151803  -0.035   0.661   4.389  0.6098  0.6530 -1.6222
10104TIP3    H251804   0.071   0.643   4.496  0.4205  3.3853 -0.9101
10105TIP3   OH251805   5.665   1.512   3.223 -0.3071 -0.4829  0.4443
10105TIP3    H151806   5.651   1.421   3.195  0.7949 -0.6475  0.3995
10105TIP3    H251807   5.588   1.533   3.275 -1.3986 -0.8778 -0.9411
10106TIP3   OH251808   2.479   2.407   3.173  0.4892 -0.2086  0.1395
10106TIP3    H151809   2.527   2.325   3.158  0.6247  0.1268 -1.4121
10106TIP3    H251810   2.542   2.464   3.217  0.3839 -0.9291  1.2621
10107TIP3   OH251811   6.003   3.418  12.105 -0.1540  0.5398  0.2251
10107TIP3    H151812   5.984   3.405  12.197  0.8317 -2.0566  0.1543
10107TIP3    H251813   6.094   3.446  12.103  0.1137 -0.3212  0.0221
10108TIP3   OH251814   4.540   2.292  17.041  0.0872 -0.4994  0.4833
10108TIP3    H151815   4.459   2.317  17.085  0.6691 -0.2671  1.4535
10108TIP3    H251816   4.528   2.199  17.021 -1.3735  0.0446 -1.5792
10109TIP3   OH251817   5.207   2.214   4.024  0.1250  0.3016 -0.6722
10109TIP3    H151818   5.239   2.154   3.958  0.7971  0.1544 -0.2260
10109TIP3    H251819   5.208   2.163   4.105 -2.3887 -0.0804 -0.8259
10110TIP3   OH251820   5.946   4.226  16.383  0.5119 -0.2950 -0.0025
10110TIP3    H151821   5.867   4.269  16.349 -0.8276 -1.7575  1.0988
10110TIP3    H251822   5.980   4.286  16.448  0.2583  0.3220 -0.4298
10111TIP3   OH251823   4.712   6.454  16.858 -0.0722 -0.1573 -0.5417
10111TIP3    H151824   4.672   6.527  16.904  0.1825  0.1345 -0.7774
10111TIP3    H251825   4.755   6.403  16.927  0.9811  0.7060 -0.5248
10112TIP3   OH251826   3.811   5.297  14.615  0.2921  0.2057 -0.9949
10112TIP3    H151827   3.786   5.212  14.579 -1.1347 -0.7965  2.1026
10112TIP3    H251828   3.735   5.353  14.600  0.5674  0.4592 -1.4848
10113TIP3   OH251829   4.098   4.436   0.313 -0.0608 -0.6966  0.5760
10113TIP3    H151830   4.156   4.509   0.294 -2.1347  0.2134 -3.1495
10113TIP3    H251831   4.154   4.358   0.307  1.6275  0.3381  1.9326
10114TIP3   OH251832   1.363   6.762  13.185 -0.0522  0.3577  0.6838
10114TIP3    H151833   1.301   6.747  13.114 -0.2238  0.6192  0.7781
10114TIP3    H251834   1.402   6.676  13.201 -0.0051  0.2995  0.2676
10115TIP3   OH251835   4.022   1.372   3.878  0.1224  0.4596  0.2115
10115TIP3    H151836   3.937   1.398   3.843 -0.5076 -2.1922 -0.5130
10115TIP3    H251837   4.084   1.394   3.809 -0.2349  0.8517  0.0083
10116TIP3   OH251838   1.286   5.694  11.926 -0.4004  0.2555 -0.2813
10116TIP3    H151839   1.293   5.715  12.019 -0.1133 -0.1725 -0.2030
10116TIP3    H251840   1.376   5.698  11.894 -0.4912  0.3445 -0.5278
10117TIP3   OH251841   0.077   4.264   3.151 -0.1635  0.1735  0.4621
10117TIP3    H151842   0.042   4.245   3.238 -0.7921 -2.3611 -0.2488
10117TIP3    H251843   0.168   4.234   3.154 -0.4288 -0.7176  0.0413
10118TIP3   OH251844   3.026   5.454   1.308  0.1265 -0.1268  0.0667
10118TIP3    H151845   3.011   5.368   1.270  3.8999 -0.2244 -1.6293
10118TIP3    H251846   3.096   5.492   1.256 -1.8779  4.4447  0.1639
10119TIP3   OH251847   4.546   3.700   1.450  0.0587 -0.0016 -0.6635
10119TIP3    H151848   4.469   3.752   1.430 -0.6291 -0.5522  0.4166
10119TIP3    H251849   4.585   3.680   1.365 -1.7218 -0.7862 -1.3525
10120TIP3   OH251850   3.991   1.822  15.305  0.4940  0.0203  0.1878
10120TIP3    H151851   3.940   1.830  15.225  1.0315 -0.9649 -0.2778
10120TIP3    H251852   4.063   1.763  15.281 -0.1101 -1.4261  1.7633
10121TIP3   OH251853   1.583   2.794   5.397  0.4600 -0.0329  0.3252
10121TIP3    H151854   1.607   2.771   5.487 -0.6346  1.1106  0.9228
10121TIP3    H251855   1.493   2.824   5.402 -0.0977 -1.2483 -1.3910
10122TIP3   OH251856   3.826   0.333  16.921  0.3457 -0.2733 -0.2068
10122TIP3    H151857   3.776   0.337  17.003 -1.3849 -1.2006 -1.1497
10122TIP3    H251858   3.876   0.252  16.927  0.9264  0.1175  0.2993
10123TIP3   OH251859   1.310   6.162  15.097  0.0005  0.3660  0.1111
10123TIP3    H151860   1.403   6.142  15.111  0.0825  0.3893 -0.4118
10123TIP3    H251861   1.264   6.099  15.153  0.3041 -0.3943 -0.4764
10124TIP3   OH251862   2.711   1.586  14.253  0.2231 -0.5352 -0.1941
10124TIP3    H151863   2.721   1.611  14.162 -0.1061  0.4218  0.0197
10124TIP3    H251864   2.751   1.499  14.259 -1.0877 -1.2605 -1.5581
10125TIP3   OH251865   1.289   5.518   1.372  0.1948 -0.1740  0.3057
10125TIP3    H151866   1.364   5.534   1.315  0.0966 -1.0469 -0.0865
10125TIP3    H251867   1.258   5.431   1.347 -2.1427  0.9122 -0.9159
10126TIP3   OH251868   6.566   3.298  14.564  0.0084 -0.0664 -0.6209
10126TIP3    H151869   6.539   3.342  14.645  0.2113 -1.4440  0.2267
10126TIP3    H251870   6.529   3.353  14.494  1.5301  2.2779  0.3000
10127TIP3   OH251871   5.556   6.624   4.004  0.3338 -0.2623  0.0614
10127TIP3    H151872   5.476   6.582   4.037  0.3744  0.2353  0.8320
10127TIP3    H251873   5.627   6.570   4.038  0.3184 -1.0158 -1.0783
10128TIP3   OH251874   5.464   5.183  14.711 -0.1944 -0.1329 -0.5245
10128TIP3    H151875   5.471   5.091  14.737 -1.0305 -0.3822 -1.1342
10128TIP3    H251876   5.403   5.222  14.774 -0.2575 -0.1260 -0.5895
10129TIP3   OH251877   3.928   2.622   0.078 -0.7210 -0.0493 -0.0328
10129TIP3    H151878   3.978   2.641   0.157  0.0375 -2.1784  0.0397
10129TIP3    H251879   3.856   2.685   0.080  2.2675  3.7730 -0.5611
10130TIP3   OH251880   0.794   1.801   2.484 -0.1720  0.0808  0.1337
10130TIP3    H151881   0.828   1.731   2.539 -2.6496 -3.0408 -1.9554
10130TIP3    H251882   0.706   1.772   2.459  0.0000  2.1843 -3.7294
10131TIP3   OH251883   6.148   2.266  13.937  0.1951 -0.4335  0.3707
10131TIP3    H151884   6.197   2.342  13.906  1.2374 -1.2841 -0.1352
10131TIP3    H251885   6.206   2.225  14.001 -1.1703  0.2642  2.1362
10132TIP3   OH251886   4.599   3.894  12.996  0.4900  0.4613 -0.0780
10132TIP3    H151887   4.509   3.925  12.997 -0.5922 -2.2975 -1.7723
10132TIP3    H251888   4.611   3.858  12.908  2.5721 -1.0885  0.7671
10133TIP3   OH251889   2.648   3.781  12.359 -0.0137 -0.1660 -0.0319
10133TIP3    H151890   2.649   3.820  12.446  1.6168  0.8543 -0.4559
10133TIP3    H251891   2.557   3.756  12.345 -0.7529  1.6612  1.1074
10134TIP3   OH251892   4.154   0.601   4.550  0.3775 -0.5378 -0.2342
10134TIP3    H151893   4.104   0.572   4.473  1.5057 -0.2049 -1.1166
10134TIP3    H251894   4.146   0.528   4.612  2.3218 -2.4144 -2.0159
10135TIP3   OH251895   1.561   1.421  14.696  0.1473  0.2716 -0.5269
10135TIP3    H151896   1.580   1.515  14.692  3.6232 -0.3240 -2.0455
10135TIP3    H251897   1.643   1.379  14.668 -1.7558 -3.1964 -1.4753
10136TIP3   OH251898   0.333   5.935  11.680  0.3069 -0.2477  0.1580
10136TIP3    H151899   0.383   6.005  11.639 -0.8321  0.2355 -0.4646
10136TIP3    H251900   0.370   5.926  11.768  0.9000  0.6727  0.0064
10137TIP3   OH251901   3.961   3.457   5.558  0.2754 -0.2335 -0.0306
10137TIP3    H151902   3.880   3.493   5.520 -0.1612 -1.1464  0.0197
10137TIP3    H251903   3.976   3.510   5.636 -2.1047 -2.0766  1.8252
10138TIP3   OH251904   1.631   6.223   1.165 -0.6652  0.2035 -0.2073
10138TIP3    H151905   1.672   6.199   1.081  0.5194  0.2155  0.3547
10138TIP3    H251906   1.543   6.186   1.159 -0.4633 -0.1539 -1.2926
10139TIP3   OH251907   2.984   6.341   4.756  0.5326 -0.4127  1.1171
10139TIP3    H151908   3.031   6.258   4.767 -1.3502 -1.5832  0.7682
10139TIP3    H251909   2.932   6.350   4.836 -0.2575 -0.2539  0.6017
10140TIP3   OH251910   6.818   6.054   2.295  0.4679 -0.1169 -0.3246
10140TIP3    H151911   6.753   6.059   2.365 -0.9463 -1.3764 -1.4639
10140TIP3    H251912   6.888   6.000   2.331 -1.4134 -2.9737 -0.6413
10141TIP3   OH251913   6.681   0.499  13.659 -0.6077 -0.0379  0.0830
10141TIP3    H151914   6.627   0.421  13.650  2.1683 -1.9750 -1.1238
10141TIP3    H251915   6.738   0.498  13.582  0.0499  2.8028  0.4186
10142TIP3   OH251916   2.665   0.629   4.270 -0.2581  0.2450 -0.3219
10142TIP3    H151917   2.760   0.623   4.260 -0.3300 -0.4649 -0.6654
10142TIP3    H251918   2.642   0.550   4.320 -0.5674  0.8620  0.5383
10143TIP3   OH251919   4.934   2.024  14.056 -0.3932  0.2222 -0.2699
10143TIP3    H151920   4.874   2.099  14.048 -0.8556 -0.2005 -0.9314
10143TIP3    H251921   5.007   2.056  14.109 -0.8290  0.9878 -0.1236
10144TIP3   OH251922   4.456   1.744  12.369  0.0921 -0.0467 -0.0011
10144TIP3    H151923   4.499   1.816  12.322  1.7170  1.2546  3.1183
10144TIP3    H251924   4.440   1.677  12.303  1.8923  1.7162 -2.3906
10145TIP3   OH251925   4.136   5.252  13.427 -0.0092  0.0256 -0.7489
10145TIP3    H151926   4.138   5.286  13.517  2.8322  1.0668 -1.1059
10145TIP3    H251927   4.094   5.322  13.376 -0.2294  0.1054 -0.4580
10146TIP3   OH251928   6.302   4.795   0.686  0.2563 -0.2561 -0.4242
10146TIP3    H151929   6.355   4.828   0.614 -0.3308  0.6937 -0.4373
10146TIP3    H251930   6.330   4.846   0.762 -1.2832  0.9720 -0.6255
10147TIP3   OH251931   4.057   5.348  14.757 -0.3685 -0.0812  0.0930
10147TIP3    H151932   4.116   5.274  14.742 -1.2868 -1.4361  2.5901
10147TIP3    H251933   3.982   5.330  14.700 -0.4224 -0.8900  0.4082
10148TIP3   OH251934   0.616   1.512  13.977 -0.2589  0.1194  0.0997
10148TIP3    H151935   0.665   1.430  13.980 -0.9216 -0.2525  1.1151
10148TIP3    H251936   0.561   1.504  13.900  1.3108  0.5865 -1.1280
10149TIP3   OH251937   3.720   3.102   1.225  0.3182  0.8827  0.7527
10149TIP3    H151938   3.796   3.148   1.260 -0.0240  1.1625  1.1270
10149TIP3    H251939   3.702   3.145   1.141  1.2261  0.1192  0.1311
10150TIP3   OH251940   3.179   4.486   6.626 -0.2293  0.0458  0.0978
10150TIP3    H151941   3.196   4.400   6.665  1.0969 -0.0270 -0.5869
10150TIP3    H251942   3.083   4.492   6.624 -0.3564 -0.6548  1.7700
10151TIP3   OH251943   3.514   6.415   0.369 -0.5579  0.0481  0.0084
10151TIP3    H151944   3.521   6.323   0.393 -0.9902 -0.0783 -0.3261
10151TIP3    H251945   3.423   6.437   0.387 -0.4750  0.3897  0.0122
10152TIP3   OH251946   6.043   4.822  12.511  0.1187  0.7117  0.3075
10152TIP3    H151947   5.958   4.852  12.544 -0.7959  0.0470 -1.2787
10152TIP3    H251948   6.054   4.869  12.428  0.1203 -0.9477 -0.6798
10153TIP3   OH251949   3.259   2.503   4.397  0.1690  0.0487  0.1146
10153TIP3    H151950   3.247   2.550   4.479 -2.2973  0.6559 -0.5140
10153TIP3    H251951   3.244   2.411   4.419 -0.2254  0.1799  0.4029
10154TIP3   OH251952   4.515   6.123  12.583 -0.4164 -0.0636 -0.7672
10154TIP3    H151953   4.555   6.040  12.606 -1.2000 -0.1231  0.4925
10154TIP3    H251954   4.441   6.100  12.526 -1.0567 -0.3030  0.1483
10155TIP3   OH251955   4.590   4.537   6.538 -0.1862 -0.2211 -0.0452
10155TIP3    H151956   4.581   4.499   6.626  0.2117 -1.1022 -0.3691
10155TIP3    H251957   4.661   4.487   6.498  2.0127  2.4211  0.2849
10156TIP3   OH251958   5.364   3.600   3.470 -0.3578 -0.0923 -0.1667
10156TIP3    H151959   5.405   3.615   3.385  0.5593 -2.5303 -0.2285
10156TIP3    H251960   5.419   3.649   3.531 -0.8088  1.3788 -0.8928
10157TIP3   OH251961   4.917   3.240   0.172  0.5359  0.5613  0.5430
10157TIP3    H151962   4.894   3.193   0.092 -1.9126 -0.0677  1.5383
10157TIP3    H251963   4.993   3.192   0.206  0.7016 -0.0529 -0.6356
10158TIP3   OH251964   4.328   3.737   1.706  0.0652  0.3145  0.5540
10158TIP3    H151965   4.250   3.731   1.761  0.0190 -0.5890  0.4143
10158TIP3    H251966   4.396   3.692   1.755  0.9962  2.6066  1.4617
10159TIP3   OH251967   2.812   4.808  16.332 -0.3539 -0.0465 -0.0398
10159TIP3    H151968   2.802   4.722  16.293 -0.2156  0.1750 -0.5684
10159TIP3    H251969   2.848   4.791  16.420  1.7476 -0.4268 -0.9163
10160TIP3   OH251970   1.366   3.850  13.383  0.1087  0.0363  0.1278
10160TIP3    H151971   1.284   3.875  13.425  1.0060  0.3960  1.7615
10160TIP3    H251972   1.379   3.758  13.407 -0.4316 -0.4044 -1.2058
10161TIP3   OH251973   3.853   4.207   6.570 -0.3860  0.7673  0.0015
10161TIP3    H151974   3.804   4.138   6.524  1.0109  0.5855 -1.3102
10161TIP3    H251975   3.786   4.271   6.595 -1.3834  0.2725 -1.2412
10162TIP3   OH251976   5.969   4.099   5.058  0.4310 -0.4497 -0.7998
10162TIP3    H151977   6.003   4.088   5.147 -1.0372  0.7096 -0.0515
10162TIP3    H251978   6.047   4.116   5.005  1.1125  1.7297  0.7744
10163TIP3   OH251979   3.622   5.171   2.374  0.1439  1.2205  0.4272
10163TIP3    H151980   3.536   5.129   2.373  0.5989  0.2214  1.3304
10163TIP3    H251981   3.620   5.229   2.450  0.4871  0.7166  0.8214
10164TIP3   OH251982   6.577   0.336  12.310 -0.4136  0.3471  0.2447
10164TIP3    H151983   6.665   0.336  12.274 -0.0402  0.0874  1.1543
10164TIP3    H251984   6.584   0.383  12.393 -0.7738 -1.1686  1.1674
10165TIP3   OH251985   3.321   1.948   2.707  0.4757  0.6792  0.1726
10165TIP3    H151986   3.284   1.918   2.624  2.3806 -0.0217 -0.4749
10165TIP3    H251987   3.357   1.869   2.748  0.7041  1.2266  1.0609
10166TIP3   OH251988   0.528   2.689   6.061  0.1861 -0.2719 -0.3789
10166TIP3    H151989   0.486   2.691   6.147  1.1129  1.1790  0.0699
10166TIP3    H251990   0.534   2.780   6.034 -0.4219 -0.7178 -2.1815
10167TIP3   OH251991   6.271   1.812   4.885 -0.4178 -0.4489  0.0552
10167TIP3    H151992   6.335   1.757   4.840 -0.1263 -0.1285  0.0796
10167TIP3    H251993   6.187   1.767   4.870  0.1148 -2.4481  2.3687
10168TIP3   OH251994   1.231   3.506  13.300  0.0774 -0.6744  0.3303
10168TIP3    H151995   1.262   3.556  13.225  0.2220 -1.4530 -0.1446
10168TIP3    H251996   1.149   3.466  13.270 -0.5181 -0.0130  1.0059
10169TIP3   OH251997   2.514   0.605  12.543  0.3204  1.1210 -0.1206
10169TIP3    H151998   2.467   0.538  12.493  0.1878  1.0545  0.0908
10169TIP3    H251999   2.481   0.595  12.632  1.0244  0.7971  0.1175
10170TIP3   OH252000   3.805   0.961   4.815  0.2173 -0.4641 -0.1372
10170TIP3    H152001   3.820   0.867   4.829  0.1749 -0.5504 -0.6389
10170TIP3    H252002   3.834   0.976   4.725 -0.5807 -0.1648 -0.3528
10171TIP3   OH252003   3.205   0.336  10.940 -0.4674  0.0456 -0.0856
10171TIP3    H152004   3.301   0.338  10.939 -0.4384 -0.6349  0.8089
10171TIP3    H252005   3.181   0.339  10.847  0.4989 -3.1226 -0.5540
10172TIP3   OH252006   1.564   4.301   4.667  0.1936 -0.2627  0.3395
10172TIP3    H152007   1.538   4.245   4.740 -0.2006 -0.7899 -0.1963
10172TIP3    H252008   1.482   4.326   4.625  0.4246 -0.0541  0.0098
10173TIP3   OH252009   1.903   3.494  13.594  0.5146  0.2358  0.2771
10173TIP3    H152010   1.966   3.509  13.665  0.7064  0.0651  0.1442
10173TIP3    H252011   1.941   3.538  13.518  0.8124 -0.4418  0.0227
10174TIP3   OH252012   2.128   0.859  14.565 -0.4377  0.0891 -0.3583
10174TIP3    H152013   2.090   0.804  14.633 -1.1322  0.0899 -0.7294
10174TIP3    H252014   2.217   0.826  14.554 -0.9392 -1.1873 -0.7925
10175TIP3   OH252015   4.374   5.077  16.654  0.7369  0.2363 -0.0045
10175TIP3    H152016   4.433   5.077  16.579  0.2775  2.1116 -0.4260
10175TIP3    H252017   4.306   5.141  16.631 -1.4179 -1.7262  0.5237
10176TIP3   OH252018   5.565   3.902   2.174  0.1320 -0.3436 -0.4606
10176TIP3    H152019   5.551   3.995   2.191 -0.1295 -0.7698  2.1585
10176TIP3    H252020   5.653   3.885   2.206  0.3212 -0.9495 -1.2655
10177TIP3   OH252021   5.450   1.593   3.369  0.5929 -0.0608  0.2805
10177TIP3    H152022   5.424   1.663   3.429 -0.7907  2.0086 -2.4958
10177TIP3    H252023   5.372   1.576   3.317  1.8755 -1.3090 -1.3387
10178TIP3   OH252024   5.003   1.104  16.037 -0.1873  0.1404  0.1115
10178TIP3    H152025   5.060   1.117  15.961 -0.3296  2.7177  0.3592
10178TIP3    H252026   4.932   1.166  16.024 -0.5375  0.1809  2.0453
10179TIP3   OH252027   2.769   2.111   1.856  0.5183 -0.0669  1.0080
10179TIP3    H152028   2.709   2.160   1.912 -2.8166 -0.2638 -2.0307
10179TIP3    H252029   2.784   2.169   1.781 -0.3907 -2.1224 -0.8650
10180TIP3   OH252030   2.693   0.321  16.156  0.3115 -0.0013  0.2101
10180TIP3    H152031   2.740   0.247  16.195  0.5320  0.9552  1.8722
10180TIP3    H252032   2.633   0.350  16.225 -0.3792  0.8344 -0.7193
10181TIP3   OH252033   4.858   3.219   3.613 -0.5544 -0.0101  0.1530
10181TIP3    H152034   4.931   3.264   3.572 -0.1467  0.8317  1.7367
10181TIP3    H252035   4.831   3.153   3.548  1.9212 -0.7020 -0.2853
10182TIP3   OH252036   2.526   0.025   0.435  0.4215  0.4117 -0.3031
10182TIP3    H152037   2.495  -0.065   0.451  0.2907  0.5740  0.3625
10182TIP3    H252038   2.616   0.025   0.468  0.8206  0.2138 -1.3491
10183TIP3   OH252039   2.737   6.484  16.623 -1.0492 -0.1916  0.3024
10183TIP3    H152040   2.764   6.576  16.628 -0.6417 -0.2984  0.1226
10183TIP3    H252041   2.674   6.482  16.551 -0.9973 -0.0632  0.2522
10184TIP3   OH252042   6.684   3.822   0.962 -0.5798 -0.3080  0.1512
10184TIP3    H152043   6.773   3.815   0.997  0.0748 -1.8272 -1.6008
10184TIP3    H252044   6.630   3.845   1.037  1.3969  1.6220  1.0953
10185TIP3   OH252045   3.325   6.604  15.278 -0.1764 -0.2825  0.5281
10185TIP3    H152046   3.404   6.620  15.227 -0.5549  1.7559  0.4899
10185TIP3    H252047   3.346   6.635  15.366 -0.7311 -0.3028  0.6760
10186TIP3   OH252048   0.149   6.781  15.365  0.1998 -0.4780  0.0088
10186TIP3    H152049   0.063   6.786  15.322 -0.7890 -3.0369  1.4750
10186TIP3    H252050   0.140   6.838  15.441  0.4913  0.7295 -0.8348
10187TIP3   OH252051   0.282   2.627   3.722  0.0880  0.3971 -0.5635
10187TIP3    H152052   0.207   2.674   3.760  0.0435 -0.0182 -0.1314
10187TIP3    H252053   0.347   2.626   3.792  0.4730  0.6887 -0.9130
10188TIP3   OH252054   0.401   1.267   2.738 -0.5483  0.3305  0.1892
10188TIP3    H152055   0.446   1.313   2.808  2.8192 -0.0958 -1.4939
10188TIP3    H252056   0.346   1.333   2.697  1.1904  1.8945  0.2661
10189TIP3   OH252057   1.734   2.914  14.431  0.4592  0.0743  0.2979
10189TIP3    H152058   1.730   2.920  14.336 -0.1492 -0.0587  0.3094
10189TIP3    H252059   1.824   2.887  14.450  0.2438 -1.1444 -0.3100
10190TIP3   OH252060   6.350   2.159  14.823 -0.1992  0.2597 -0.0365
10190TIP3    H152061   6.349   2.098  14.749 -0.6573 -1.9743  1.7150
10190TIP3    H252062   6.262   2.197  14.824  0.3773  1.8205 -1.7194
10191TIP3   OH252063   3.623   5.716  14.563 -0.8721  0.0003  0.3997
10191TIP3    H152064   3.606   5.809  14.581  0.7388  0.4889 -0.4415
10191TIP3    H252065   3.711   5.701  14.597 -0.6338 -0.9059 -0.5719
10192TIP3   OH252066   1.977   6.543   0.545  0.6035 -0.0750  0.0934
10192TIP3    H152067   1.959   6.622   0.494 -1.2213 -0.7486 -0.4068
10192TIP3    H252068   1.940   6.561   0.631  0.6076 -0.1990  0.1214
10193TIP3   OH252069   1.000   1.654   4.531  0.0909 -0.4799 -0.4165
10193TIP3    H152070   0.943   1.628   4.603 -2.8532 -0.0927 -2.4510
10193TIP3    H252071   1.043   1.573   4.504 -1.0820 -1.2206 -0.1268
10194TIP3   OH252072   3.229   5.116   2.676 -0.5700 -0.0276  0.1363
10194TIP3    H152073   3.313   5.136   2.717 -0.2846  0.2135 -0.5464
10194TIP3    H252074   3.247   5.119   2.582 -1.6106  1.2656 -0.0601
10195TIP3   OH252075   0.614   4.753   2.388  0.3154  0.3643 -0.1137
10195TIP3    H152076   0.611   4.810   2.311  0.4472  2.1683  1.1647
10195TIP3    H252077   0.537   4.778   2.439  1.1200  0.3648  1.1261
10196TIP3   OH252078   5.003   5.163  16.613 -0.0596  0.3339  0.4659
10196TIP3    H152079   4.987   5.071  16.631 -0.0662  0.3679  0.6357
10196TIP3    H252080   4.997   5.206  16.698  0.9726  0.3444  0.5460
10197TIP3   OH252081   6.673   1.660   4.901 -0.2520 -0.0629 -0.0605
10197TIP3    H152082   6.676   1.616   4.985 -1.1019 -0.8617 -0.4314
10197TIP3    H252083   6.589   1.635   4.863  0.1715  0.1640 -1.2078
10198TIP3   OH252084   6.083   0.586   4.058  0.4299  0.3925 -0.2450
10198TIP3    H152085   6.086   0.546   4.145 -2.7562  2.4522  1.0178
10198TIP3    H252086   6.025   0.661   4.069  1.6458  2.0353 -3.7224
10199TIP3   OH252087   0.373   3.044  13.947  0.4218 -0.3300  0.3776
10199TIP3    H152088   0.379   3.123  14.001  2.9448 -0.6182  0.6678
10199TIP3    H252089   0.463   3.030  13.916 -0.4873 -1.5774 -1.8966
10200TIP3   OH252090   3.146   3.000  13.795  0.2318  0.4032 -0.1173
10200TIP3    H152091   3.159   2.916  13.839  2.2410  0.8298  0.1831
10200TIP3    H252092   3.184   2.989  13.709  0.3767  0.9546 -0.1302
10201TIP3   OH252093   1.055   5.655   1.466  0.3410 -0.2453  0.2567
10201TIP3    H152094   1.139   5.639   1.422  0.5673 -0.9666  0.9208
10201TIP3    H252095   1.036   5.573   1.511 -0.5875  0.0111  0.3425
10202TIP3   OH252096   6.528   0.657  16.801 -0.0651 -0.4032 -0.2589
10202TIP3    H152097   6.514   0.637  16.894 -1.1788 -0.3374 -0.3963
10202TIP3    H252098   6.443   0.688  16.771  0.6275  0.8998 -0.9755
10203TIP3   OH252099   5.993   1.866   3.236 -0.0489  0.0199  0.2505
10203TIP3    H152100   6.012   1.905   3.321 -0.7312 -1.9697  1.3699
10203TIP3    H252101   5.907   1.826   3.246 -0.2390 -0.0832 -1.4504
10204TIP3   OH252102   3.972   0.208   5.087 -0.5440 -0.0242 -0.2718
10204TIP3    H152103   3.968   0.229   5.180 -1.0721 -1.8953  0.1912
10204TIP3    H252104   3.971   0.292   5.042 -2.6122  0.9170  1.3631
10205TIP3   OH252105   6.402   4.265   4.267  0.2319 -0.3504 -0.3394
10205TIP3    H152106   6.468   4.223   4.212  0.9776  0.5472 -0.1495
10205TIP3    H252107   6.452   4.316   4.331 -0.6369 -0.5295  0.5057
10206TIP3   OH252108   4.690   5.363  14.887 -0.0590 -0.2931 -0.2316
10206TIP3    H152109   4.597   5.368  14.867  0.3317 -1.2004 -2.5693
10206TIP3    H252110   4.720   5.454  14.885 -0.9022  0.0225  0.7059
10207TIP3   OH252111   4.004   5.460   3.397 -0.3024 -0.6324 -0.1978
10207TIP3    H152112   4.093   5.477   3.364  0.1540 -1.7999  0.3914
10207TIP3    H252113   4.016   5.397   3.467 -1.1368  2.3700  2.9042
10208TIP3   OH252114   2.758   6.500   6.054 -0.8144  0.9837 -0.0541
10208TIP3    H152115   2.764   6.584   6.099 -0.7082  0.9662 -0.0341
10208TIP3    H252116   2.806   6.513   5.972  0.0087  0.6752  0.3561
10209TIP3   OH252117   5.052   2.977  11.438  0.1882  0.0532 -0.0587
10209TIP3    H152118   5.071   3.059  11.483 -0.4541  0.3912 -0.3829
10209TIP3    H252119   4.979   2.939  11.487  0.3878 -0.2522  0.0030
10210TIP3   OH252120   3.193   6.525   1.734  0.0423  0.4475  0.0658
10210TIP3    H152121   3.240   6.501   1.654 -0.1544  0.7439 -0.1377
10210TIP3    H252122   3.118   6.577   1.704 -0.8864 -0.6953  0.3152
10211TIP3   OH252123   0.392   6.816   4.405 -0.0762 -0.0257 -0.1010
10211TIP3    H152124   0.460   6.749   4.411  0.3903  0.3735 -0.8446
10211TIP3    H252125   0.312   6.767   4.382 -0.3684 -0.6663  2.0970
10212TIP3   OH252126   4.380   1.765  16.557 -0.2511 -0.3295 -0.3096
10212TIP3    H152127   4.322   1.709  16.506  1.1891 -1.9713 -0.2029
10212TIP3    H252128   4.411   1.831  16.495 -1.6825  0.1985 -0.5123
10213TIP3   OH252129   0.058   4.189   5.583 -0.4607 -0.6794  0.4100
10213TIP3    H152130   0.087   4.103   5.615 -1.2299 -0.0167  3.2040
10213TIP3    H252131   0.106   4.251   5.637 -0.0518  0.7007 -1.4568
10214TIP3   OH252132   0.898   2.186  11.027  0.3951  0.0694 -0.5587
10214TIP3    H152133   0.896   2.173  10.932 -0.1163 -0.0510 -0.5333
10214TIP3    H252134   0.987   2.219  11.044  1.9102 -3.5338 -0.5939
10215TIP3   OH252135   3.318   4.774  13.628 -0.2522 -0.3579 -0.4552
10215TIP3    H152136   3.369   4.699  13.598 -0.5436 -0.7837  0.0802
10215TIP3    H252137   3.374   4.818  13.691 -0.1425 -0.2180 -0.6506
10216TIP3   OH252138   1.489   0.610  12.419 -0.2402 -0.3244  0.2495
10216TIP3    H152139   1.489   0.571  12.331  1.1886  0.9013 -0.3493
10216TIP3    H252140   1.571   0.580  12.458  1.7267  3.0828 -0.8151
10217TIP3   OH252141   0.692   4.011   0.167  0.1769  0.3030  0.2514
10217TIP3    H152142   0.638   4.052   0.234  2.2621  0.3482  2.0114
10217TIP3    H252143   0.779   4.047   0.181  0.5119  1.2688 -3.3146
10218TIP3   OH252144   0.317   4.798  16.129 -0.0664  0.0106  1.1454
10218TIP3    H152145   0.356   4.870  16.081 -1.1059  0.0122  0.2675
10218TIP3    H252146   0.355   4.804  16.217  0.0711  1.4450  1.0069
10219TIP3   OH252147   6.486   0.469  11.838  0.1511  0.0587  0.0709
10219TIP3    H152148   6.579   0.462  11.817  0.6515  1.8610  1.4068
10219TIP3    H252149   6.472   0.403  11.907  0.0459 -1.2438 -1.1536
10220TIP3   OH252150   1.798   3.820  16.403 -0.7179  0.0894 -0.1033
10220TIP3    H152151   1.824   3.896  16.455  1.9128 -0.5512 -0.3393
10220TIP3    H252152   1.783   3.855  16.315 -0.8377  0.5220  0.0864
10221TIP3   OH252153   1.322   4.033  11.350  0.0740  0.1260 -0.0154
10221TIP3    H152154   1.340   3.940  11.359 -0.8054 -0.1118 -0.5801
10221TIP3    H252155   1.374   4.061  11.274  1.4191  0.4178  0.9831
10222TIP3   OH252156   6.020   3.947   3.763 -0.2822  0.5200 -0.1787
10222TIP3    H152157   6.016   3.999   3.683 -2.6205 -1.1471 -1.2771
10222TIP3    H252158   5.990   4.006   3.832  1.6008  1.9264 -0.4629
10223TIP3   OH252159   0.462   5.503   2.116 -0.2383  0.5347 -0.3102
10223TIP3    H152160   0.512   5.445   2.174  1.2029  0.4208 -1.6222
10223TIP3    H252161   0.407   5.445   2.064 -0.3895  0.5260 -0.1436
10224TIP3   OH252162   4.509   2.766   3.018  0.1022  0.4215  0.5670
10224TIP3    H152163   4.528   2.849   2.974  0.2661  0.5150  0.8139
10224TIP3    H252164   4.480   2.708   2.947  0.4793  0.5368  0.3158
10225TIP3   OH252165   1.473   6.295   0.401 -0.3457 -0.0764 -0.6389
10225TIP3    H152166   1.545   6.240   0.431 -0.3435  0.4849  0.4308
10225TIP3    H252167   1.514   6.359   0.343 -0.0831 -0.1561 -0.5444
10226TIP3   OH252168   3.084   4.216   4.609  0.3833  0.2932  0.2348
10226TIP3    H152169   3.055   4.175   4.690 -0.7180  0.5084 -0.0456
10226TIP3    H252170   3.109   4.305   4.635 -0.8932  0.6763  0.1788
10227TIP3   OH252171   3.627   6.595   0.002 -0.4076 -0.1890  0.6631
10227TIP3    H152172   3.639   6.501   0.014 -1.0025 -0.2612  0.7292
10227TIP3    H252173   3.714   6.628  -0.021 -0.8543 -1.3344 -3.3733
10228TIP3   OH252174   4.196   0.780  13.071  0.1818 -0.1692  0.2208
10228TIP3    H152175   4.289   0.778  13.050 -0.0414 -0.1814 -0.8419
10228TIP3    H252176   4.190   0.743  13.159  1.1960  0.0099  0.3728
10229TIP3   OH252177   6.125   1.571   0.512 -0.0813 -0.2680  0.4329
10229TIP3    H152178   6.118   1.516   0.434  0.1839  0.4844 -0.1483
10229TIP3    H252179   6.036   1.605   0.525  0.0209  0.1761  0.0126
10230TIP3   OH252180   2.360   5.024  15.654  0.2279  0.0835  0.2764
10230TIP3    H152181   2.344   5.021  15.559  0.6653  0.8042  0.1779
10230TIP3    H252182   2.308   4.951  15.689 -1.2103  0.7809 -0.3280
10231TIP3   OH252183   3.250   3.309   3.901  0.0836 -0.1790  0.0591
10231TIP3    H152184   3.206   3.393   3.892 -0.4456 -0.5763 -1.2431
10231TIP3    H252185   3.269   3.282   3.811 -1.3338 -2.2731  0.3231
10232TIP3   OH252186   2.559   4.806  13.369  0.3286 -0.7131  0.3555
10232TIP3    H152187   2.603   4.722  13.384  0.5111 -0.2559  2.8269
10232TIP3    H252188   2.545   4.842  13.457 -0.5356  1.4512 -0.5888
10233TIP3   OH252189   6.256   1.652   1.902 -0.2394  0.5446 -0.3870
10233TIP3    H152190   6.182   1.618   1.953 -0.3331  0.0933 -0.8148
10233TIP3    H252191   6.222   1.663   1.814  0.5498 -1.0231 -0.9391
10234TIP3   OH252192   2.475   1.771   4.728 -0.1440 -0.0732  0.1486
10234TIP3    H152193   2.404   1.712   4.700  0.2121 -0.5426  0.2249
10234TIP3    H252194   2.533   1.715   4.779 -0.5776  0.6825  1.5238
10235TIP3   OH252195   4.995   4.532  16.180 -0.1320  0.0595  0.7245
10235TIP3    H152196   4.912   4.516  16.135 -1.7495  1.6428  2.9582
10235TIP3    H252197   5.018   4.447  16.218 -1.3765 -0.1349  1.0826
10236TIP3   OH252198   2.486   5.048   1.067  0.5153 -0.1141  0.4233
10236TIP3    H152199   2.505   5.130   1.023  1.8093 -0.5722  0.0951
10236TIP3    H252200   2.415   5.070   1.128  0.8349  1.2318  0.3451
10237TIP3   OH252201   3.048   1.799  12.229 -0.6119  0.1963 -0.0994
10237TIP3    H152202   3.067   1.887  12.197 -0.6657  0.3737  0.3386
10237TIP3    H252203   3.124   1.777  12.284  0.4525 -0.9150 -1.9312
10238TIP3   OH252204   4.811   2.874  11.514  0.1715 -0.4515 -0.4072
10238TIP3    H152205   4.831   2.804  11.576 -1.3279 -0.3966  0.1804
10238TIP3    H252206   4.726   2.850  11.477  0.6819 -0.0855 -1.8824
10239TIP3   OH252207   0.314   1.687  14.320  0.2098  0.2102 -0.9197
10239TIP3    H152208   0.277   1.721  14.401  0.7291  1.7540 -1.3031
10239TIP3    H252209   0.240   1.686  14.259 -0.7328 -2.9899  0.0597
10240TIP3   OH252210   5.588   3.309   2.532 -0.1831 -0.3496  0.0372
10240TIP3    H152211   5.634   3.305   2.449 -0.9565 -2.5294 -0.3495
10240TIP3    H252212   5.638   3.252   2.590 -1.0860 -0.9199  0.2772
10241TIP3   OH252213   3.102   0.380  13.869 -0.4150  0.2959  0.6187
10241TIP3    H152214   3.129   0.290  13.886 -0.7189  0.1140  0.1467
10241TIP3    H252215   3.159   0.410  13.798 -0.3754  0.4463  0.7128
10242TIP3   OH252216   3.178   6.189   4.855 -0.3653  0.2250 -0.0555
10242TIP3    H152217   3.258   6.241   4.850 -1.2239  1.9570  2.3093
10242TIP3    H252218   3.209   6.098   4.854  1.4181  0.7975 -1.3819
10243TIP3   OH252219   1.087   5.170   1.241  0.1208 -0.2504 -0.2560
10243TIP3    H152220   0.999   5.200   1.217  0.3487  0.0184 -0.7715
10243TIP3    H252221   1.088   5.077   1.219 -0.3945 -0.5168  0.7926
10244TIP3   OH252222   0.353   4.873   2.463  0.1472  0.4911 -0.1222
10244TIP3    H152223   0.284   4.809   2.446 -0.2416  0.7611  0.3987
10244TIP3    H252224   0.338   4.942   2.397 -0.7478  1.0602  0.6466
10245TIP3   OH252225   4.560   0.314   2.995 -0.0086  0.0671  0.1936
10245TIP3    H152226   4.627   0.246   2.988 -0.6285 -0.4273 -1.7008
10245TIP3    H252227   4.478   0.269   2.972 -0.6712  1.1200  0.4252
10246TIP3   OH252228   6.634   6.610  10.854  0.3284  0.4352  0.2645
10246TIP3    H152229   6.646   6.515  10.855  1.2059  0.5427  1.2878
10246TIP3    H252230   6.539   6.622  10.852  0.1926 -0.4648  0.7209
10247TIP3   OH252231   0.280   5.262  11.931 -0.8567 -0.0221  0.8531
10247TIP3    H152232   0.360   5.228  11.891 -0.7962  0.3171  0.6772
10247TIP3    H252233   0.228   5.295  11.857 -0.6756  0.7554  1.0561
10248TIP3   OH252234   3.196   1.739  14.643  0.4020 -0.2446  0.5044
10248TIP3    H152235   3.180   1.832  14.662  3.0946  0.7593 -1.5793
10248TIP3    H252236   3.228   1.703  14.726  1.4559  1.2692  0.7898
10249TIP3   OH252237   4.917   1.293  14.269 -0.4493 -0.2515 -0.6200
10249TIP3    H152238   4.830   1.257  14.282  0.0253 -0.9324  0.8717
10249TIP3    H252239   4.902   1.387  14.254 -1.3827 -0.2187  0.4152
10250TIP3   OH252240   3.601   2.698  15.340  0.1081  0.1345  0.1219
10250TIP3    H152241   3.538   2.627  15.354 -0.5710  0.4964 -0.9395
10250TIP3    H252242   3.584   2.759  15.412  1.6415 -1.3781  1.8506
10251TIP3   OH252243   1.571   5.271   3.493 -0.3112  0.0617  0.5360
10251TIP3    H152244   1.512   5.340   3.464  1.5128  1.1814 -0.7333
10251TIP3    H252245   1.540   5.192   3.449 -1.4863  0.3686  0.7778
10252TIP3   OH252246   6.012   2.139  11.131  0.0678 -0.1418 -0.0891
10252TIP3    H152247   5.944   2.206  11.133 -0.7317 -0.9262  1.3862
10252TIP3    H252248   6.024   2.114  11.223  1.3118 -1.0660 -0.4605
10253TIP3   OH252249   4.305   1.237  16.445 -0.0021  0.0824  0.4354
10253TIP3    H152250   4.343   1.158  16.483 -1.1558  0.0553  1.6060
10253TIP3    H252251   4.379   1.297  16.437  0.4207 -0.1344  2.2088
10254TIP3   OH252252   0.374   2.778  16.682  0.1499 -0.4374 -0.4083
10254TIP3    H152253   0.340   2.754  16.769 -0.7182 -1.6515 -1.0512
10254TIP3    H252254   0.456   2.728  16.675 -0.2025 -0.9954 -0.6071
10255TIP3   OH252255   4.532   6.746   5.173  0.1516  0.1144 -0.4214
10255TIP3    H152256   4.477   6.795   5.112 -1.8574 -2.5001 -0.8626
10255TIP3    H252257   4.565   6.672   5.122  0.5091 -0.7545  1.0153
10256TIP3   OH252258   1.253   4.230  13.434 -0.3726 -0.1929 -0.7061
10256TIP3    H152259   1.178   4.283  13.461 -1.2115 -1.6683 -0.0247
10256TIP3    H252260   1.283   4.187  13.515 -0.2661 -1.4238 -1.3835
10257TIP3   OH252261   3.458   3.356  17.052  0.3874 -0.4622 -0.5223
10257TIP3    H152262   3.513   3.296  17.003 -1.4025 -1.6590 -1.1687
10257TIP3    H252263   3.504   3.370  17.135  0.9277 -2.6441 -0.4092
10258TIP3   OH252264   1.483   5.069  16.846 -0.0500  0.7707 -0.4183
10258TIP3    H152265   1.419   5.128  16.887  0.1032  1.1504 -0.7219
10258TIP3    H252266   1.455   5.062  16.755 -0.2730  0.0832 -0.3060
10259TIP3   OH252267   1.983   5.320   1.775 -0.5799 -0.0678  0.2627
10259TIP3    H152268   1.922   5.268   1.723  0.1014 -0.4928 -0.1104
10259TIP3    H252269   2.004   5.265   1.851  0.8164 -0.7172 -0.5659
10260TIP3   OH252270   5.397   1.696  14.257 -0.0562  0.4060 -0.1211
10260TIP3    H152271   5.398   1.791  14.243  2.1224  0.3645 -0.5627
10260TIP3    H252272   5.359   1.686  14.344  2.0020  1.9238  1.0598
10261TIP3   OH252273   3.605   6.435  14.815 -0.0413  0.6548  0.3048
10261TIP3    H152274   3.649   6.468  14.736  0.0214 -1.1618 -0.4553
10261TIP3    H252275   3.514   6.460  14.803  0.1041  1.0828  0.0448
10262TIP3   OH252276   3.394   3.170   4.126 -0.3719 -0.6479  0.4556
10262TIP3    H152277   3.329   3.171   4.196 -0.7654 -1.7710  0.1297
10262TIP3    H252278   3.349   3.211   4.052 -0.5461 -0.9920  0.3699
10263TIP3   OH252279   2.158   2.218  11.336 -0.4988 -0.3106 -0.5380
10263TIP3    H152280   2.131   2.128  11.318  0.4289 -0.6029 -0.5691
10263TIP3    H252281   2.245   2.209  11.377  0.2397  0.6075 -1.8091
10264TIP3   OH252282   0.934   5.194  11.100  0.2127 -0.5408  0.4398
10264TIP3    H152283   0.957   5.174  11.009  3.0892  3.1759  0.0978
10264TIP3    H252284   0.982   5.130  11.152 -0.7101 -2.1043 -0.5549
10265TIP3   OH252285   5.255   3.036  12.251  0.0595 -0.1238  0.7289
10265TIP3    H152286   5.331   3.002  12.205 -0.7141 -1.5425  0.4460
10265TIP3    H252287   5.241   2.974  12.323  0.0293  0.9265  1.6514
10266TIP3   OH252288   1.065   1.467  10.529  0.1883 -0.3478 -0.2478
10266TIP3    H152289   0.970   1.474  10.516 -0.1528 -1.9584  0.9775
10266TIP3    H252290   1.086   1.377  10.503  1.1798 -0.3332  0.4478
10267TIP3   OH252291   1.254   2.884   2.797  0.0155 -0.0468 -0.1008
10267TIP3    H152292   1.315   2.952   2.769  0.0663  0.6711  1.5772
10267TIP3    H252293   1.258   2.817   2.729  2.7988 -0.1021  0.0213
10268TIP3   OH252294   6.288   0.808  13.586  0.1759  0.0901 -0.2315
10268TIP3    H152295   6.309   0.768  13.501 -0.5958  1.3273 -1.0354
10268TIP3    H252296   6.198   0.779  13.604 -0.8320  2.2460 -1.3755
10269TIP3   OH252297   5.985   1.428  10.161  0.7314  0.0004 -0.2083
10269TIP3    H152298   5.967   1.410  10.068 -0.9238 -1.5475  0.3459
10269TIP3    H252299   6.078   1.408  10.172  0.8013 -0.4364 -1.3958
10270TIP3   OH252300   3.595   2.909  15.169 -0.0366  0.3271 -0.4199
10270TIP3    H152301   3.613   2.836  15.229 -0.3595  0.4171 -0.2108
10270TIP3    H252302   3.669   2.909  15.108 -1.0008 -1.4323 -1.6593
10271TIP3   OH252303   3.563   5.126   3.069  0.2501  0.1370 -0.0555
10271TIP3    H152304   3.519   5.129   3.154  0.1987 -2.1032  0.0580
10271TIP3    H252305   3.645   5.174   3.082 -0.8388  1.8980  0.5362
10272TIP3   OH252306   3.248   6.602   5.386  0.4016  0.1724  0.1510
10272TIP3    H152307   3.313   6.592   5.456 -0.1301  2.1316  1.0126
10272TIP3    H252308   3.171   6.555   5.418  0.7086 -0.3570  0.1097
10273TIP3   OH252309   6.731   3.348   5.649 -0.1671 -0.6081  0.0838
10273TIP3    H152310   6.810   3.295   5.661  2.2880  2.2643 -1.8578
10273TIP3    H252311   6.721   3.395   5.732 -1.5736 -2.8758  1.3166
10274TIP3   OH252312   1.480   4.458  14.934 -0.1161  0.1605 -0.1920
10274TIP3    H152313   1.466   4.367  14.961 -0.9531  0.2222 -0.3812
10274TIP3    H252314   1.501   4.504  15.015 -0.0673 -0.1302 -0.0367
10275TIP3   OH252315   5.135   5.524   1.787 -0.1151  0.1845 -0.5392
10275TIP3    H152316   5.054   5.558   1.749 -0.4754  2.2817  1.8661
10275TIP3    H252317   5.205   5.568   1.739 -0.4777  0.7263 -0.5742
10276TIP3   OH252318   3.675   1.235   3.088 -0.1914 -0.3107  0.7815
10276TIP3    H152319   3.724   1.310   3.055 -0.8748  0.6711  1.9047
10276TIP3    H252320   3.730   1.159   3.069  0.4190  0.4491 -0.5584
10277TIP3   OH252321   6.429   5.708   4.115  0.0016 -0.2424 -0.7626
10277TIP3    H152322   6.338   5.739   4.117 -0.2148 -0.8692 -0.5563
10277TIP3    H252323   6.467   5.751   4.039 -0.2054  0.7331 -0.3323
10278TIP3   OH252324   2.430   2.099  16.088 -0.0861 -0.0795 -0.1332
10278TIP3    H152325   2.451   2.100  16.181 -3.0124  0.0392  0.6325
10278TIP3    H252326   2.463   2.182  16.055  0.4161  0.1683  0.9576
10279TIP3   OH252327   6.468   4.577   4.889 -0.7734 -0.4934  1.0144
10279TIP3    H152328   6.492   4.484   4.888 -0.4092 -0.4048  0.0047
10279TIP3    H252329   6.526   4.616   4.953  1.2043 -0.4586 -0.6942
10280TIP3   OH252330   4.546   1.488  12.546 -0.4638 -0.1690  0.0440
10280TIP3    H152331   4.496   1.473  12.466 -3.0679  1.9112  1.1234
10280TIP3    H252332   4.542   1.583  12.558  0.1240 -0.4032  2.4932
10281TIP3   OH252333   4.343   0.898   2.930  0.3395 -0.1378  0.3272
10281TIP3    H152334   4.356   0.818   2.980 -1.8584 -1.3314 -0.8518
10281TIP3    H252335   4.299   0.958   2.991  2.4689  0.4578  1.3758
10282TIP3   OH252336   1.194   1.075  13.245 -0.3532  0.0802 -0.0522
10282TIP3    H152337   1.255   1.136  13.202  0.5341 -0.8256 -0.1122
10282TIP3    H252338   1.123   1.064  13.182 -0.8053  1.4452  0.1708
10283TIP3   OH252339   1.783   6.525  15.996 -0.4977  0.2009  0.3122
10283TIP3    H152340   1.846   6.569  15.939  0.7942 -0.9852  0.7719
10283TIP3    H252341   1.732   6.469  15.938  0.8421 -1.0390  0.2750
10284TIP3   OH252342   2.935   2.266  13.247  0.1322 -0.1898 -0.1556
10284TIP3    H152343   3.016   2.246  13.294  1.3760 -1.6292 -2.7139
10284TIP3    H252344   2.964   2.300  13.162 -1.9913  0.7031 -0.6004
10285TIP3   OH252345   4.454   3.526  14.112  0.3640 -1.2066  0.2037
10285TIP3    H152346   4.427   3.617  14.128 -0.5453 -1.3475 -0.4770
10285TIP3    H252347   4.549   3.532  14.099  0.1691 -0.1773 -0.9540
10286TIP3   OH252348   1.714   6.268  10.812 -0.6238  0.0239  0.6842
10286TIP3    H152349   1.764   6.216  10.874  0.5381 -0.7856 -0.8484
10286TIP3    H252350   1.647   6.312  10.864  0.5106 -0.3563  2.5171
10287TIP3   OH252351   1.262   6.677  14.020 -0.3798 -0.3864  0.0228
10287TIP3    H152352   1.226   6.750  13.969  0.3675 -1.8476 -2.7839
10287TIP3    H252353   1.327   6.718  14.077 -0.7378  1.2777 -0.6867
10288TIP3   OH252354   2.234   4.666  14.851  0.1994  0.2209  0.0536
10288TIP3    H152355   2.222   4.589  14.795 -0.7806  0.5947 -0.2780
10288TIP3    H252356   2.286   4.726  14.797  0.3759  0.0661  0.0488
10289TIP3   OH252357   3.345   0.112  13.408 -0.2055  0.0382 -0.1036
10289TIP3    H152358   3.344   0.062  13.327 -0.3126  1.5460 -1.0651
10289TIP3    H252359   3.432   0.097  13.445  0.4869  0.7453 -1.4107
10290TIP3   OH252360   0.923   0.577  16.901 -0.1309  0.1996 -0.1572
10290TIP3    H152361   0.911   0.626  16.982  2.3402 -0.4210  0.6784
10290TIP3    H252362   0.865   0.620  16.838  0.1765  2.7034  1.1431
10291TIP3   OH252363   4.691   2.791  15.561 -0.2247 -0.3938 -0.2969
10291TIP3    H152364   4.717   2.702  15.538  2.4226 -0.4087  2.2226
10291TIP3    H252365   4.773   2.840  15.569 -1.3129  1.2602  2.0383
10292TIP3   OH252366   3.755   1.192  15.265  0.1082 -0.5753  0.0595
10292TIP3    H152367   3.740   1.282  15.234  2.5027 -0.4074 -0.8680
10292TIP3    H252368   3.743   1.197  15.360 -0.4628  0.5665 -0.0592
10293TIP3   OH252369   1.141   4.411  15.927  0.8750 -0.3084 -0.1228
10293TIP3    H152370   1.064   4.375  15.971  0.8460  0.5570  0.5502
10293TIP3    H252371   1.162   4.346  15.860 -1.2585  0.0596 -1.2414
10294TIP3   OH252372   5.386   5.596  13.148 -0.8571 -0.3690  0.3709
10294TIP3    H152373   5.421   5.595  13.237 -1.8857  0.0324  0.7998
10294TIP3    H252374   5.383   5.503  13.122 -2.2124 -0.6654  1.4578
10295TIP3   OH252375   2.589   5.152  15.672 -0.9428  0.1427 -0.5995
10295TIP3    H152376   2.589   5.144  15.767 -2.0990  1.8117 -0.4189
10295TIP3    H252377   2.510   5.106  15.644  0.7531 -2.7810 -1.1044
10296TIP3   OH252378   2.281   1.263   2.858 -0.1670  0.0805  0.2593
10296TIP3    H152379   2.240   1.177   2.856  0.0287 -0.0327  1.0942
10296TIP3    H252380   2.360   1.253   2.804  0.5846 -0.6490  1.4540
10297TIP3   OH252381   0.010   6.419  14.800 -0.5171  0.9102  0.4432
10297TIP3    H152382  -0.043   6.495  14.821 -0.2420  1.5168 -0.9874
10297TIP3    H252383   0.033   6.429  14.708 -0.5550 -0.9522  0.1805
10298TIP3   OH252384   1.290   1.887  13.367 -0.2684  0.0745 -0.4640
10298TIP3    H152385   1.310   1.970  13.411  1.1439  0.2264 -1.3396
10298TIP3    H252386   1.307   1.820  13.434 -3.7355  0.4987  1.0641
10299TIP3   OH252387   1.080   1.399  13.770  0.2959  0.2035  0.1764
10299TIP3    H152388   1.096   1.415  13.863 -0.6834  1.2161  0.1928
10299TIP3    H252389   1.100   1.306  13.758  1.1999  0.2447  1.2210
10300TIP3   OH252390   1.653   0.110   3.678  0.7245  0.6665  0.1379
10300TIP3    H152391   1.595   0.170   3.725 -0.3579  0.9116 -1.4341
10300TIP3    H252392   1.737   0.117   3.724  0.4697  2.9290  0.3888
10301TIP3   OH252393   0.281   5.020   0.120 -0.0219  0.5102  0.2128
10301TIP3    H152394   0.310   5.034   0.210 -0.4674 -0.0263  0.4502
10301TIP3    H252395   0.331   5.082   0.068  1.8630 -0.6731  0.5440
10302TIP3   OH252396   4.192   0.510  15.707 -0.2774  0.4373  0.5283
10302TIP3    H152397   4.246   0.435  15.683 -1.4673 -0.2270 -0.1149
10302TIP3    H252398   4.194   0.567  15.630 -0.9211  0.1520  0.2942
10303TIP3   OH252399   6.393   4.707   0.317  0.3599 -0.2581 -0.0578
10303TIP3    H152400   6.422   4.784   0.366 -1.2385  0.1917  0.2435
10303TIP3    H252401   6.394   4.636   0.381  0.7261 -0.2313 -0.0344
10304TIP3   OH252402   1.429   5.331  13.411 -0.4442  0.4235  0.3007
10304TIP3    H152403   1.455   5.422  13.398  1.4001  0.0793  1.2163
10304TIP3    H252404   1.384   5.307  13.330  0.2611  1.7415 -0.5186
10305TIP3   OH252405   0.812   0.292   1.713 -0.8594 -0.9140  0.4404
10305TIP3    H152406   0.885   0.239   1.680 -0.6358 -0.4135  0.1120
10305TIP3    H252407   0.822   0.376   1.668 -0.6078 -0.2431  1.7123
10306TIP3   OH252408   1.733   4.457  13.411  0.3218 -0.2651 -0.6147
10306TIP3    H152409   1.820   4.448  13.372  0.3891  1.4528 -0.9470
10306TIP3    H252410   1.684   4.510  13.348 -0.0879  1.1851  0.8659
10307TIP3   OH252411   4.286   6.042   3.877 -0.3046  0.0619 -0.4887
10307TIP3    H152412   4.263   6.075   3.964  2.2141 -0.7228  0.5556
10307TIP3    H252413   4.361   5.985   3.892 -1.4359 -2.2425 -2.8662
10308TIP3   OH252414   5.591   2.739  12.638 -0.1532  0.3322 -0.0423
10308TIP3    H152415   5.556   2.706  12.555  2.1206 -0.8326 -0.6428
10308TIP3    H252416   5.585   2.665  12.698 -0.3703  0.6837  0.3736
10309TIP3   OH252417   3.588   4.508  12.506 -0.4659  0.4066 -0.0157
10309TIP3    H152418   3.554   4.422  12.479 -0.5623  0.0436  1.2169
10309TIP3    H252419   3.545   4.526  12.589 -0.3878  1.6307 -0.2179
10310TIP3   OH252420   5.061   6.705   3.657  1.2288 -0.0065 -0.8544
10310TIP3    H152421   5.114   6.635   3.620  0.9933 -1.6655  1.6608
10310TIP3    H252422   5.123   6.776   3.675  1.9956 -0.6269 -1.0070
10311TIP3   OH252423   0.096   4.681   5.104  0.2333  0.6953  0.1584
10311TIP3    H152424   0.147   4.746   5.056  0.0836  1.7937  1.4113
10311TIP3    H252425   0.109   4.704   5.196  1.9276 -2.4120  0.8078
10312TIP3   OH252426   1.153   2.991   1.053  0.0317  0.3982  0.2373
10312TIP3    H152427   1.087   2.930   1.020  0.5127  0.0631 -0.1285
10312TIP3    H252428   1.152   3.063   0.990 -0.0096  0.4075  0.2488
10313TIP3   OH252429   1.608   1.874  13.390 -0.0454  0.1490 -0.0370
10313TIP3    H152430   1.645   1.792  13.356 -0.6882  0.0881 -0.6016
10313TIP3    H252431   1.574   1.851  13.476 -0.6701 -0.3008 -0.3986
10314TIP3   OH252432   1.068   1.236  11.679  0.0327  0.5431 -0.3586
10314TIP3    H152433   1.079   1.258  11.587 -0.1211  0.3272 -0.4286
10314TIP3    H252434   0.983   1.272  11.703 -0.0671  0.3262 -0.3837
10315TIP3   OH252435   3.190   6.560   0.651  0.3462  0.2916  0.2040
10315TIP3    H152436   3.101   6.561   0.688  0.6607 -0.8983  1.0695
10315TIP3    H252437   3.246   6.535   0.725  1.2227 -0.3608 -0.6561
10316TIP3   OH252438   3.579   1.957   0.070  0.1256 -0.0672 -0.8463
10316TIP3    H152439   3.493   1.990   0.095  0.5625  0.8323 -0.4979
10316TIP3    H252440   3.633   1.971   0.147  1.3186  2.0931 -1.9918
10317TIP3   OH252441   1.633   3.208  15.229  0.3177 -0.5180  0.7481
10317TIP3    H152442   1.643   3.115  15.207  1.2491 -0.6485  1.7012
10317TIP3    H252443   1.653   3.254  15.147  0.1438 -1.1401  0.3486
10318TIP3   OH252444   5.403   2.322  13.803  0.3693  0.0800 -0.8653
10318TIP3    H152445   5.457   2.243  13.814  1.1459  0.3110 -2.7054
10318TIP3    H252446   5.462   2.394  13.824 -1.0234  0.2279  3.4100
10319TIP3   OH252447   6.117   0.966   0.178 -0.4249 -0.8502 -0.1436
10319TIP3    H152448   6.144   1.052   0.145 -2.2741  1.6135  3.9524
10319TIP3    H252449   6.194   0.934   0.226 -1.3560  1.5697  3.3425
10320TIP3   OH252450   1.243   3.622  13.014  0.1018  0.5944  0.0220
10320TIP3    H152451   1.329   3.617  13.055  0.2653 -0.7561 -0.4320
10320TIP3    H252452   1.262   3.639  12.921 -0.0350 -0.8481 -0.2986
10321TIP3   OH252453   5.823   3.076  16.166  0.4780 -0.1155 -0.7653
10321TIP3    H152454   5.882   3.024  16.111 -1.5488 -1.0066 -2.2482
10321TIP3    H252455   5.875   3.152  16.191  2.6361 -1.4406 -0.9210
10322TIP3   OH252456   5.649   1.586  16.494  0.2461  0.1823  0.5867
10322TIP3    H152457   5.698   1.548  16.566 -1.7599 -1.6556  1.1021
10322TIP3    H252458   5.560   1.596  16.528 -0.4364  0.6036 -1.1916
10323TIP3   OH252459   4.726   3.128   0.770 -0.1729  0.0883  0.3553
10323TIP3    H152460   4.716   3.181   0.691 -0.4521  4.3650  2.9283
10323TIP3    H252461   4.662   3.058   0.761  0.0205  0.2107 -3.2492
10324TIP3   OH252462   4.135   5.480  11.345  0.0832 -0.5565 -0.9079
10324TIP3    H152463   4.084   5.428  11.284 -1.3815 -0.8710  0.4956
10324TIP3    H252464   4.223   5.441  11.344 -0.3353 -1.4989 -1.6593
10325TIP3   OH252465   4.696   3.567   2.049  0.2609  0.3408 -0.2637
10325TIP3    H152466   4.725   3.476   2.057  1.7197  0.8342  0.3610
10325TIP3    H252467   4.626   3.575   2.114 -0.0756 -0.3875 -0.5169
10326TIP3   OH252468   2.263   4.239  16.173  0.2376  0.0708 -0.1449
10326TIP3    H152469   2.302   4.154  16.193  0.0406 -0.0338 -0.1952
10326TIP3    H252470   2.293   4.259  16.084  0.9088  0.4180  0.1566
10327TIP3   OH252471   5.757   0.997   0.578 -0.0344 -0.1691  0.0933
10327TIP3    H152472   5.815   1.047   0.520  0.2666  1.2363  1.5376
10327TIP3    H252473   5.809   0.981   0.657 -1.7424  1.7243  1.7151
10328TIP3   OH252474   1.655   4.859  12.632 -0.0327  0.0696 -0.0880
10328TIP3    H152475   1.623   4.916  12.562 -2.8054  0.2058  1.1690
10328TIP3    H252476   1.736   4.823  12.597 -0.5080  1.2834 -2.7473
10329TIP3   OH252477   5.817   6.594   0.336  0.3721 -0.1788 -0.2780
10329TIP3    H152478   5.897   6.602   0.284  0.4010  0.8145 -0.0983
10329TIP3    H252479   5.774   6.679   0.328 -1.1137 -0.9668 -1.0687
10330TIP3   OH252480   6.271   6.584  14.416  0.1201  0.1055  0.0223
10330TIP3    H152481   6.321   6.638  14.355  2.7042 -0.4201  1.5572
10330TIP3    H252482   6.312   6.498  14.413 -0.3655 -0.2355  1.6970
10331TIP3   OH252483   3.996   0.583  13.731 -0.0350  0.1522  0.2811
10331TIP3    H152484   3.957   0.504  13.695  0.7463 -0.5824  0.9985
10331TIP3    H252485   4.063   0.608  13.667  1.5641 -1.3252  1.2721
10332TIP3   OH252486   4.084   5.312   5.048  0.0261 -0.2475  0.1255
10332TIP3    H152487   4.085   5.266   5.132 -1.1262  0.0153  0.3026
10332TIP3    H252488   4.131   5.394   5.066  1.6399 -1.0926 -0.0614
10333TIP3   OH252489   4.594   6.256   0.086 -0.9954  0.1554 -0.3839
10333TIP3    H152490   4.536   6.280   0.158  0.0460  3.3466 -0.4740
10333TIP3    H252491   4.668   6.212   0.129 -2.5006 -2.3379 -0.1066
10334TIP3   OH252492   5.475   4.160  13.444 -0.0918 -0.6146  0.4897
10334TIP3    H152493   5.439   4.073  13.461  2.5014 -1.6396  1.2853
10334TIP3    H252494   5.523   4.182  13.524 -0.7062  1.5994  0.3126
10335TIP3   OH252495   6.563   1.923  16.142  0.1886  0.3597 -0.3050
10335TIP3    H152496   6.477   1.927  16.100  0.2117 -0.9021 -0.5120
10335TIP3    H252497   6.575   1.830  16.164  1.3375  0.5707  0.0481
10336TIP3   OH252498   5.700   2.828  12.229  0.1617 -0.2873 -0.3772
10336TIP3    H152499   5.661   2.912  12.204  1.1764  0.9839  1.9656
10336TIP3    H252500   5.631   2.783  12.278  0.6970  0.8036  1.4668
10337TIP3   OH252501   6.387   4.614   4.300  0.0607  0.3199 -0.1852
10337TIP3    H152502   6.412   4.684   4.240  0.8678  1.9907  1.9621
10337TIP3    H252503   6.436   4.633   4.380 -2.3551 -0.7028  1.6584
10338TIP3   OH252504   0.589   0.674  15.024 -0.2769  0.7139  0.5238
10338TIP3    H152505   0.605   0.710  14.937  2.8167 -0.1616  0.6277
10338TIP3    H252506   0.529   0.601  15.009  0.4228  0.3964 -0.9324
10339TIP3   OH252507   2.249   3.766  13.997  0.1854  0.7629 -0.3529
10339TIP3    H152508   2.223   3.857  13.982 -0.8414  0.4215 -0.7449
10339TIP3    H252509   2.168   3.716  13.985  1.0107 -0.3556 -1.5698
10340TIP3   OH252510   1.640   1.677  12.162  0.8202  0.8844 -0.6324
10340TIP3    H152511   1.700   1.610  12.129  0.6761  0.3238  0.1972
10340TIP3    H252512   1.693   1.757  12.165  1.1582  0.6853 -1.1051
10341TIP3   OH252513   0.116   1.370   3.090  0.3031 -0.3126  0.4807
10341TIP3    H152514   0.025   1.395   3.106  0.0388 -0.6668 -0.4058
10341TIP3    H252515   0.138   1.313   3.163 -0.4750 -0.9333  0.2425
10342TIP3   OH252516   2.404   5.194   1.729 -0.1896  0.3102 -0.0929
10342TIP3    H152517   2.380   5.112   1.772  0.2233  0.1163 -0.2247
10342TIP3    H252518   2.478   5.170   1.672  0.5043  0.9429  0.5266
10343TIP3   OH252519   2.549   0.158  12.891 -0.0702  0.5310 -0.0526
10343TIP3    H152520   2.514   0.146  12.979 -0.0291  0.6075 -0.0257
10343TIP3    H252521   2.590   0.073  12.869 -0.1332  0.4929 -0.0228
10344TIP3   OH252522   5.472   3.008   2.631  0.0652  0.6660 -0.0065
10344TIP3    H152523   5.528   2.950   2.683 -0.5392  1.2173  1.3009
10344TIP3    H252524   5.484   2.978   2.541  3.2476  1.3786  0.0430
10345TIP3   OH252525   1.379   3.968  12.768 -0.1994  0.0289  0.5568
10345TIP3    H152526   1.403   4.057  12.743 -0.1377 -0.3936 -1.0162
10345TIP3    H252527   1.443   3.912  12.724 -1.1809 -0.8701  0.2172
10346TIP3   OH252528   2.836   3.444  16.001  0.5215  0.3138  0.1578
10346TIP3    H152529   2.930   3.463  16.003  0.7121 -0.4444 -0.7492
10346TIP3    H252530   2.824   3.396  15.919 -0.5160 -0.3506  0.6887
10347TIP3   OH252531   5.249   6.744  14.627  0.0356  0.4085  0.0541
10347TIP3    H152532   5.217   6.679  14.565 -0.7870  0.1398  0.7381
10347TIP3    H252533   5.213   6.716  14.711  3.6272 -1.0293  1.2885
10348TIP3   OH252534   3.096   6.552  14.492 -0.1072 -0.2634  0.1084
10348TIP3    H152535   3.167   6.614  14.509 -1.1867  1.1690 -0.4109
10348TIP3    H252536   3.031   6.569  14.560 -1.6368  1.1507 -1.6081
10349TIP3   OH252537   3.000   6.708   1.688  0.2599  0.2307  0.3742
10349TIP3    H152538   2.905   6.707   1.685  0.2062  1.1808  1.1722
10349TIP3    H252539   3.026   6.757   1.610  0.0787  0.2013  0.2947
10350TIP3   OH252540   3.878   0.929   0.382 -0.3283 -0.2500  0.1018
10350TIP3    H152541   3.935   0.993   0.425 -0.1513 -1.2945  1.5191
10350TIP3    H252542   3.833   0.978   0.314 -0.2857  1.4004  1.2199
10351TIP3   OH252543   3.630   3.845  13.772 -0.2868 -0.3229  0.2114
10351TIP3    H152544   3.534   3.843  13.767 -0.3024  1.1897 -0.4653
10351TIP3    H252545   3.658   3.871  13.685  0.6022  1.8681  1.0923
10352TIP3   OH252546   1.884   1.197   3.058  0.2884  0.0353 -0.1407
10352TIP3    H152547   1.826   1.249   3.114  2.0827  1.9530  0.0797
10352TIP3    H252548   1.835   1.187   2.977 -0.1753  2.1554 -0.2032
10353TIP3   OH252549   2.853   3.184   5.499  0.7437 -0.1637  0.1739
10353TIP3    H152550   2.783   3.189   5.563 -0.6986  1.9009 -1.4247
10353TIP3    H252551   2.840   3.261   5.443  4.1502  0.1606 -0.3698
10354TIP3   OH252552   6.158   0.575   1.561 -0.3977  0.6530  0.1359
10354TIP3    H152553   6.251   0.598   1.566  0.0697 -0.5238 -1.8260
10354TIP3    H252554   6.117   0.627   1.629  1.5914  1.7819  0.5672
10355TIP3   OH252555   1.486   0.107  17.139 -0.5719  0.0846  0.2825
10355TIP3    H152556   1.470   0.141  17.051  0.5497  0.5219  0.2375
10355TIP3    H252557   1.401   0.115  17.183 -1.0745  0.1078 -0.6706
10356TIP3   OH252558   4.933   5.548   3.882  0.3144  0.0606  0.0346
10356TIP3    H152559   4.969   5.460   3.891 -3.8227 -1.8255  0.0291
10356TIP3    H252560   4.942   5.586   3.970  0.0271 -1.3280  0.7001
10357TIP3   OH252561   2.970   1.504  12.716 -0.3772  0.1309 -0.6766
10357TIP3    H152562   3.041   1.524  12.777 -1.1842 -0.8991  0.6380
10357TIP3    H252563   2.970   1.409  12.710 -0.7637  0.1869 -1.7735
10358TIP3   OH252564   5.618   1.708   5.484 -0.5744  0.0513 -0.0446
10358TIP3    H152565   5.545   1.674   5.432 -0.8477  0.2689  0.2012
10358TIP3    H252566   5.578   1.764   5.550 -0.0512  1.9595 -1.2596
10359TIP3   OH252567   6.528   1.631  16.089  0.1587  0.0442 -0.1329
10359TIP3    H152568   6.463   1.561  16.090 -1.3120  1.1998 -2.9750
10359TIP3    H252569   6.507   1.682  16.011  1.9942  2.8953  1.0627
10360TIP3   OH252570   3.062   2.408   0.395  0.8015  0.5598  0.1545
10360TIP3    H152571   3.007   2.466   0.447  1.4357  1.4374 -0.1353
10360TIP3    H252572   3.073   2.330   0.451 -2.8254 -0.8412 -0.8071
10361TIP3   OH252573   5.970   5.895  14.517 -0.4688 -0.9252 -0.1524
10361TIP3    H152574   5.937   5.857  14.435 -1.0806  1.3101 -1.0135
10361TIP3    H252575   5.891   5.920  14.565 -0.1525  1.4532 -0.7506
10362TIP3   OH252576   5.102   4.827   4.086 -0.7620  0.0641 -0.4190
10362TIP3    H152577   5.152   4.899   4.047  1.9523  0.2684  2.8997
10362TIP3    H252578   5.166   4.757   4.098 -2.3944 -1.4183 -0.0433
10363TIP3   OH252579   6.795   4.801   2.300  0.2513  0.3107  0.2198
10363TIP3    H152580   6.863   4.793   2.367  0.4798  0.3809 -0.0025
10363TIP3    H252581   6.799   4.718   2.252  0.1217  0.2805  0.2622
10364TIP3   OH252582   0.085   1.323   3.552  0.7556 -0.1843 -0.5829
10364TIP3    H152583   0.135   1.345   3.473 -1.2926  0.8044 -1.7018
10364TIP3    H252584  -0.005   1.313   3.521 -0.6120  2.7291  1.9318
10365TIP3   OH252585   4.240   5.909   0.618 -0.4103  0.2350  0.0801
10365TIP3    H152586   4.233   5.908   0.523  2.3602 -0.2472 -0.2123
10365TIP3    H252587   4.332   5.930   0.635 -0.9836  1.0554  2.6840
10366TIP3   OH252588   1.166   6.190  11.338  0.2649 -0.3091 -0.0398
10366TIP3    H152589   1.184   6.264  11.280 -0.7989 -0.7146 -0.9168
10366TIP3    H252590   1.253   6.163  11.369  1.0562 -0.8938 -2.4871
10367TIP3   OH252591   2.717   1.352   5.812 -0.1101 -0.2470  0.1316
10367TIP3    H152592   2.787   1.299   5.775 -0.6006  0.2066 -1.5094
10367TIP3    H252593   2.758   1.399   5.884  0.9218 -1.0145  0.0595
10368TIP3   OH252594   2.613   4.223   4.982 -0.1221 -0.2884 -0.8935
10368TIP3    H152595   2.592   4.234   4.889  1.2029 -1.6566 -1.3870
10368TIP3    H252596   2.662   4.141   4.986  0.1430 -0.0768  0.9832
10369TIP3   OH252597   1.165   5.879  11.292 -0.0432  0.5812  0.3918
10369TIP3    H152598   1.159   5.959  11.240  3.5096 -0.3585 -1.8390
10369TIP3    H252599   1.234   5.898  11.357 -1.0584  0.1510  1.6372
10370TIP3   OH252600   5.192   0.300   2.591  0.3520  0.0283 -0.9514
10370TIP3    H152601   5.103   0.336   2.594  0.9588  1.5377  0.7041
10370TIP3    H252602   5.208   0.283   2.498 -1.9805 -1.2027 -1.2052
10371TIP3   OH252603   4.356   0.994  11.819 -0.3859  0.0626 -0.3164
10371TIP3    H152604   4.382   1.002  11.727  1.3462 -0.0810  0.1193
10371TIP3    H252605   4.409   0.922  11.853  0.4345  1.3032  1.2368
10372TIP3   OH252606   1.989   5.631  14.254 -0.3153 -0.0086 -0.0479
10372TIP3    H152607   2.005   5.580  14.175 -0.3780 -1.4151  0.8147
10372TIP3    H252608   2.071   5.625  14.303 -0.3118  0.7716  0.0503
10373TIP3   OH252609   5.262   1.024   6.130 -0.2104  0.4765  0.4028
10373TIP3    H152610   5.198   0.954   6.120 -0.6752  1.1077 -1.6892
10373TIP3    H252611   5.218   1.090   6.184 -1.5798  1.1133 -1.3999
10374TIP3   OH252612   0.716   3.162  12.591  0.2955 -0.4498 -0.0895
10374TIP3    H152613   0.785   3.226  12.611  0.0805  0.1270 -1.0840
10374TIP3    H252614   0.692   3.182  12.500 -1.6946 -0.1547  0.4732
10375TIP3   OH252615   4.490   3.491   3.416 -0.2420 -0.3394 -0.0152
10375TIP3    H152616   4.523   3.407   3.448 -0.0503 -0.0936  0.4413
10375TIP3    H252617   4.449   3.532   3.492 -2.0129 -0.8267 -0.6735
10376TIP3   OH252618   4.765   5.109  10.880  0.0878 -0.6356 -0.3677
10376TIP3    H152619   4.705   5.041  10.850  1.3131 -2.5773  1.3025
10376TIP3    H252620   4.842   5.100  10.824  0.8287 -1.6493  0.7734
10377TIP3   OH252621   2.303   2.070  14.509  1.0638  0.7423  0.1441
10377TIP3    H152622   2.306   1.979  14.479  0.9729  1.3541 -1.9163
10377TIP3    H252623   2.394   2.098  14.510  1.1388  0.4960  1.3033
10378TIP3   OH252624   4.163   2.434   0.748 -0.0542 -0.1349  0.2165
10378TIP3    H152625   4.129   2.515   0.786  1.3785  0.0754  1.0996
10378TIP3    H252626   4.200   2.460   0.664 -0.9260 -0.1499 -0.1814
10379TIP3   OH252627   4.400   1.518   6.513 -0.3373 -0.1111 -0.0269
10379TIP3    H152628   4.366   1.596   6.555 -0.1136  0.2242 -0.4580
10379TIP3    H252629   4.391   1.449   6.578  0.2038  0.4404  0.6442
10380TIP3   OH252630   1.951   2.204   5.453 -0.1736 -0.0669  0.6382
10380TIP3    H152631   1.893   2.164   5.518 -0.4453  0.0949  0.4975
10380TIP3    H252632   1.920   2.169   5.370  0.0175 -0.0839  0.5755
10381TIP3   OH252633   1.679   1.680   2.159 -0.5413 -0.0837  0.0659
10381TIP3    H152634   1.619   1.741   2.117 -0.3115  1.8765  2.3472
10381TIP3    H252635   1.622   1.622   2.210 -0.7767 -2.0748 -2.2824
10382TIP3   OH252636   2.412   0.368  11.834 -0.0448  0.4822 -0.1223
10382TIP3    H152637   2.443   0.330  11.916  0.5056  0.8963 -0.1290
10382TIP3    H252638   2.354   0.439  11.861  0.6871  1.0776 -0.0651
10383TIP3   OH252639   1.509   1.776   5.406  1.0961 -0.1424 -0.1823
10383TIP3    H152640   1.536   1.803   5.493  1.0160 -1.5580  0.3019
10383TIP3    H252641   1.498   1.682   5.412  0.2283 -0.1554 -1.4996
10384TIP3   OH252642   3.851   0.354  11.895 -0.0910  0.1605  0.5345
10384TIP3    H152643   3.917   0.353  11.825  0.1414 -0.4592  0.7559
10384TIP3    H252644   3.821   0.263  11.901  0.4125  0.0604  1.7301
10385TIP3   OH252645   2.231   4.690   2.842  0.1183 -0.4228 -0.2410
10385TIP3    H152646   2.198   4.775   2.871  2.6011  0.2176  0.9626
10385TIP3    H252647   2.225   4.634   2.920  1.4411 -0.3842 -0.0813
10386TIP3   OH252648   0.809   4.857  11.839 -0.1785 -0.0972 -0.0758
10386TIP3    H152649   0.793   4.926  11.775  2.7069  0.2267 -0.6041
10386TIP3    H252650   0.744   4.789  11.819  0.8813 -0.2217 -3.7574
10387TIP3   OH252651   4.138   3.931   6.276  0.2262 -0.1637  0.0811
10387TIP3    H152652   4.132   3.928   6.372  1.3897  0.5265  0.2036
10387TIP3    H252653   4.220   3.886   6.256  0.8236  1.1125 -0.4557
10388TIP3   OH252654   2.499   1.058   5.704  0.9111  0.4472 -0.5361
10388TIP3    H152655   2.470   1.125   5.765 -3.3156 -1.0482 -0.5109
10388TIP3    H252656   2.554   0.999   5.756  0.7330  1.3585  0.7142
10389TIP3   OH252657   1.369   5.516  15.440  0.3734 -0.3099  0.5627
10389TIP3    H152658   1.414   5.431  15.432 -2.4540 -1.7849 -2.0873
10389TIP3    H252659   1.408   5.570  15.371  1.1804  0.0749  1.3040
10390TIP3   OH252660   2.509   3.487   0.312 -0.3903  0.7254 -0.6217
10390TIP3    H152661   2.555   3.496   0.228 -1.6581  2.5031 -1.1735
10390TIP3    H252662   2.424   3.451   0.289  0.2453 -1.5328  0.2794
10391TIP3   OH252663   5.662   5.137   3.711  0.3231  0.3539 -0.0549
10391TIP3    H152664   5.707   5.217   3.685  0.3739 -0.3730 -2.3753
10391TIP3    H252665   5.573   5.148   3.678  0.4942 -0.7778 -0.9458
10392TIP3   OH252666   4.797   3.233  12.299  0.0772 -0.0837  0.0996
10392TIP3    H152667   4.823   3.147  12.267  1.1860  0.3920 -0.3296
10392TIP3    H252668   4.879   3.274  12.327 -0.5535  0.5034  1.1237
10393TIP3   OH252669   0.374   4.288   1.499  0.2938  0.2511 -0.3452
10393TIP3    H152670   0.336   4.225   1.438  1.2700  0.7245 -1.4961
10393TIP3    H252671   0.300   4.323   1.548 -0.7902  1.0666 -2.4239
10394TIP3   OH252672   2.544   5.440   4.251  0.2439 -0.6719 -0.0376
10394TIP3    H152673   2.453   5.450   4.278 -0.0588 -2.8129 -0.0483
10394TIP3    H252674   2.592   5.506   4.300 -1.2435  0.1534  0.3477
10395TIP3   OH252675   2.655   1.082   3.486 -0.3529  0.5850  0.3050
10395TIP3    H152676   2.580   1.032   3.455  0.3331  0.4429 -1.2309
10395TIP3    H252677   2.618   1.147   3.547 -1.5474 -0.2164  0.4542
10396TIP3   OH252678   6.682   2.564   4.562 -0.3429 -0.2105  0.3265
10396TIP3    H152679   6.706   2.472   4.544 -1.1975 -0.5737  1.0098
10396TIP3    H252680   6.723   2.583   4.646  1.9621  0.8598 -0.9464
10397TIP3   OH252681   6.534   0.672  11.132  0.0561 -0.1778  0.0022
10397TIP3    H152682   6.596   0.688  11.203  0.9661  0.3053 -0.8773
10397TIP3    H252683   6.468   0.741  11.141 -0.4015 -0.7235  0.9696
10398TIP3   OH252684   5.051   5.251   0.350 -0.3485 -0.4165 -0.4070
10398TIP3    H152685   5.036   5.235   0.443  0.4757 -0.6907 -0.3216
10398TIP3    H252686   5.122   5.315   0.347 -0.0607 -0.7455 -0.8549
10399TIP3   OH252687   1.369   0.316   5.698  0.3293 -0.2333 -0.4216
10399TIP3    H152688   1.400   0.282   5.782  0.5651  1.3664  0.1563
10399TIP3    H252689   1.448   0.324   5.645  0.5885  1.3758  0.1674
10400TIP3   OH252690   4.740   0.978   4.005  0.5090 -0.1405  0.5387
10400TIP3    H152691   4.654   0.940   4.020 -0.9187  1.4047 -2.6079
10400TIP3    H252692   4.791   0.909   3.963  0.4424 -0.7095  1.3775
10401TIP3   OH252693   1.636   0.463  16.578  0.5708 -0.2914  0.5341
10401TIP3    H152694   1.698   0.511  16.632 -0.7875  1.6405  0.4640
10401TIP3    H252695   1.551   0.480  16.618 -0.4119  0.7475 -1.8560
10402TIP3   OH252696   2.588   0.818  14.803  0.0214 -0.0936  0.0480
10402TIP3    H152697   2.609   0.776  14.886  0.5785 -1.8974 -0.9424
10402TIP3    H252698   2.672   0.837  14.763 -0.2408  0.7828 -0.1066
10403TIP3   OH252699   4.852   2.852   3.083 -0.4361  1.0917 -0.0848
10403TIP3    H152700   4.898   2.802   3.150  1.4052  0.7585 -1.4996
10403TIP3    H252701   4.910   2.848   3.007 -2.9546  0.4487 -2.1035
10404TIP3   OH252702   5.997   5.903   0.299  0.1641  0.8566  0.1434
10404TIP3    H152703   6.064   5.855   0.251 -1.1903  0.3836 -1.3537
10404TIP3    H252704   5.951   5.954   0.233 -0.8925  1.2582  1.1435
10405TIP3   OH252705   2.817   0.610   2.077 -0.0450 -0.7016 -0.2808
10405TIP3    H152706   2.789   0.520   2.093  0.2098 -1.0937 -1.8766
10405TIP3    H252707   2.842   0.611   1.984 -0.3739  1.1057 -0.3771
10406TIP3   OH252708   5.920   5.669  12.825 -0.0150 -0.3308  0.4210
10406TIP3    H152709   5.832   5.707  12.827  0.4768  0.9047 -0.3012
10406TIP3    H252710   5.957   5.687  12.911  0.4142  1.4049 -0.0868
10407TIP3   OH252711   0.791   2.909   5.512 -0.3266 -0.1227  0.2641
10407TIP3    H152712   0.844   2.881   5.586  2.5490 -1.7622 -2.2031
10407TIP3    H252713   0.827   2.994   5.488 -0.6464 -0.0102  0.1759
10408TIP3   OH252714   2.845   1.414   1.860 -0.4702  0.4084 -0.1264
10408TIP3    H152715   2.828   1.446   1.772  0.1312 -0.9666 -0.7691
10408TIP3    H252716   2.859   1.494   1.912 -3.0473  1.3329 -0.7413
10409TIP3   OH252717   0.973   5.722  13.088  0.2904  0.5683  0.2797
10409TIP3    H152718   0.984   5.645  13.144  2.2927 -0.5793 -1.5306
10409TIP3    H252719   0.878   5.729  13.076  0.0041 -1.0647  1.2378
10410TIP3   OH252720   5.657   3.121   3.190  0.1534 -0.2194 -0.2957
10410TIP3    H152721   5.693   3.181   3.256 -2.2596  0.5360  0.4538
10410TIP3    H252722   5.654   3.173   3.110 -0.0747  0.0123 -0.1401
10411TIP3   OH252723   0.852   5.042  17.034 -0.4089 -0.3979  0.4022
10411TIP3    H152724   0.777   5.099  17.015 -0.0010  0.2533  0.7154
10411TIP3    H252725   0.891   5.025  16.948  0.2875  0.9518  0.4247
10412TIP3   OH252726   4.132   3.580   1.317  0.5395 -0.1007 -0.6355
10412TIP3    H152727   4.077   3.568   1.395 -1.2904 -0.9398 -1.9855
10412TIP3    H252728   4.116   3.671   1.289 -0.4813 -0.4534 -1.2312
10413TIP3   OH252729   2.335   2.032   4.902 -0.0291 -0.1542 -0.4481
10413TIP3    H152730   2.287   1.970   4.846 -0.1150 -0.7040  0.2221
10413TIP3    H252731   2.317   2.003   4.991 -0.5602  1.2020 -0.0808
10414TIP3   OH252732   2.985   1.129   2.957 -0.0802  0.3288 -0.0107
10414TIP3    H152733   3.047   1.092   2.894  1.0067  3.3147 -0.8726
10414TIP3    H252734   3.039   1.152   3.033 -0.8073 -0.2529  0.7000
10415TIP3   OH252735   1.652   1.923  11.723 -0.6339  0.0900  0.3585
10415TIP3    H152736   1.658   1.866  11.646 -0.9384 -0.8412  0.9948
10415TIP3    H252737   1.720   1.989  11.709  1.2809 -1.7242  0.5970
10416TIP3   OH252738   5.119   1.749   3.722 -0.4507 -0.2775  0.0163
10416TIP3    H152739   5.102   1.820   3.785 -0.6299 -0.1469 -0.1805
10416TIP3    H252740   5.047   1.688   3.736 -0.4101 -0.3203  0.0390
10417TIP3   OH252741   0.969   4.534   2.750  0.5675 -0.1559  0.0292
10417TIP3    H152742   0.937   4.592   2.680  0.4030 -0.7004 -0.3558
10417TIP3    H252743   0.897   4.473   2.765  0.0725  0.7511  1.6175
10418TIP3   OH252744   3.586   3.337   1.089 -0.0697 -0.3512  0.0003
10418TIP3    H152745   3.501   3.369   1.121 -0.4203 -1.6640  0.4268
10418TIP3    H252746   3.564   3.279   1.016  0.5033 -0.2587 -0.2503
10419TIP3   OH252747   0.691   6.249  12.825  0.0057 -0.3760 -0.4059
10419TIP3    H152748   0.763   6.190  12.847 -0.7304 -0.6182  1.5498
10419TIP3    H252749   0.675   6.298  12.906 -2.0221 -0.3227 -0.7931
10420TIP3   OH252750   0.936   6.755   0.514 -0.1626 -0.0426  0.0285
10420TIP3    H152751   1.009   6.817   0.523 -1.9503  2.6068 -2.1070
10420TIP3    H252752   0.866   6.794   0.567 -0.4372 -1.9764  1.1706
10421TIP3   OH252753   4.134   5.039   3.039  0.0446 -0.3691 -0.2452
10421TIP3    H152754   4.119   4.946   3.054  1.3797 -0.8374 -1.6221
10421TIP3    H252755   4.203   5.062   3.101  1.7760 -1.0352 -1.8348
10422TIP3   OH252756   4.514   2.388  11.253 -0.2136  0.4563 -0.0754
10422TIP3    H152757   4.525   2.409  11.346  4.1709 -1.0998  0.0006
10422TIP3    H252758   4.512   2.292  11.251 -1.2484  0.4787 -1.5623
10423TIP3   OH252759   2.890   3.551  11.394 -0.4939  0.0837 -0.0881
10423TIP3    H152760   2.911   3.480  11.333  0.0240  0.9901 -1.0009
10423TIP3    H252761   2.815   3.595  11.353 -0.4228  0.4271  0.1463
10424TIP3   OH252762   1.842   5.495   0.047 -0.1797  0.6613 -0.4338
10424TIP3    H152763   1.797   5.474  -0.035  1.4624 -0.6206 -1.0521
10424TIP3    H252764   1.935   5.486   0.027  0.2640 -0.0848  1.6782
10425TIP3   OH252765   2.528   2.421  11.007 -0.1730  0.1893 -0.3945
10425TIP3    H152766   2.490   2.400  10.922 -0.3792 -0.3330 -0.1744
10425TIP3    H252767   2.472   2.376  11.070  1.3671 -1.4680 -0.1130
10426TIP3   OH252768   6.154   5.926  12.956  0.2197 -0.3449 -0.0213
10426TIP3    H152769   6.248   5.935  12.974  0.1942  1.0477 -0.4560
10426TIP3    H252770   6.125   5.858  13.016  1.3630 -0.2716  0.6537
10427TIP3   OH252771   4.307   6.080   6.025  0.3212  0.0969  0.0172
10427TIP3    H152772   4.217   6.104   6.046  0.3476  0.7684 -0.5818
10427TIP3    H252773   4.309   6.073   5.929  0.7824 -0.4233  0.0564
10428TIP3   OH252774   6.242   3.049  13.857  0.1357 -0.5610  0.4133
10428TIP3    H152775   6.264   3.044  13.764  2.7539 -0.7866  0.9587
10428TIP3    H252776   6.170   2.988  13.869 -0.3307 -0.4290 -1.4716
10429TIP3   OH252777   1.169   4.708   0.441  0.1961  0.7612 -0.1085
10429TIP3    H152778   1.190   4.706   0.347 -1.4164 -1.5821 -0.4984
10429TIP3    H252779   1.109   4.783   0.450 -1.3957 -0.2848 -1.4247
10430TIP3   OH252780   1.348   6.152  14.098 -0.4216 -0.1457  0.5008
10430TIP3    H152781   1.366   6.246  14.097  2.8164 -0.6511 -0.3672
10430TIP3    H252782   1.298   6.136  14.018  2.4591  0.3715 -1.5295
10431TIP3   OH252783   4.374   2.635   1.283  0.4247  0.2173 -0.6814
10431TIP3    H152784   4.420   2.615   1.365  0.5182  0.4816 -0.6687
10431TIP3    H252785   4.398   2.564   1.224 -2.3185 -1.9428  0.5347
10432TIP3   OH252786   4.591   0.544  16.022 -0.3719  0.0051 -0.2333
10432TIP3    H152787   4.507   0.498  16.020  0.1739 -1.0619  0.6799
10432TIP3    H252788   4.619   0.545  15.930 -0.7032 -0.9331 -0.3638
10433TIP3   OH252789   2.537   2.299   2.139  0.2024  0.2269 -0.6483
10433TIP3    H152790   2.576   2.241   2.204 -0.6665  0.8485  0.4538
10433TIP3    H252791   2.611   2.332   2.088  0.9942  0.4370  0.6155
10434TIP3   OH252792   5.494   4.691  13.917 -0.7243 -0.6382 -0.2309
10434TIP3    H152793   5.473   4.648  13.834 -1.4454 -1.7085  0.4772
10434TIP3    H252794   5.547   4.627  13.964 -0.7852 -0.2607  0.3564
10435TIP3   OH252795   3.795   1.742  15.506 -0.0226 -0.2029  0.2530
10435TIP3    H152796   3.824   1.715  15.419 -1.6609 -0.9923 -0.0867
10435TIP3    H252797   3.715   1.691  15.521 -0.4673  0.8685  1.6869
10436TIP3   OH252798   0.813   1.802  10.598 -0.3445  0.1879 -0.8995
10436TIP3    H152799   0.816   1.783  10.504 -1.3897  2.4518 -1.4542
10436TIP3    H252800   0.721   1.787  10.621 -0.4519  1.2354 -0.6276
10437TIP3   OH252801   0.986   1.096  14.530  0.9507  0.1453 -0.2183
10437TIP3    H152802   1.048   1.062  14.594 -0.1243 -1.2308  0.1423
10437TIP3    H252803   0.906   1.111  14.580 -0.0909 -1.5124 -1.2844
10438TIP3   OH252804   1.104   5.951  11.995 -0.1042  0.0795 -0.5032
10438TIP3    H152805   1.152   5.923  12.073  0.7140  1.1299 -0.6192
10438TIP3    H252806   1.025   5.993  12.029  0.1092  0.2788 -0.2553
10439TIP3   OH252807   5.026   6.017   6.289  0.5582 -0.6204  0.1478
10439TIP3    H152808   5.055   6.094   6.339 -1.5186 -1.2044  2.4369
10439TIP3    H252809   4.932   6.027   6.281  0.0773 -3.3242  1.3461
10440TIP3   OH252810   5.967   0.892   5.102 -0.4301  0.1135 -0.1234
10440TIP3    H152811   5.939   0.954   5.169  0.9142  0.6095  0.0115
10440TIP3    H252812   5.994   0.947   5.028 -0.0024 -0.3438 -0.3153
10441TIP3   OH252813   4.758   6.821   0.758 -0.5839 -0.2493  1.2202
10441TIP3    H152814   4.749   6.727   0.739  2.0998 -0.2946 -0.2638
10441TIP3    H252815   4.692   6.862   0.701 -2.5062 -1.2016  2.6232
10442TIP3   OH252816   5.016   0.876   1.206 -0.6188 -0.4241  0.1350
10442TIP3    H152817   5.017   0.870   1.302  0.6214  1.9867  0.3441
10442TIP3    H252818   5.109   0.876   1.182 -0.9162 -0.8392 -1.0711
10443TIP3   OH252819   6.244   6.199   3.290 -0.5828  0.2295  0.0825
10443TIP3    H152820   6.171   6.246   3.331 -1.6214 -0.0576 -1.3541
10443TIP3    H252821   6.224   6.106   3.304 -1.7046  0.0580 -2.1514
10444TIP3   OH252822   1.266   2.812  15.817  0.0439  0.1991  0.4025
10444TIP3    H152823   1.222   2.739  15.774  0.2947  0.6801 -0.7011
10444TIP3    H252824   1.206   2.838  15.886 -0.7322 -0.0997 -0.1454
10445TIP3   OH252825   5.544   6.794  14.290 -0.5704 -0.3032 -0.3559
10445TIP3    H152826   5.603   6.851  14.340  1.9467 -2.0083 -1.1668
10445TIP3    H252827   5.514   6.848  14.217  0.1505  0.5843 -0.0182
10446TIP3   OH252828   6.589   5.421  13.787 -0.0665  0.6035  0.2299
10446TIP3    H152829   6.538   5.469  13.853  0.7885  2.1168 -0.1891
10446TIP3    H252830   6.526   5.361  13.748 -0.6672 -0.1401  2.2162
10447TIP3   OH252831   5.531   2.694  15.796  0.4319  0.4541 -0.1234
10447TIP3    H152832   5.550   2.630  15.865 -1.0789  1.8887  1.7247
10447TIP3    H252833   5.437   2.686  15.782  0.5100  1.0882 -1.1116
10448TIP3   OH252834   4.880   6.275  16.439  0.2561 -0.5351 -0.2502
10448TIP3    H152835   4.842   6.195  16.401 -1.5727 -0.2307  0.8432
10448TIP3    H252836   4.949   6.300  16.377 -1.0790 -1.3254 -2.1470
10449TIP3   OH252837   2.306   5.899   5.238 -0.1615 -0.3900 -0.4703
10449TIP3    H152838   2.379   5.947   5.278  1.1698 -2.5971 -0.0554
10449TIP3    H252839   2.259   5.862   5.312 -2.0423  1.3548 -0.7172
10450TIP3   OH252840   0.282   6.660   3.511 -0.1697  0.2520 -0.6735
10450TIP3    H152841   0.375   6.681   3.512  0.2751 -1.5440  0.8639
10450TIP3    H252842   0.241   6.731   3.560  0.5405  0.4481 -0.3600
10451TIP3   OH252843   5.471   4.135   4.682  0.5501 -0.0213 -0.0691
10451TIP3    H152844   5.477   4.179   4.767 -0.0206  3.0808 -1.4798
10451TIP3    H252845   5.413   4.191   4.630  1.8592 -1.0727 -2.9033
10452TIP3   OH252846   5.467   6.487  11.261  0.2090 -0.8211 -0.4721
10452TIP3    H152847   5.485   6.466  11.169 -2.2352 -2.7716 -0.5808
10452TIP3    H252848   5.373   6.504  11.264  0.3277 -0.2710  1.6185
10453TIP3   OH252849   3.643   1.218  14.896 -0.3871 -0.3011  0.3133
10453TIP3    H152850   3.573   1.224  14.830 -1.4406  0.4478  1.4636
10453TIP3    H252851   3.648   1.125  14.917  1.6341 -0.9833 -2.4958
10454TIP3   OH252852   6.046   0.971  12.578 -0.1386  0.3155 -0.3370
10454TIP3    H152853   6.005   0.889  12.603 -0.2812  0.4605 -0.0985
10454TIP3    H252854   6.019   0.985  12.487  0.7757 -0.4553 -0.7477
10455TIP3   OH252855   0.564   1.649  11.184 -0.1321 -0.3163  0.2026
10455TIP3    H152856   0.559   1.740  11.156 -0.0173 -0.1212  0.7948
10455TIP3    H252857   0.593   1.601  11.106 -0.4651  0.1130 -0.1864
10456TIP3   OH252858   2.003   2.219  12.847  0.5245 -1.1593 -0.2114
10456TIP3    H152859   2.067   2.289  12.842 -2.4391  1.7441 -0.5294
10456TIP3    H252860   2.012   2.172  12.764  0.4432  0.9470 -1.4788
10457TIP3   OH252861   6.555   3.902  16.191  0.7287  0.4571  0.0189
10457TIP3    H152862   6.518   3.866  16.111  0.7700 -0.1168  0.2592
10457TIP3    H252863   6.495   3.973  16.215  1.1988  1.2145 -0.9971
10458TIP3   OH252864   2.092   1.760   3.528  0.2246 -0.3422 -0.1772
10458TIP3    H152865   2.176   1.807   3.529  0.7104 -1.1493  1.7611
10458TIP3    H252866   2.027   1.827   3.508  1.4516 -0.0876 -4.1062
10459TIP3   OH252867   3.590   3.976   4.278 -0.3975 -0.5139 -0.3542
10459TIP3    H152868   3.541   4.047   4.320  0.7841  0.6499 -0.8819
10459TIP3    H252869   3.680   4.007   4.275 -0.1203 -1.3334 -2.0800
10460TIP3   OH252870   1.021   0.839  14.250 -0.7603 -0.3670 -0.1625
10460TIP3    H152871   0.938   0.798  14.224 -1.0840  0.2872 -0.1805
10460TIP3    H252872   0.996   0.927  14.279  0.2053  0.8230 -2.6354
10461TIP3   OH252873   3.045   3.969   2.501  0.4760  0.8323 -0.1253
10461TIP3    H152874   2.987   4.023   2.447 -1.0694  1.3335  1.9189
10461TIP3    H252875   3.116   3.943   2.441 -2.4456 -0.9674 -3.2046
10462TIP3   OH252876   1.632   2.631  15.371 -0.3177  0.5290 -0.4868
10462TIP3    H152877   1.699   2.602  15.310  1.2334 -1.6308  2.0493
10462TIP3    H252878   1.573   2.556  15.380 -0.4242  0.7285  0.7193
10463TIP3   OH252879   4.701   6.561  15.692 -0.1296  0.1690 -0.1708
10463TIP3    H152880   4.684   6.627  15.624  4.7297  0.9093 -1.0323
10463TIP3    H252881   4.670   6.601  15.773  0.1767  2.3617 -1.0728
10464TIP3   OH252882   1.159   4.162   2.366 -0.1914  0.0673 -0.2219
10464TIP3    H152883   1.120   4.126   2.445 -0.2136  0.7193  0.0693
10464TIP3    H252884   1.230   4.219   2.397 -2.7491  3.6402 -0.3717
10465TIP3   OH252885   3.693   4.647  16.603 -0.2993 -0.5923  0.9477
10465TIP3    H152886   3.686   4.720  16.664  0.2933  0.5056 -0.2460
10465TIP3    H252887   3.672   4.684  16.518 -0.5091 -1.9465  0.3735
10466TIP3   OH252888   0.026   3.539   4.563  0.3034 -0.1932  0.3337
10466TIP3    H152889  -0.011   3.458   4.528 -2.0928  1.0066 -0.0995
10466TIP3    H252890  -0.045   3.603   4.558  2.8090  2.7789 -1.9803
10467TIP3   OH252891   1.031   1.259  15.605  0.0600 -0.2339  0.0938
10467TIP3    H152892   1.068   1.339  15.569 -0.7751  0.3609  0.5146
10467TIP3    H252893   0.958   1.238  15.546  0.3465 -0.7593 -0.0820
10468TIP3   OH252894   1.150   2.815   4.145  0.2178 -0.4501  0.1695
10468TIP3    H152895   1.159   2.721   4.132 -0.1574 -0.7863  2.0309
10468TIP3    H252896   1.194   2.832   4.229  1.6626  1.3157 -0.8547
10469TIP3   OH252897   3.682   0.722   3.323  0.0349  0.1091 -0.8447
10469TIP3    H152898   3.743   0.771   3.267  0.9486 -1.5991 -1.4191
10469TIP3    H252899   3.630   0.789   3.367  1.8690  1.6099 -0.8679
10470TIP3   OH252900   0.583   0.645   4.083 -0.0186 -0.1132 -0.7694
10470TIP3    H152901   0.518   0.587   4.043 -2.6904  0.9015  1.7076
10470TIP3    H252902   0.613   0.598   4.161  0.3958  0.4308 -0.5901
10471TIP3   OH252903   0.080   4.493   1.041  0.2699  0.1308 -0.3140
10471TIP3    H152904   0.066   4.424   0.976 -1.0286 -0.9636  1.0737
10471TIP3    H252905   0.085   4.447   1.125 -1.8499  1.7701  0.7934
10472TIP3   OH252906   4.233   3.707   3.278  0.7414  0.1662 -0.5257
10472TIP3    H152907   4.245   3.631   3.333 -1.2312 -0.9915 -1.5758
10472TIP3    H252908   4.192   3.772   3.335  1.8086  0.2234  0.1977
10473TIP3   OH252909   1.837   5.745   5.066  0.2564 -0.2655  0.4778
10473TIP3    H152910   1.898   5.690   5.018  1.6274 -0.5352  2.3992
10473TIP3    H252911   1.892   5.796   5.126 -1.3393  0.0207  1.7808
10474TIP3   OH252912   1.814   2.834  15.464 -0.5308 -0.3222  0.1264
10474TIP3    H152913   1.759   2.756  15.470 -0.2980 -0.9262 -3.3924
10474TIP3    H252914   1.902   2.799  15.447 -0.1866  0.6965 -0.2425
10475TIP3   OH252915   6.709   5.795   3.615  0.2963 -0.1319 -0.0123
10475TIP3    H152916   6.775   5.849   3.658 -0.3787  2.2489 -1.7175
10475TIP3    H252917   6.664   5.750   3.687  1.4637  0.9278  1.4417
10476TIP3   OH252918   4.459   0.094   1.590  0.1304 -0.3258 -0.4253
10476TIP3    H152919   4.464   0.055   1.678 -0.1298 -1.3542 -0.8556
10476TIP3    H252920   4.372   0.134   1.587 -0.5944 -1.8623 -0.8301
10477TIP3   OH252921   4.575   0.218  14.321 -0.2732  0.0197 -0.2367
10477TIP3    H152922   4.664   0.187  14.334  0.0375  0.4331 -1.2801
10477TIP3    H252923   4.584   0.306  14.285 -1.0223 -0.6116 -2.1611
10478TIP3   OH252924   2.278   0.372  14.273 -0.1038  0.2179  0.1502
10478TIP3    H152925   2.255   0.312  14.202 -0.0690 -0.2494  0.5226
10478TIP3    H252926   2.201   0.428  14.284  0.2084  0.8526 -0.8092
10479TIP3   OH252927   4.900   3.034  15.113 -0.0120  0.3980 -0.1448
10479TIP3    H152928   4.853   3.107  15.073  0.7391  0.8935 -0.1574
10479TIP3    H252929   4.832   2.979  15.152 -0.5281  1.6241  0.7318
10480TIP3   OH252930   0.463   2.033  10.836 -0.3811  0.5181  0.4131
10480TIP3    H152931   0.460   1.940  10.857 -2.9844  0.8129  1.7431
10480TIP3    H252932   0.555   2.051  10.822  0.4570 -1.8389  2.1478
10481TIP3   OH252933   0.639   6.265  14.736  0.2111 -0.1200 -0.1354
10481TIP3    H152934   0.710   6.312  14.781 -0.9377  1.0660  0.5151
10481TIP3    H252935   0.664   6.267  14.644 -0.6534  3.5997 -0.4637
10482TIP3   OH252936   3.092   2.098   0.847  0.4933  0.5443  0.0489
10482TIP3    H152937   3.177   2.131   0.819  0.7258  0.4073  0.5802
10482TIP3    H252938   3.112   2.020   0.899 -0.0228 -0.2337 -0.8731
10483TIP3   OH252939   4.495   3.243  13.138 -0.3666 -0.0620 -0.7720
10483TIP3    H152940   4.409   3.278  13.113 -1.0310 -1.0322  0.0756
10483TIP3    H252941   4.541   3.318  13.176 -1.1521  0.2782 -0.4601
10484TIP3   OH252942   1.732   6.045  15.473 -0.2210  0.3761  0.1680
10484TIP3    H152943   1.725   6.124  15.526  0.4642  0.0611  0.7454
10484TIP3    H252944   1.825   6.041  15.449 -0.5751  0.6904 -1.3427
10485TIP3   OH252945   6.191   2.186   1.358 -0.1155 -0.5853  0.0857
10485TIP3    H152946   6.262   2.162   1.417  0.3776  1.7956  0.5620
10485TIP3    H252947   6.234   2.206   1.275 -0.5692 -1.8391 -0.4689
10486TIP3   OH252948   3.869   2.635  13.954 -0.1065 -0.4144 -0.3093
10486TIP3    H152949   3.785   2.609  13.993 -0.2782  0.2307 -0.2264
10486TIP3    H252950   3.869   2.594  13.868  0.3461 -1.9896  0.4070
10487TIP3   OH252951   3.720   4.807  13.247  0.4744 -0.2401  0.3835
10487TIP3    H152952   3.707   4.830  13.155 -1.8564 -0.0431  0.6951
10487TIP3    H252953   3.747   4.889  13.289  1.5100 -0.3223 -0.0999
10488TIP3   OH252954   6.351   5.837  13.599  0.1217  0.2113  1.0101
10488TIP3    H152955   6.326   5.771  13.664  2.4555 -1.4697  0.3708
10488TIP3    H252956   6.447   5.835  13.600  0.4060 -1.3468 -3.7592
10489TIP3   OH252957   5.432   4.666   2.032 -0.7556  0.8991 -0.0566
10489TIP3    H152958   5.464   4.579   2.008 -1.2897  0.6094  0.2724
10489TIP3    H252959   5.456   4.722   1.958 -1.6855  0.1763 -0.9358
10490TIP3   OH252960   3.466   1.180  16.795 -0.1927 -0.1814  0.4086
10490TIP3    H152961   3.481   1.122  16.720 -3.9067 -0.4192 -0.3359
10490TIP3    H252962   3.390   1.143  16.839 -0.6227  2.2744  1.8977
10491TIP3   OH252963   5.347   6.587  14.285  0.3808 -0.2191  0.6408
10491TIP3    H152964   5.388   6.501  14.294  0.7186 -0.0401  0.8441
10491TIP3    H252965   5.414   6.649  14.314  0.6731  0.2265 -0.8486
10492TIP3   OH252966   2.569   1.976   2.211  0.3874  0.0826  0.1294
10492TIP3    H152967   2.652   1.964   2.256 -0.3602  0.4770  1.6583
10492TIP3    H252968   2.583   1.938   2.124  2.2839  0.5236  0.2025
10493TIP3   OH252969   1.550   6.051   2.148 -0.1736  0.1594 -0.6437
10493TIP3    H152970   1.534   6.100   2.228 -0.1974  2.4831 -1.9898
10493TIP3    H252971   1.477   6.073   2.091 -1.1508 -2.8845 -0.7599
10494TIP3   OH252972   2.265   1.508   5.417  0.6007 -0.1244 -0.2388
10494TIP3    H152973   2.186   1.558   5.439 -0.0803 -2.2003  2.4374
10494TIP3    H252974   2.333   1.575   5.409 -0.8411  1.4903  0.1712
10495TIP3   OH252975   4.651   2.261   3.454  0.3767 -0.2363 -0.6832
10495TIP3    H152976   4.631   2.230   3.542 -1.0489  0.2212 -0.8249
10495TIP3    H252977   4.660   2.181   3.402 -0.2036 -0.4849 -0.4135
10496TIP3   OH252978   4.049   6.363  14.892 -0.2088  0.1708 -0.3212
10496TIP3    H152979   4.105   6.289  14.870 -0.8873 -0.5009  0.1561
10496TIP3    H252980   4.017   6.395  14.808 -0.3178 -0.4053 -0.5042
10497TIP3   OH252981   1.500   3.615  13.157  0.0976 -0.8220  0.0993
10497TIP3    H152982   1.568   3.612  13.224  0.9110 -1.5503 -0.7330
10497TIP3    H252983   1.524   3.689  13.101 -2.0718  1.5754  2.0738
10498TIP3   OH252984   1.260   5.534   4.452  0.2659 -0.1270  0.2322
10498TIP3    H152985   1.165   5.534   4.439  0.2968  1.4159 -0.1813
10498TIP3    H252986   1.276   5.462   4.512 -1.4122  0.8975  2.0228
10499TIP3   OH252987   3.322   3.762   3.210  0.1640  0.3145  0.3541
10499TIP3    H152988   3.258   3.826   3.241  0.5983  0.3702  1.1369
10499TIP3    H252989   3.315   3.689   3.271 -0.0542 -0.2363 -0.3119
10500TIP3   OH252990   1.705   5.387  13.654  0.1904  0.2020 -0.1359
10500TIP3    H152991   1.798   5.365  13.655  0.4541  1.1506  2.0970
10500TIP3    H252992   1.660   5.306  13.677  0.7070  0.4295  1.8004
10501TIP3   OH252993   4.009   5.450   1.450 -0.4318  0.0086 -0.4995
10501TIP3    H152994   4.037   5.440   1.541  2.0956 -2.1356 -1.4014
10501TIP3    H252995   3.969   5.366   1.428 -2.1694  0.9451 -1.0668
10502TIP3   OH252996   6.083   0.974   2.968 -0.0577 -0.0974 -0.4450
10502TIP3    H152997   6.005   1.014   2.929 -0.8678 -0.2042  1.0056
10502TIP3    H252998   6.116   1.039   3.030  1.3563  0.1684 -1.4268
10503TIP3   OH252999   5.431   2.897  16.388  0.3648  0.4828 -0.2262
10503TIP3    H153000   5.494   2.969  16.379  1.4128 -0.3497  0.1935
10503TIP3    H253001   5.482   2.818  16.369 -0.8390 -0.1415 -0.9880
10504TIP3   OH253002   4.461   5.573   6.799 -0.1827  0.0599 -0.5977
10504TIP3    H153003   4.508   5.489   6.794 -1.3675 -0.6103 -0.6995
10504TIP3    H253004   4.385   5.562   6.742  0.0791  1.5116 -1.2786
10505TIP3   OH253005   4.971   1.782   4.745  0.0998  0.4383 -0.0694
10505TIP3    H153006   5.046   1.763   4.689  0.1119  1.0173 -0.2513
10505TIP3    H253007   4.953   1.875   4.731 -1.1804  0.1223 -0.6862
10506TIP3   OH253008   5.528   6.142   4.915  0.4242 -0.4869 -0.0963
10506TIP3    H153009   5.451   6.198   4.922  0.7390 -0.0528 -0.0392
10506TIP3    H253010   5.599   6.194   4.953  0.7836 -0.8040 -0.3213
10507TIP3   OH253011   4.264   3.764  12.773  0.9378 -0.0813 -0.1028
10507TIP3    H153012   4.257   3.764  12.678 -1.0213 -0.4163 -0.0103
10507TIP3    H253013   4.269   3.856  12.797  1.3745  0.0073 -0.5260
10508TIP3   OH253014   3.719   0.148   4.507 -0.0090 -0.3746 -0.0081
10508TIP3    H153015   3.794   0.093   4.533  1.9636  1.5625 -1.2777
10508TIP3    H253016   3.700   0.121   4.418  2.7209  2.5532 -1.6710
10509TIP3   OH253017   3.026   4.238  16.857  0.1737  0.8196  0.0471
10509TIP3    H153018   3.005   4.326  16.889 -0.2102  0.1827  1.6205
10509TIP3    H253019   3.101   4.251  16.799 -0.3728  2.2756 -0.3880
10510TIP3   OH253020   4.592   0.583  15.513  0.0014 -0.3903 -0.5873
10510TIP3    H153021   4.537   0.586  15.434 -2.0197  2.0594  0.7523
10510TIP3    H253022   4.678   0.612  15.483 -0.3228 -0.9509 -2.1501
10511TIP3   OH253023   6.134   6.541   5.403 -0.4329  0.0193 -0.0665
10511TIP3    H153024   6.130   6.454   5.365 -0.8102  0.3026 -0.6937
10511TIP3    H253025   6.052   6.583   5.376 -0.2559  0.5656  0.2215
10512TIP3   OH253026   3.574   2.840   3.394 -0.0636  0.5031  0.3005
10512TIP3    H153027   3.588   2.834   3.489  0.3195  0.6451  0.2563
10512TIP3    H253028   3.512   2.770   3.374 -2.7677  2.4505  1.1524
10513TIP3   OH253029   6.704   0.433   5.071  0.1163  0.3889 -0.5623
10513TIP3    H153030   6.642   0.431   4.998 -0.4648  1.5549 -0.1238
10513TIP3    H253031   6.786   0.461   5.031  0.0529  0.0449 -0.9387
10514TIP3   OH253032   5.040   6.113   3.807 -0.0226  0.1315  0.2693
10514TIP3    H153033   5.125   6.156   3.810  0.4309 -0.6844 -0.4542
10514TIP3    H253034   5.047   6.040   3.868  0.9297 -1.8433 -2.0136
10515TIP3   OH253035   5.495   3.437   2.287 -0.2402  0.7249 -0.1981
10515TIP3    H153036   5.581   3.476   2.299  1.2744 -2.5410  0.6246
10515TIP3    H253037   5.434   3.506   2.313  2.0247  3.2724 -1.1157
10516TIP3   OH253038   2.415   4.139   3.684  0.5954 -0.1594  0.5401
10516TIP3    H153039   2.378   4.122   3.597  0.2547 -0.4268  0.7318
10516TIP3    H253040   2.497   4.090   3.686  0.3458 -0.5877  0.5516
10517TIP3   OH253041   1.177   6.523   1.693  0.1971  0.2796 -0.0454
10517TIP3    H153042   1.209   6.606   1.728 -0.4258  0.7553 -0.5865
10517TIP3    H253043   1.158   6.470   1.770 -2.1479  1.6731  0.4125
10518TIP3   OH253044   1.276   2.907   3.596  0.3648 -0.5659 -0.3847
10518TIP3    H153045   1.289   2.835   3.534 -0.4285 -2.0733  1.1008
10518TIP3    H253046   1.292   2.868   3.682  0.4559  1.1897  0.4477
10519TIP3   OH253047   1.273   6.623   5.320 -0.1751  0.1362 -0.3772
10519TIP3    H153048   1.291   6.675   5.398 -0.5255  0.8316 -0.7445
10519TIP3    H253049   1.191   6.658   5.287 -0.9560 -1.3439 -0.0807
10520TIP3   OH253050   1.992   3.506   0.752 -0.1065 -0.0057  0.2143
10520TIP3    H153051   1.924   3.484   0.815 -0.3647  0.0349 -0.0492
10520TIP3    H253052   2.073   3.472   0.791 -0.3356 -0.4127  0.3367
10521TIP3   OH253053   0.733   6.680  12.420  0.4708 -0.5623  0.2591
10521TIP3    H153054   0.720   6.643  12.508  0.0586  0.0860  0.4808
10521TIP3    H253055   0.826   6.702  12.417  0.2245  0.7334  1.0832
10522TIP3   OH253056   2.452   3.651  11.173  0.5927  0.2888 -0.4024
10522TIP3    H153057   2.448   3.667  11.079  1.2818  0.3860 -0.4149
10522TIP3    H253058   2.381   3.704  11.209 -0.4538 -0.6691 -0.9824
10523TIP3   OH253059   4.502   2.561   1.506 -0.1526 -0.6682 -0.4375
10523TIP3    H153060   4.566   2.625   1.538  0.0169  0.1517 -2.2590
10523TIP3    H253061   4.528   2.479   1.546  1.5444 -0.1798 -0.4439
10524TIP3   OH253062   1.790   6.165   2.423 -0.0509  0.0135 -0.0379
10524TIP3    H153063   1.702   6.151   2.390  0.2017 -0.8667 -0.3508
10524TIP3    H253064   1.798   6.105   2.497  0.5931 -0.5999 -0.5858
10525TIP3   OH253065   5.792   1.185  13.978 -1.0537 -0.9472  0.2000
10525TIP3    H153066   5.866   1.127  13.997 -0.2277 -0.1161 -0.4157
10525TIP3    H253067   5.717   1.141  14.020 -0.4048 -2.2722  0.0493
10526TIP3   OH253068   5.330   6.060   2.005  0.5139 -0.0806 -0.0594
10526TIP3    H153069   5.360   6.151   2.015  2.0551 -0.4336 -1.0502
10526TIP3    H253070   5.352   6.018   2.088 -0.6268  0.5469  0.5750
10527TIP3   OH253071   5.650   5.438  16.442  0.0853  0.0910  0.3459
10527TIP3    H153072   5.719   5.448  16.377 -0.0934  0.1621  0.1656
10527TIP3    H253073   5.599   5.363  16.411  0.2850 -0.1771  0.6624
10528TIP3   OH253074   6.098   4.121  10.862 -0.0447  0.1751 -0.2081
10528TIP3    H153075   6.120   4.183  10.793 -0.2712  0.6062  0.1074
10528TIP3    H253076   6.011   4.147  10.892  0.2762  0.3351  0.6181
10529TIP3   OH253077   0.696   0.872   2.527 -0.4263  0.2038  0.2440
10529TIP3    H153078   0.672   0.797   2.473 -0.1447  1.4949 -1.7875
10529TIP3    H253079   0.617   0.894   2.576 -0.7208 -0.9552  0.2951
10530TIP3   OH253080   0.020   3.927  12.510  0.1601 -0.1233 -0.0122
10530TIP3    H153081  -0.001   4.005  12.458 -0.3755  0.7590  1.4656
10530TIP3    H253082   0.056   3.962  12.592 -0.4388 -1.4187  0.8310
10531TIP3   OH253083   5.873   4.295  15.601 -0.3869  0.4594 -0.1672
10531TIP3    H153084   5.876   4.277  15.695 -1.3518  1.3288  0.0532
10531TIP3    H253085   5.962   4.280  15.571 -0.4782 -1.9002  0.4718
10532TIP3   OH253086   3.089   0.082  10.206  0.0648  0.0331  0.0548
10532TIP3    H153087   3.126   0.137  10.275  0.2825  0.6996 -0.5905
10532TIP3    H253088   3.152   0.087  10.135 -0.7516  0.3368 -0.6569
10533TIP3   OH253089   0.766   3.291   1.158 -0.2172  0.0376  0.1006
10533TIP3    H153090   0.845   3.268   1.206  1.3219  0.6106 -1.9975
10533TIP3    H253091   0.710   3.214   1.165  2.3886 -2.2267 -1.9758
10534TIP3   OH253092   0.878   1.541   5.289  0.7573 -0.1402 -0.3928
10534TIP3    H153093   0.929   1.470   5.327  1.8363 -0.0681 -1.6489
10534TIP3    H253094   0.844   1.590   5.364  0.5081 -1.6028  0.4785
10535TIP3   OH253095   5.466   3.644  12.940  0.2297 -0.5587  0.0306
10535TIP3    H153096   5.441   3.736  12.955  3.3473  0.3270  0.5972
10535TIP3    H253097   5.489   3.612  13.027  0.7341 -1.3475 -0.3873
10536TIP3   OH253098   5.921   2.865  12.367 -0.1190  1.0589 -0.1635
10536TIP3    H153099   5.894   2.872  12.459 -1.6107  1.0661 -0.5688
10536TIP3    H253100   5.839   2.847  12.320  0.7176  0.3772 -1.4153
10537TIP3   OH253101   1.003   2.125   4.599  0.4745 -0.0275 -0.2366
10537TIP3    H153102   0.996   2.056   4.532 -2.8210 -0.7697  0.6882
10537TIP3    H253103   1.085   2.171   4.578  1.2997 -2.3525 -2.6665
10538TIP3   OH253104   4.676   0.553   6.227 -0.3379  0.6646 -0.1001
10538TIP3    H153105   4.757   0.587   6.188  0.8786 -1.5490  0.3332
10538TIP3    H253106   4.679   0.585   6.318 -0.6421  1.6792 -0.4342
10539TIP3   OH253107   4.264   1.780  13.778 -0.0756  0.0413 -0.5508
10539TIP3    H153108   4.322   1.706  13.795  1.4758  1.5340  1.0716
10539TIP3    H253109   4.195   1.771  13.844  0.9756  0.8522  0.7046
10540TIP3   OH253110   6.511   6.240   6.304 -0.0869  0.6278 -0.4393
10540TIP3    H153111   6.599   6.257   6.269 -0.4677  2.6857 -0.5213
10540TIP3    H253112   6.484   6.323   6.343 -1.3513 -0.4347  1.1067
10541TIP3   OH253113   6.326   4.700  13.139 -0.2489 -0.2787 -0.2100
10541TIP3    H153114   6.400   4.726  13.194 -0.8310 -1.4593  1.2097
10541TIP3    H253115   6.359   4.707  13.049  1.0702  0.7101  0.3115
10542TIP3   OH253116   6.113   0.121   3.811 -0.1799  0.5410  0.7093
10542TIP3    H153117   6.207   0.107   3.823  0.1098 -0.6156 -2.1049
10542TIP3    H253118   6.107   0.208   3.772 -0.0787 -0.0661 -0.7063
10543TIP3   OH253119   4.931   0.047   3.436  0.3121  0.2049  0.3626
10543TIP3    H153120   4.916   0.075   3.526  1.4277 -0.5613  0.8062
10543TIP3    H253121   4.996  -0.023   3.443  0.5211  0.2294 -1.0531
10544TIP3   OH253122   2.079   4.611   5.729  0.1468 -0.0984  0.1561
10544TIP3    H153123   2.005   4.672   5.729  0.9903  0.9542 -0.9204
10544TIP3    H253124   2.082   4.578   5.819  1.1310  3.2657  1.4887
10545TIP3   OH253125   1.497   5.872   5.196  0.4343  0.1574  0.4800
10545TIP3    H153126   1.415   5.901   5.235 -0.1340 -1.0417  0.2133
10545TIP3    H253127   1.555   5.948   5.204 -0.4682  0.7883  1.3018
10546TIP3   OH253128   1.490   3.779  16.614  0.2421  0.3681  0.0077
10546TIP3    H153129   1.504   3.857  16.669 -1.7653  1.0390 -0.3391
10546TIP3    H253130   1.455   3.714  16.674 -0.4421  0.5780 -0.1521
10547TIP3   OH253131   1.929   4.734   1.175  0.4875 -0.0756 -0.2496
10547TIP3    H153132   1.925   4.780   1.259  1.5612 -1.7376  0.7579
10547TIP3    H253133   1.948   4.803   1.111 -0.6932  1.2738  0.7850
10548TIP3   OH253134   3.905   1.163  16.629  0.6091  0.0180 -0.4928
10548TIP3    H153135   3.927   1.076  16.597 -1.8245 -1.3311  1.1480
10548TIP3    H253136   3.923   1.160  16.723 -0.2077  1.0151 -0.2799
10549TIP3   OH253137   3.785   2.353  16.411  0.4829 -0.3843 -0.2655
10549TIP3    H153138   3.824   2.360  16.324  0.2725  1.1669 -0.2556
10549TIP3    H253139   3.747   2.265  16.413  2.1029 -1.1511 -1.0443
10550TIP3   OH253140   5.362   4.443  12.914 -0.4209 -0.5979 -0.0251
10550TIP3    H153141   5.360   4.354  12.949  1.1235 -1.0332 -0.9257
10550TIP3    H253142   5.449   4.476  12.938  0.3065 -0.5573 -2.4577
10551TIP3   OH253143   5.702   0.793  11.616 -0.5981  0.2469 -0.0456
10551TIP3    H153144   5.638   0.827  11.679  0.9824  0.5450  1.4566
10551TIP3    H253145   5.670   0.705  11.595 -1.2525  0.2148  1.0303
10552TIP3   OH253146   4.591   6.720  16.191  0.5861 -0.1718  0.3026
10552TIP3    H153147   4.509   6.671  16.189  0.5779 -0.1379 -0.6563
10552TIP3    H253148   4.577   6.789  16.256 -0.4631  0.3696 -0.4664
10553TIP3   OH253149   0.072   2.764   2.817  0.7793 -0.0209 -0.1351
10553TIP3    H153150   0.061   2.673   2.844 -1.2963  0.0473 -0.5538
10553TIP3    H253151   0.124   2.804   2.887  0.1035 -1.0889  1.0226
10554TIP3   OH253152   3.991   4.103  16.838  0.6724 -0.0669  0.0400
10554TIP3    H153153   3.948   4.180  16.801  0.2242  0.0363  0.7646
10554TIP3    H253154   4.042   4.067  16.765  0.3794  0.5457 -0.4773
10555TIP3   OH253155   3.493   1.805   5.697  0.2205 -0.4488  0.5580
10555TIP3    H153156   3.460   1.726   5.655  0.3703  0.1571 -0.7637
10555TIP3    H253157   3.551   1.845   5.632 -0.9661  1.4928  0.6080
10556TIP3   OH253158   2.385   0.132   4.220 -0.2136 -0.0602  0.0819
10556TIP3    H153159   2.301   0.106   4.183 -0.4803 -0.8917  1.2226
10556TIP3    H253160   2.394   0.079   4.299  0.8314  0.8806  0.6245
10557TIP3   OH253161   3.180   4.774   0.876  0.3209  0.4601 -0.2702
10557TIP3    H153162   3.140   4.817   0.801  0.5720  0.2259 -0.5411
10557TIP3    H253163   3.257   4.731   0.841  2.3863  3.0956  0.6971
10558TIP3   OH253164   0.744   6.627  16.189 -0.2068  0.0741 -0.7482
10558TIP3    H153165   0.777   6.652  16.275 -0.2812 -2.1521 -0.0156
10558TIP3    H253166   0.796   6.679  16.127  1.8335 -0.3221  0.5334
10559TIP3   OH253167   6.224   2.495   1.610  0.0436 -0.0021 -0.6766
10559TIP3    H153168   6.280   2.523   1.538 -0.4297  0.5551 -0.8355
10559TIP3    H253169   6.141   2.540   1.596 -0.6719 -1.2957 -0.7959
10560TIP3   OH253170   6.046   3.699  11.545 -0.3077  0.3599  0.0345
10560TIP3    H153171   6.001   3.721  11.627 -1.1816  1.4805 -0.7188
10560TIP3    H253172   6.128   3.658  11.573 -1.2217 -0.5546  1.4431
10561TIP3   OH253173   2.399   1.168  13.719 -0.2364 -0.0940 -0.0097
10561TIP3    H153174   2.353   1.245  13.684 -2.0380 -2.0434 -2.2871
10561TIP3    H253175   2.411   1.188  13.812  0.1833  3.2626 -0.6430
10562TIP3   OH253176   2.643   5.838   3.571 -0.0693 -0.6033 -0.1776
10562TIP3    H153177   2.600   5.753   3.577  0.6450 -0.8950  0.9511
10562TIP3    H253178   2.737   5.818   3.568  0.0938  0.1328 -0.3373
10563TIP3   OH253179   2.265   3.463  10.512 -0.0799  0.0245 -0.1611
10563TIP3    H153180   2.229   3.375  10.502  1.1106 -0.4295 -0.7083
10563TIP3    H253181   2.313   3.460  10.595 -0.0890  0.1763 -0.1488
10564TIP3   OH253182   4.197   4.825  12.222 -0.1175 -0.3220 -0.2178
10564TIP3    H153183   4.231   4.913  12.207 -0.9499  0.7222  3.1995
10564TIP3    H253184   4.102   4.833  12.213 -0.2025 -0.9028  0.1032
10565TIP3   OH253185   4.778   1.447  16.725  0.7042 -0.4476 -0.2842
10565TIP3    H153186   4.753   1.499  16.649 -1.2970 -1.7505 -0.6124
10565TIP3    H253187   4.827   1.373  16.689  0.3338 -0.7112 -0.2620
10566TIP3   OH253188   4.037   4.350   6.917 -0.4683  0.2766  0.4266
10566TIP3    H153189   3.963   4.292   6.934 -0.2960 -0.2840 -0.6684
10566TIP3    H253190   3.999   4.438   6.919 -0.5707  0.2478  3.0062
10567TIP3   OH253191   3.499   3.285   2.054 -0.4414 -0.1314  0.1486
10567TIP3    H153192   3.487   3.344   2.129  0.9180  1.1212 -0.5514
10567TIP3    H253193   3.547   3.338   1.990 -3.2748 -0.4349 -2.4769
10568TIP3   OH253194   5.356   3.567   1.015  0.1603  0.2002  0.2641
10568TIP3    H153195   5.296   3.541   1.085  1.1738  0.2967  1.1958
10568TIP3    H253196   5.304   3.626   0.960 -0.3257  1.1051  1.6185
10569TIP3   OH253197   0.429   3.297  14.095  0.1649 -0.4068 -0.2900
10569TIP3    H153198   0.413   3.334  14.182  0.7801 -0.9898  0.0778
10569TIP3    H253199   0.456   3.373  14.043  1.9972 -0.3814  0.6131
10570TIP3   OH253200   5.999   0.548  14.905  0.1026  0.3715 -0.6880
10570TIP3    H153201   6.039   0.481  14.851 -1.6158 -0.7945 -0.6016
10570TIP3    H253202   5.998   0.626  14.850  0.7406 -0.0852 -1.3674
10571TIP3   OH253203   2.583   4.170  13.938  0.3865  0.2133  0.1091
10571TIP3    H153204   2.641   4.235  13.898 -0.1267  0.4455 -0.2664
10571TIP3    H253205   2.617   4.159  14.026  2.4133 -1.3437 -0.7900
10572TIP3   OH253206   5.394   6.517   0.519 -0.3605 -0.1931  0.0765
10572TIP3    H153207   5.367   6.588   0.577 -2.1061 -1.6093  1.0721
10572TIP3    H253208   5.416   6.445   0.577 -0.9195 -1.2533 -0.9847
10573TIP3   OH253209   3.063   1.527   0.822  0.5728 -0.0549 -0.5876
10573TIP3    H153210   2.988   1.499   0.771 -0.2847 -0.2965  0.7605
10573TIP3    H253211   3.134   1.535   0.758 -0.5233 -0.0431 -1.8454
10574TIP3   OH253212   2.996   5.458  14.361  0.7122 -0.0254 -0.2637
10574TIP3    H153213   2.918   5.435  14.411  0.5112 -0.8719 -0.9398
10574TIP3    H253214   3.060   5.486  14.427 -0.3504  1.2826  0.2425
10575TIP3   OH253215   6.345   3.964  16.345 -0.2522 -0.5050 -0.9850
10575TIP3    H153216   6.292   3.996  16.272  0.0653  0.7112 -0.7085
10575TIP3    H253217   6.347   4.037  16.407 -2.5373 -2.2856  1.4262
10576TIP3   OH253218   2.026   2.723  11.274 -0.0524 -0.3208  0.3151
10576TIP3    H153219   2.082   2.743  11.349 -0.6675  3.8546 -0.0990
10576TIP3    H253220   1.992   2.635  11.292  2.2006 -0.7323  3.3307
10577TIP3   OH253221   1.770   2.343  16.826 -0.2609  0.2618  1.0031
10577TIP3    H153222   1.738   2.383  16.907  2.0436  2.6377  0.8853
10577TIP3    H253223   1.847   2.395  16.803  0.1713 -1.4323 -1.8060
10578TIP3   OH253224   1.180   0.419  16.447  0.0992  0.0371  0.5766
10578TIP3    H153225   1.202   0.477  16.374  1.3362 -0.9831  0.1110
10578TIP3    H253226   1.124   0.473  16.504 -2.0978  0.4208 -1.7768
10579TIP3   OH253227   4.963   5.017   5.003 -0.3361  0.4679 -0.4109
10579TIP3    H153228   4.914   4.938   4.978 -0.4563  0.6977 -0.9147
10579TIP3    H253229   4.982   5.005   5.096 -0.0461 -0.3267 -0.5642
10580TIP3   OH253230   4.131   4.198  15.190 -0.0438 -0.1035  0.0383
10580TIP3    H153231   4.222   4.221  15.168  0.3392 -1.4648  0.0914
10580TIP3    H253232   4.086   4.282  15.195  1.1721  0.5942 -0.1753
10581TIP3   OH253233   3.357   6.347   2.186 -0.5611 -0.3659  0.1933
10581TIP3    H153234   3.354   6.316   2.276  0.3637 -0.1134  0.3178
10581TIP3    H253235   3.272   6.390   2.173 -2.2200 -3.5387 -0.2513
10582TIP3   OH253236   2.972   5.319   3.352  0.6222 -0.5510  0.2565
10582TIP3    H153237   2.878   5.302   3.343  0.2049  1.1407  1.1203
10582TIP3    H253238   2.997   5.272   3.432  0.3318 -0.3489  0.4688
10583TIP3   OH253239   2.542   2.778   4.132  0.6562 -0.1064 -0.0312
10583TIP3    H153240   2.501   2.736   4.057  0.3772 -1.5212  0.8665
10583TIP3    H253241   2.542   2.872   4.111 -0.9175 -0.3019 -1.0600
10584TIP3   OH253242   2.188   1.670  15.442 -0.2286  0.4197  0.1845
10584TIP3    H153243   2.265   1.728  15.440 -0.2994  0.5096 -1.2224
10584TIP3    H253244   2.114   1.730  15.430 -0.6182  0.4343  2.3813
10585TIP3   OH253245   1.706   2.042  10.964 -0.6154  0.4380  0.8037
10585TIP3    H153246   1.627   1.995  10.939 -0.1195  0.9609 -2.0033
10585TIP3    H253247   1.680   2.134  10.965 -0.0073  0.6309 -0.3632
10586TIP3   OH253248   5.283   5.657  14.399  0.7665 -0.5947 -0.2668
10586TIP3    H153249   5.239   5.608  14.469 -0.2911 -0.9762 -1.1762
10586TIP3    H253250   5.374   5.629  14.404  1.0262  0.4034  1.8245
10587TIP3   OH253251   2.606   0.131   1.739 -0.7704 -0.2842 -0.9235
10587TIP3    H153252   2.527   0.170   1.701 -1.3324 -0.6381 -0.1636
10587TIP3    H253253   2.582   0.115   1.830 -0.2672 -1.6277 -1.0129
10588TIP3   OH253254   0.241   0.290  14.537 -0.3756  0.4108 -0.2794
10588TIP3    H153255   0.214   0.381  14.523  1.7706  0.9202 -1.5765
10588TIP3    H253256   0.312   0.296  14.600 -0.2621 -0.3753 -0.3297
10589TIP3   OH253257   4.477   6.036  15.479 -0.8278 -0.1541  0.3653
10589TIP3    H153258   4.468   5.963  15.540  3.2195 -0.4352  0.9169
10589TIP3    H253259   4.471   6.114  15.535 -0.3142 -0.2870  0.6123
10590TIP3   OH253260   3.612   4.524  15.284 -0.6268  0.7301 -0.6265
10590TIP3    H153261   3.519   4.501  15.296 -0.3785 -2.0010 -2.8365
10590TIP3    H253262   3.616   4.562  15.197  0.3118  0.9395 -0.4957
10591TIP3   OH253263   5.794   0.791  13.036 -0.6743 -0.9123 -0.4790
10591TIP3    H153264   5.872   0.793  12.981 -1.7832  0.5990 -2.0888
10591TIP3    H253265   5.827   0.801  13.126  1.1779 -3.4813 -0.7529
10592TIP3   OH253266   2.843   4.248  15.441 -0.8279  0.3072 -0.0430
10592TIP3    H153267   2.772   4.303  15.473 -0.0660  1.6936 -0.6491
10592TIP3    H253268   2.905   4.244  15.514 -0.8188  0.3942 -0.0451
10593TIP3   OH253269   2.038   0.785  11.932 -0.0344 -0.0490 -0.2144
10593TIP3    H153270   2.088   0.844  11.876  1.4682 -1.0767 -0.0030
10593TIP3    H253271   1.996   0.842  11.996  0.5906  0.8732 -0.6151
10594TIP3   OH253272   0.080   1.684   4.233 -0.0323 -0.5079 -0.2682
10594TIP3    H153273  -0.001   1.658   4.188  0.0242 -2.0915  0.4904
10594TIP3    H253274   0.059   1.770   4.270 -0.1363  0.7944 -3.0826
10595TIP3   OH253275   3.192   5.635   1.949  0.0604 -0.1961  0.4855
10595TIP3    H153276   3.162   5.593   1.869 -0.2571  0.0794  0.4591
10595TIP3    H253277   3.280   5.666   1.928 -0.7273  1.5652 -0.3831
10596TIP3   OH253278   4.254   2.700  17.033  0.0720 -0.6593 -0.3668
10596TIP3    H153279   4.180   2.747  16.995  0.3370 -0.5726 -0.7768
10596TIP3    H253280   4.214   2.627  17.080 -0.1730 -1.5864 -1.9694
10597TIP3   OH253281   2.211   4.214   4.660 -0.9045  0.4303 -0.3489
10597TIP3    H153282   2.212   4.307   4.686 -3.7610  0.2160  0.8359
10597TIP3    H253283   2.257   4.170   4.731 -1.5105  0.7300  0.2455
10598TIP3   OH253284   2.054   5.256   5.924 -0.3297  0.4973  0.4898
10598TIP3    H153285   2.119   5.185   5.915  1.2077  1.8070  0.7075
10598TIP3    H253286   1.989   5.222   5.986 -2.4633 -2.6276 -3.0549
10599TIP3   OH253287   5.452   4.011  10.979 -0.2136 -0.2432 -0.3611
10599TIP3    H153288   5.458   3.936  10.920 -0.2814 -0.9055  0.4479
10599TIP3    H253289   5.539   4.051  10.976 -0.6076  0.5467 -1.9353
10600TIP3   OH253290   1.137   0.117   4.851  0.0241 -0.3139  0.1937
10600TIP3    H153291   1.129   0.192   4.792  1.8988 -0.6306 -0.5196
10600TIP3    H253292   1.160   0.044   4.795 -3.0382 -1.8360  0.6871
10601TIP3   OH253293   6.449   0.805  12.827  0.0049 -0.1836  0.1722
10601TIP3    H153294   6.399   0.857  12.763  0.0344  0.1925  0.4535
10601TIP3    H253295   6.417   0.834  12.912 -0.5285 -1.1747  0.3265
10602TIP3   OH253296   0.600   1.078   1.600  0.1096  0.2912 -0.3313
10602TIP3    H153297   0.600   1.153   1.659 -1.8859  1.0335 -1.1955
10602TIP3    H253298   0.685   1.082   1.556  0.3971  1.4987  0.3090
10603TIP3   OH253299   3.586   5.203   4.318  0.6371 -0.3932 -0.0787
10603TIP3    H153300   3.608   5.111   4.313  0.6714 -0.5636  2.0692
10603TIP3    H253301   3.662   5.249   4.284  1.4810 -1.1394  0.7449
10604TIP3   OH253302   3.657   1.856   5.494  0.3657 -0.2986  0.6274
10604TIP3    H153303   3.699   1.936   5.461 -0.0362 -0.0244  0.7626
10604TIP3    H253304   3.729   1.796   5.512  0.6373 -0.1761 -0.0325
10605TIP3   OH253305   5.098   6.715   2.266  0.5626  0.1209 -0.2945
10605TIP3    H153306   5.102   6.720   2.171 -2.1247 -1.6808 -0.6211
10605TIP3    H253307   5.144   6.633   2.288  0.6642  0.2269 -0.1057
10606TIP3   OH253308   2.778   5.486  15.199 -0.2202  0.3251  0.4795
10606TIP3    H153309   2.697   5.519  15.237 -0.1143  0.9770  0.1560
10606TIP3    H253310   2.846   5.545  15.233  0.0012  0.2995  0.0870
10607TIP3   OH253311   0.309   2.002   4.363  0.1684 -0.0261  0.0096
10607TIP3    H153312   0.216   1.998   4.343 -0.2491 -0.5852  1.9052
10607TIP3    H253313   0.330   2.096   4.359 -0.7360  0.2131  0.5926
10608TIP3   OH253314   1.076   3.481   3.259 -0.4050 -0.3207 -0.3628
10608TIP3    H153315   1.140   3.552   3.260  0.2917 -0.9419 -0.1881
10608TIP3    H253316   0.995   3.522   3.228 -0.4733  0.9177  1.3230
10609TIP3   OH253317   3.613   3.044   4.652 -0.3755  0.3003  0.2651
10609TIP3    H153318   3.622   2.985   4.577 -2.7871  0.6035 -0.3295
10609TIP3    H253319   3.582   2.988   4.723  0.7047  0.2513  0.7240
10610TIP3   OH253320   1.663   2.873   4.014 -0.1349  0.2469 -0.1649
10610TIP3    H153321   1.748   2.872   4.058 -0.3986 -0.2508  0.3447
10610TIP3    H253322   1.676   2.822   3.934 -0.6186 -2.1881  1.2146
10611TIP3   OH253323   4.031   2.499   1.540  0.4825 -0.4716 -0.1731
10611TIP3    H153324   4.088   2.439   1.587 -1.5076 -0.5509  2.3751
10611TIP3    H253325   4.000   2.450   1.464  0.9333 -1.7295  0.4394
10612TIP3   OH253326   1.579   3.702   0.370 -0.4274 -0.4483  0.1145
10612TIP3    H153327   1.600   3.793   0.392 -0.1840 -0.7128  1.0146
10612TIP3    H253328   1.648   3.675   0.309  0.5247 -0.5683  1.2164
10613TIP3   OH253329   1.304   1.600   5.219 -0.1727  0.4697  0.1206
10613TIP3    H153330   1.305   1.695   5.212 -1.2705  0.5035  0.2002
10613TIP3    H253331   1.389   1.572   5.186 -0.1296  1.4350 -0.6336
10614TIP3   OH253332   4.813   3.064  16.092 -0.8393 -0.0440 -0.4186
10614TIP3    H153333   4.871   3.138  16.111 -0.2181  0.1695 -2.8092
10614TIP3    H253334   4.849   2.991  16.143  0.6620  0.4577 -0.7130
10615TIP3   OH253335   3.475   2.124  14.029  0.0470  0.0056 -0.5746
10615TIP3    H153336   3.430   2.040  14.035 -3.1454  1.6471  0.6810
10615TIP3    H253337   3.505   2.142  14.118  0.8150  0.1579 -0.8575
10616TIP3   OH253338   4.817   6.342  17.077 -0.0338  0.5524  0.2469
10616TIP3    H153339   4.824   6.422  17.128  1.0862  1.6689 -1.5481
10616TIP3    H253340   4.907   6.309  17.071  0.1463  1.2741 -2.1666
10617TIP3   OH253341   3.259   1.044   2.910  0.7594  0.2296 -0.0835
10617TIP3    H153342   3.293   0.993   2.837 -0.4788 -0.6617 -0.0784
10617TIP3    H253343   3.255   1.134   2.877 -1.3440 -0.3846 -1.7762
10618TIP3   OH253344   3.036   0.829   1.988 -0.7025 -1.0679 -0.1462
10618TIP3    H153345   3.073   0.741   1.982 -1.0813 -1.2587  0.2491
10618TIP3    H253346   2.968   0.821   2.056 -1.1544 -0.6208 -0.5463
10619TIP3   OH253347   5.434   6.466   0.019 -0.4516  0.2863  0.7682
10619TIP3    H153348   5.481   6.434   0.097 -0.1075 -1.0378  0.0534
10619TIP3    H253349   5.453   6.401  -0.048 -0.7541  1.4069 -0.4320
10620TIP3   OH253350   1.137   3.545   4.228  0.3388  0.0739  0.0778
10620TIP3    H153351   1.230   3.546   4.248  0.5996  0.1771 -1.0652
10620TIP3    H253352   1.117   3.454   4.206  0.3555  0.1909 -0.4467
10621TIP3   OH253353   2.423   3.215  14.239 -0.4087  0.2998 -0.4767
10621TIP3    H153354   2.437   3.309  14.231  0.4630  0.1996 -0.2408
10621TIP3    H253355   2.456   3.192  14.326 -2.5849  0.1039  0.3517
10622TIP3   OH253356   5.111   1.212  14.516 -0.3797 -0.0075 -0.5400
10622TIP3    H153357   5.127   1.298  14.555 -0.7146 -0.3239  0.3240
10622TIP3    H253358   5.017   1.199  14.523 -0.2508 -0.7443  0.0153
10623TIP3   OH253359   4.432   2.478   2.770 -0.3463  0.3481  0.5035
10623TIP3    H153360   4.503   2.467   2.832 -0.6490  0.3975  0.8643
10623TIP3    H253361   4.375   2.402   2.784 -0.8806  0.8083  0.9185
10624TIP3   OH253362   0.275   6.110   1.631 -0.2294 -0.1567 -0.2307
10624TIP3    H153363   0.210   6.169   1.668 -0.3863 -0.1747 -0.4747
10624TIP3    H253364   0.234   6.023   1.634 -0.2420 -0.1598 -0.4381
10625TIP3   OH253365   0.415   4.702  11.673 -0.2761  0.4091 -0.0312
10625TIP3    H153366   0.413   4.627  11.733 -1.5240  0.3244 -0.1655
10625TIP3    H253367   0.415   4.778  11.731 -3.7212  0.3907  0.1733
10626TIP3   OH253368   3.156   3.572   2.348  0.5399 -0.5002  0.0542
10626TIP3    H153369   3.239   3.617   2.330 -0.4454  1.2991 -0.2171
10626TIP3    H253370   3.104   3.586   2.269  0.3139 -2.5693 -0.2340
10627TIP3   OH253371   2.885   4.729   4.480  0.0298 -0.0983  0.2506
10627TIP3    H153372   2.830   4.667   4.432 -0.9262 -0.9741  2.3471
10627TIP3    H253373   2.864   4.814   4.443 -1.6765 -0.5859  0.0225
10628TIP3   OH253374   5.025   4.412   0.709 -0.0275 -0.2550 -0.2821
10628TIP3    H153375   4.930   4.408   0.712 -0.1639 -0.3265 -2.5074
10628TIP3    H253376   5.045   4.492   0.660  1.0685 -0.1088  0.3639
10629TIP3   OH253377   4.029   1.464  12.093  0.2315 -0.1030  0.2198
10629TIP3    H153378   4.050   1.516  12.016  0.5990  0.1452  0.4828
10629TIP3    H253379   3.956   1.511  12.134 -0.1445 -0.3866 -0.1252
10630TIP3   OH253380   4.956   2.615  16.851 -0.2614 -0.1548  0.0335
10630TIP3    H153381   4.973   2.523  16.832  0.0404 -0.0430 -0.2559
10630TIP3    H253382   5.019   2.638  16.919 -0.2526 -0.1320  0.0190
10631TIP3   OH253383   3.934   3.993   3.244 -0.3617  0.2771 -0.2802
10631TIP3    H153384   3.967   4.078   3.273 -1.2767  0.5959 -0.1374
10631TIP3    H253385   3.912   3.948   3.325  0.8065 -0.4005 -0.3159
10632TIP3   OH253386   6.588   5.930   0.122 -0.4533  0.4089 -0.4273
10632TIP3    H153387   6.675   5.968   0.128  0.0509 -0.6014 -0.9800
10632TIP3    H253388   6.528   6.004   0.131  0.4710  1.3766 -1.8506
10633TIP3   OH253389   4.910   1.008   3.002  0.1312 -0.5340  0.6493
10633TIP3    H153390   4.936   1.094   2.968  2.2857  0.0305  3.3426
10633TIP3    H253391   4.933   0.947   2.932  0.4804  0.8882 -0.5352
10634TIP3   OH253392   6.721   2.260   0.235 -0.0920  0.1972  0.4100
10634TIP3    H153393   6.691   2.191   0.295 -0.2001 -1.2108 -1.1848
10634TIP3    H253394   6.795   2.301   0.280  0.4354 -1.4413  1.1074
10635TIP3   OH253395   5.726   4.474   4.635 -0.2777  0.0968  0.3888
10635TIP3    H153396   5.801   4.521   4.599 -1.5128  1.8543 -0.0488
10635TIP3    H253397   5.746   4.464   4.728  0.1381  1.3680  0.4662
10636TIP3   OH253398   1.995   0.938   1.406  0.8518  0.3364  0.2835
10636TIP3    H153399   2.053   1.012   1.387 -0.4584  2.0029  2.3076
10636TIP3    H253400   1.920   0.951   1.347  0.4737  0.8398  0.8639
10637TIP3   OH253401   2.435   6.055   4.124 -0.6929  0.2283  0.2046
10637TIP3    H153402   2.438   5.968   4.084 -2.1916  0.1377  0.2368
10637TIP3    H253403   2.527   6.081   4.133 -0.1448 -1.8687  1.3422
10638TIP3   OH253404   4.680   6.348   3.470 -0.0299 -0.1256 -0.2440
10638TIP3    H153405   4.774   6.364   3.474 -0.1703  1.2523 -1.4395
10638TIP3    H253406   4.641   6.435   3.477 -1.2115 -0.6496 -0.0801
10639TIP3   OH253407   5.491   1.833  13.597  0.4489 -0.3283 -0.2814
10639TIP3    H153408   5.406   1.859  13.563  0.7714 -1.0383 -1.6977
10639TIP3    H253409   5.553   1.894  13.558  0.7764 -0.8781 -0.6362
10640TIP3   OH253410   4.633   4.526  11.819 -0.4938  0.2780  0.6702
10640TIP3    H153411   4.551   4.532  11.867 -0.5838  2.7320  0.3554
10640TIP3    H253412   4.662   4.436  11.831 -2.4590 -0.2255  2.0502
10641TIP3   OH253413   4.119   3.063   0.955  0.2533  0.1714  0.0498
10641TIP3    H153414   4.141   2.983   1.003 -2.2198 -1.2473 -1.0141
10641TIP3    H253415   4.121   3.037   0.863 -1.0383  1.1847 -0.2976
10642TIP3   OH253416   5.899   2.571  12.535 -0.4075  0.3521  0.0419
10642TIP3    H153417   5.820   2.518  12.530 -1.1937  1.2582  1.9194
10642TIP3    H253418   5.914   2.600  12.445 -1.4174 -0.9449 -0.5700
10643TIP3   OH253419   3.519   5.537   1.233 -0.0399 -0.2128  0.6474
10643TIP3    H153420   3.577   5.584   1.173 -0.6553 -0.5534 -0.2358
10643TIP3    H253421   3.457   5.603   1.264  1.2774  0.3439  2.2422
10644TIP3   OH253422   5.225   0.696  16.128 -0.2260  0.3588  0.5586
10644TIP3    H153423   5.149   0.751  16.110 -1.3755 -1.0227  1.0455
10644TIP3    H253424   5.245   0.654  16.045 -1.3374 -0.8742  0.8803
10645TIP3   OH253425   5.266   1.146   0.332 -0.2394 -0.0218 -0.4327
10645TIP3    H153426   5.319   1.067   0.335  0.5758  0.5270  2.1423
10645TIP3    H253427   5.205   1.138   0.405  0.2338  1.9488  0.2486
10646TIP3   OH253428   2.150   1.705  12.615 -0.6015  0.4554  0.2530
10646TIP3    H153429   2.228   1.759  12.602  0.5684 -1.5027 -1.4559
10646TIP3    H253430   2.098   1.719  12.536 -0.7734 -0.1166  0.2627
10647TIP3   OH253431   3.143   5.043   6.607  0.2701  0.5625 -0.1311
10647TIP3    H153432   3.097   5.067   6.527  0.5597  0.6145 -0.2800
10647TIP3    H253433   3.073   5.025   6.670  0.0272 -0.3520 -0.6472
10648TIP3   OH253434   1.507   1.622  15.520 -0.0986 -0.7533 -0.8303
10648TIP3    H153435   1.470   1.592  15.437 -2.4396  0.2443 -0.2377
10648TIP3    H253436   1.530   1.713  15.504 -0.7404 -0.5022 -0.3515
10649TIP3   OH253437   4.002   5.934   3.317 -0.9015 -0.0773  0.0081
10649TIP3    H153438   4.032   5.880   3.391 -0.7574  0.1892  0.1437
10649TIP3    H253439   4.051   6.016   3.326 -1.7293  0.3980  0.2785
10650TIP3   OH253440   1.028   2.474  12.518 -0.1136  0.8386  0.1791
10650TIP3    H153441   1.105   2.531  12.510 -0.0709  0.5835 -1.7886
10650TIP3    H253442   1.002   2.457  12.428 -2.1321  0.4229  0.7913
10651TIP3   OH253443   5.904   2.640   6.190 -0.8239 -0.1559 -0.5351
10651TIP3    H153444   5.818   2.652   6.152 -0.2978  1.6483 -1.2472
10651TIP3    H253445   5.954   2.717   6.163  0.9221 -0.9966  0.1158
10652TIP3   OH253446   1.032   4.464  13.817 -0.1958  0.4764 -0.1142
10652TIP3    H153447   1.100   4.443  13.882 -0.9727  1.3304  1.0218
10652TIP3    H253448   1.073   4.525  13.757  0.1639  0.6736  0.3282
10653TIP3   OH253449   0.700   4.735   1.057  0.4452 -0.0097 -0.1613
10653TIP3    H153450   0.652   4.809   1.020 -1.1808 -1.1821 -0.4890
10653TIP3    H253451   0.711   4.675   0.984  2.9521  0.4304 -0.2292
10654TIP3   OH253452   3.379   4.105   4.869 -0.4447 -0.4009  0.6949
10654TIP3    H153453   3.456   4.077   4.918 -1.0052 -0.9536  1.2762
10654TIP3    H253454   3.414   4.138   4.786  0.3668 -1.2133  0.7025
10655TIP3   OH253455   3.839   0.859   3.771  0.3721  0.2881 -0.4763
10655TIP3    H153456   3.912   0.896   3.722  1.3454 -0.0222  0.6883
10655TIP3    H253457   3.780   0.933   3.786  0.6569  0.6366 -1.0244
10656TIP3   OH253458   6.535   4.111   1.737  0.2365  0.3185  0.5103
10656TIP3    H153459   6.558   4.028   1.695  0.2897 -0.8203  2.6449
10656TIP3    H253460   6.618   4.158   1.742  0.2509  0.4404 -0.4994
10657TIP3   OH253461   3.524   1.711  17.150  0.5702  0.4937 -0.0024
10657TIP3    H153462   3.569   1.661  17.217  1.4018 -0.0118 -0.9087
10657TIP3    H253463   3.544   1.803  17.170 -1.3646  0.5830  1.9608
10658TIP3   OH253464   2.273   3.327  12.474  0.6074  0.3309  0.1477
10658TIP3    H153465   2.330   3.310  12.549 -2.3483 -0.4643  2.4024
10658TIP3    H253466   2.275   3.422  12.463  1.5549  0.3998  0.8377
10659TIP3   OH253467   5.594   3.015  11.494  0.6336 -0.4612 -0.3971
10659TIP3    H153468   5.666   3.036  11.552  1.4881 -1.3503 -1.0999
10659TIP3    H253469   5.620   3.049  11.409  1.6557 -3.2981 -1.3598
10660TIP3   OH253470   0.744   1.082   0.870  0.2963 -0.4105  0.1353
10660TIP3    H153471   0.766   0.990   0.883  0.8259 -0.5642 -1.5654
10660TIP3    H253472   0.665   1.080   0.816  0.4108  0.1360 -0.0576
10661TIP3   OH253473   4.405   0.829  11.374  0.6338  0.2014  0.1179
10661TIP3    H153474   4.427   0.766  11.444  2.0635  0.5052 -0.0351
10661TIP3    H253475   4.474   0.819  11.310  0.1928  1.0652 -0.5150
10662TIP3   OH253476   3.618   5.898   3.608 -0.4167 -0.1287  0.3467
10662TIP3    H153477   3.598   5.923   3.698  0.0438 -0.7340  0.6259
10662TIP3    H253478   3.713   5.883   3.608 -0.2298  0.9084 -0.4984
10663TIP3   OH253479   4.440   5.499  15.173 -0.0785 -0.5749 -0.1601
10663TIP3    H153480   4.532   5.473  15.177 -0.6476 -2.5191  1.8856
10663TIP3    H253481   4.433   5.571  15.236 -0.1506 -1.1568  0.5073
10664TIP3   OH253482   2.576   5.296  14.876  0.1894  0.1730 -0.3535
10664TIP3    H153483   2.504   5.278  14.936  1.3720 -1.7655  0.5864
10664TIP3    H253484   2.653   5.257  14.918  1.5070  0.7962 -2.0477
10665TIP3   OH253485   4.511   6.762  11.896  0.5075 -0.3117  0.0702
10665TIP3    H153486   4.564   6.791  11.822  1.0205 -0.0889  0.5168
10665TIP3    H253487   4.462   6.839  11.922 -1.6170 -1.0011 -1.6157
10666TIP3   OH253488   5.141   6.371  14.758  0.3903 -0.2881 -0.1848
10666TIP3    H153489   5.129   6.462  14.782 -2.0160 -0.6046  0.0962
10666TIP3    H253490   5.118   6.367  14.665  1.0744 -0.5232 -0.3512
10667TIP3   OH253491   3.591   0.808   1.681 -0.3237  0.4422 -0.2603
10667TIP3    H153492   3.556   0.726   1.648 -0.5160  0.2706  0.3581
10667TIP3    H253493   3.578   0.803   1.776  2.2590 -0.0746  0.1476
10668TIP3   OH253494   5.539   5.782  14.113  0.0179 -0.3603 -0.4543
10668TIP3    H153495   5.568   5.727  14.185  0.1708 -0.5105 -0.6306
10668TIP3    H253496   5.611   5.779  14.050 -0.9741 -1.9650 -1.5994
10669TIP3   OH253497   3.375   3.001   0.313  0.2716  0.4104  0.2206
10669TIP3    H153498   3.370   2.974   0.405  1.7922 -0.8726 -0.0289
10669TIP3    H253499   3.402   3.093   0.317  0.9575  0.1935  1.0828
10670TIP3   OH253500   2.231   3.396   0.844 -0.2160  0.7697 -0.6495
10670TIP3    H153501   2.288   3.374   0.917  1.7845  1.0977 -2.0406
10670TIP3    H253502   2.263   3.344   0.770  0.1829  3.0630 -2.2082
10671TIP3   OH253503   1.999   4.792   2.393 -0.1877  0.5104  0.1832
10671TIP3    H153504   1.903   4.796   2.389 -0.2938 -0.4059  1.4332
10671TIP3    H253505   2.022   4.718   2.338 -0.1612  0.9007 -0.3436
10672TIP3   OH253506   1.415   5.950  12.542 -0.2916  0.6230 -0.5110
10672TIP3    H153507   1.458   5.957  12.457  0.6308  0.7219 -0.0417
10672TIP3    H253508   1.321   5.955  12.521 -0.0633  1.2269 -1.4654
10673TIP3   OH253509   6.387   6.432  11.553 -0.1552 -1.1662  0.1583
10673TIP3    H153510   6.327   6.467  11.618 -2.6460 -2.1513 -1.4676
10673TIP3    H253511   6.432   6.360  11.598  0.1387 -0.1716  1.5227
10674TIP3   OH253512   1.867   3.097   3.131 -0.0973 -0.4671 -0.6743
10674TIP3    H153513   1.777   3.106   3.163  0.1949 -0.0601  0.0368
10674TIP3    H253514   1.859   3.109   3.036 -0.5805  1.2194 -0.4487
10675TIP3   OH253515   4.824   1.250  16.313 -0.1840  0.3537 -0.3635
10675TIP3    H153516   4.794   1.164  16.343 -1.6606  0.7997 -0.4642
10675TIP3    H253517   4.864   1.233  16.228 -1.8927 -0.0550 -1.1341
10676TIP3   OH253518   1.779   0.683  16.173  0.4693  0.0577 -0.2272
10676TIP3    H153519   1.719   0.716  16.106  0.1750 -0.6427 -0.3261
10676TIP3    H253520   1.760   0.736  16.250 -1.7663 -1.4585  0.3713
10677TIP3   OH253521   2.026   0.138   1.059 -0.4181 -0.2813  0.1380
10677TIP3    H153522   1.982   0.159   0.977 -0.3190 -1.2904 -0.1854
10677TIP3    H253523   2.115   0.115   1.034 -0.2424 -0.0928  0.5803
10678TIP3   OH253524   0.467   0.133  12.508  0.1337  0.2975  0.0659
10678TIP3    H153525   0.398   0.198  12.494 -1.6645 -1.6652 -0.9053
10678TIP3    H253526   0.503   0.117  12.420  0.6295  0.0708  0.3082
10679TIP3   OH253527   0.050   6.276  16.990 -0.5348  0.4862 -0.4025
10679TIP3    H153528  -0.012   6.339  17.027  0.2847  1.1118 -0.0781
10679TIP3    H253529  -0.001   6.195  16.981 -0.8020  0.3143  2.0182
10680TIP3   OH253530   4.960   2.441  11.633  0.0131 -0.5260 -0.3588
10680TIP3    H153531   4.949   2.377  11.563  2.6191  0.5879 -1.9498
10680TIP3    H253532   4.972   2.388  11.712 -1.6637 -1.8399 -0.9217
10681TIP3   OH253533   5.477   5.320  13.096  0.2072 -0.8115  0.0826
10681TIP3    H153534   5.474   5.230  13.126  1.0015 -0.8429  0.0856
10681TIP3    H253535   5.568   5.335  13.072  0.0795 -0.0244  0.0403
10682TIP3   OH253536   0.663   0.946   3.334 -0.0255  0.0253 -0.0808
10682TIP3    H153537   0.734   0.915   3.390  1.1077 -0.1558 -1.5580
10682TIP3    H253538   0.706   0.971   3.252 -1.5939  0.4975 -0.7985
10683TIP3   OH253539   6.443   1.802   5.095 -0.2499  0.0977 -0.1438
10683TIP3    H153540   6.398   1.825   5.013 -0.1734 -2.8194 -1.1405
10683TIP3    H253541   6.419   1.711   5.110  0.1566  0.3873  2.8845
10684TIP3   OH253542   1.624   4.506   4.133 -0.5064  0.4778 -0.8133
10684TIP3    H153543   1.543   4.543   4.098  0.2422 -0.3466 -3.6696
10684TIP3    H253544   1.632   4.420   4.091  1.9915  0.6748 -0.9325
10685TIP3   OH253545   4.551   0.210   1.355 -0.3431  0.4294  0.0191
10685TIP3    H153546   4.633   0.187   1.312 -1.2031 -0.1055 -1.3920
10685TIP3    H253547   4.549   0.155   1.433  0.0779 -0.4558 -0.5737
10686TIP3   OH253548   3.161   3.828  13.912 -0.5194 -0.6245 -0.1649
10686TIP3    H153549   3.081   3.793  13.950  0.8864 -2.2996  1.4867
10686TIP3    H253550   3.229   3.808  13.976  1.1998  0.9727 -1.3676
10687TIP3   OH253551   6.562   4.892  10.982 -0.4947 -0.4045 -0.0752
10687TIP3    H153552   6.538   4.852  11.065 -0.4788 -0.8708 -0.2915
10687TIP3    H253553   6.496   4.859  10.920 -0.3510 -0.2672 -0.3014
10688TIP3   OH253554   6.510   6.824  12.761  0.2357 -0.7446 -0.3660
10688TIP3    H153555   6.498   6.729  12.751 -0.8266 -0.6757  0.0942
10688TIP3    H253556   6.535   6.854  12.674 -0.5019 -1.3076 -0.7820
10689TIP3   OH253557   3.657   0.084  16.320 -0.0102 -0.2760  0.1519
10689TIP3    H153558   3.690   0.142  16.388 -0.4740 -0.5080  0.5789
10689TIP3    H253559   3.583   0.131  16.282  2.5354  1.6983 -2.9449
10690TIP3   OH253560   4.059   0.262   5.855 -0.0339  0.0594 -0.3816
10690TIP3    H153561   4.082   0.170   5.848  2.3891  0.5057  0.6454
10690TIP3    H253562   4.005   0.267   5.934 -0.2983 -0.5069 -0.5247
10691TIP3   OH253563   2.665   2.612   3.291 -0.3051  0.2751  0.1081
10691TIP3    H153564   2.600   2.673   3.324 -0.8916 -0.2527 -0.0410
10691TIP3    H253565   2.741   2.666   3.268 -0.4736  0.8242  0.8347
10692TIP3   OH253566   1.806   3.873   6.585  0.0744  0.4135 -0.5332
10692TIP3    H153567   1.714   3.899   6.590 -0.4387 -1.4063  0.1180
10692TIP3    H253568   1.808   3.784   6.619  2.4990  1.3312  2.1601
10693TIP3   OH253569   0.359   6.461  16.783 -0.4638 -0.2916 -0.4149
10693TIP3    H153570   0.296   6.443  16.713 -0.9131  3.3299 -1.1734
10693TIP3    H253571   0.308   6.451  16.864 -0.9180 -1.0970 -0.7844
10694TIP3   OH253572   5.870   6.548   5.236 -0.0176 -0.0737 -0.4448
10694TIP3    H153573   5.888   6.622   5.179  0.0765 -0.3286 -0.7529
10694TIP3    H253574   5.791   6.573   5.284  1.5423  1.3914  1.5237
10695TIP3   OH253575   6.754   0.769  12.836  0.6379  0.0888 -0.6716
10695TIP3    H153576   6.679   0.747  12.781 -0.7587  0.3041  1.0470
10695TIP3    H253577   6.797   0.841  12.791 -0.9478  0.8183 -1.0696
10696TIP3   OH253578   3.997   2.644  12.205 -0.1598 -0.4339  0.3165
10696TIP3    H153579   3.932   2.600  12.151 -0.8490 -0.6978  1.3458
10696TIP3    H253580   4.078   2.596  12.189  0.1777  0.7515 -2.0655
10697TIP3   OH253581   5.397   3.852   1.072 -0.1668 -0.2479 -0.1884
10697TIP3    H153582   5.451   3.788   1.119  0.5510  0.5773  0.1473
10697TIP3    H253583   5.343   3.892   1.141 -0.5395 -0.4230 -0.3788
10698TIP3   OH253584   6.678   3.509   0.150 -0.7744  0.3981  0.5270
10698TIP3    H153585   6.717   3.498   0.063 -1.4276 -0.3073  0.3107
10698TIP3    H253586   6.692   3.601   0.171  2.3940 -0.1002  1.1360
10699TIP3   OH253587   1.520   2.931   1.739 -0.7428 -0.1221 -0.3246
10699TIP3    H153588   1.552   3.019   1.757 -0.3575  0.0089 -1.5175
10699TIP3    H253589   1.458   2.942   1.666 -2.0003 -0.6326  0.6274
10700TIP3   OH253590   4.325   5.962  15.260  0.3874  0.4251  1.1240
10700TIP3    H153591   4.360   5.984  15.174 -0.9910 -0.8136  0.2050
10700TIP3    H253592   4.365   6.026  15.319  2.7677  0.2005 -0.1166
10701TIP3   OH253593   3.316   3.228   3.439 -1.0432  0.0507  0.0650
10701TIP3    H153594   3.337   3.204   3.530  0.3960 -0.8491 -0.4847
10701TIP3    H253595   3.277   3.315   3.447 -1.0803 -0.0628  1.5623
10702TIP3   OH253596   2.775   2.858   3.155 -0.5604  0.0599 -0.1576
10702TIP3    H153597   2.766   2.901   3.240  0.6429 -0.7282  0.3880
10702TIP3    H253598   2.721   2.911   3.096 -0.9348  0.9654  0.9614
10703TIP3   OH253599   6.082   0.335   3.617 -0.0338  0.6471 -0.1391
10703TIP3    H153600   6.109   0.415   3.663 -1.1758  0.9681  0.0109
10703TIP3    H253601   6.115   0.346   3.528  2.1539  0.0529  0.5239
10704TIP3   OH253602   1.489   4.690  10.585  0.1987 -0.3908 -0.0990
10704TIP3    H153603   1.430   4.756  10.548 -0.6080 -1.2264 -0.3391
10704TIP3    H253604   1.434   4.638  10.643  0.6024 -1.4033 -0.5930
10705TIP3   OH253605   5.099   0.046  12.168  0.3457 -0.3709  0.0506
10705TIP3    H153606   5.109  -0.035  12.218  1.7414 -1.6251 -2.1049
10705TIP3    H253607   5.185   0.088  12.173 -0.2517  0.8123  0.8130
10706TIP3   OH253608   3.938   1.727   3.647  0.0254  0.5825  0.0978
10706TIP3    H153609   3.912   1.653   3.702  3.5229 -0.7388  0.2337
10706TIP3    H253610   3.883   1.720   3.569 -0.1713 -1.8571  0.3823
10707TIP3   OH253611   2.863   0.107   0.097 -0.1068  0.4119 -0.6270
10707TIP3    H153612   2.882   0.017   0.122  2.0380  0.6257 -1.3189
10707TIP3    H253613   2.916   0.160   0.156 -3.7248  1.5215  2.0383
10708TIP3   OH253614   2.371   4.268  11.160 -0.9858  0.1751 -0.1844
10708TIP3    H153615   2.384   4.347  11.212 -0.6740 -1.0204  1.6406
10708TIP3    H253616   2.390   4.295  11.070  4.4119  0.9979  0.8952
10709TIP3   OH253617   4.269   2.469   0.486 -0.3548 -0.5539  0.0053
10709TIP3    H153618   4.315   2.408   0.427  0.1054  0.7126 -1.0110
10709TIP3    H253619   4.268   2.552   0.438 -1.9995 -0.0388  0.8503
10710TIP3   OH253620   6.202   5.893  16.942  0.3964  0.3032 -0.2704
10710TIP3    H153621   6.268   5.878  17.010  1.9853  1.6518 -1.4414
10710TIP3    H253622   6.223   5.829  16.874  0.4381  0.6536 -0.5906
10711TIP3   OH253623   6.296   0.385  16.089  0.1796 -0.3771  0.1986
10711TIP3    H153624   6.246   0.332  16.027  0.9827 -0.2164 -0.6011
10711TIP3    H253625   6.232   0.448  16.123 -0.3433 -0.6581 -0.2423
10712TIP3   OH253626   1.078   4.812  11.069  0.8233  0.1351  0.4043
10712TIP3    H153627   1.140   4.744  11.095  1.1143 -0.2065 -1.1084
10712TIP3    H253628   1.107   4.840  10.983 -1.3672 -0.3736 -0.5744
10713TIP3   OH253629   5.908   2.101  15.825  0.1516  0.3690  0.2390
10713TIP3    H153630   5.896   2.065  15.737  2.6127  0.1207 -0.0760
10713TIP3    H253631   5.917   2.024  15.881  4.2337  0.2136 -0.2610
10714TIP3   OH253632   2.357   6.052  12.580 -0.1450  0.0424 -0.2951
10714TIP3    H153633   2.288   6.015  12.635  0.1335 -0.2688 -0.1570
10714TIP3    H253634   2.430   5.991  12.587 -0.5022 -0.6183 -1.9412
10715TIP3   OH253635   3.206   2.091   5.883  0.0184 -0.8040 -0.1652
10715TIP3    H153636   3.192   2.021   5.819 -2.1699 -1.0973  0.5666
10715TIP3    H253637   3.214   2.170   5.829 -1.6434 -1.0638 -0.8375
10716TIP3   OH253638   5.340   4.301   0.928  0.3480  0.8876  0.5746
10716TIP3    H153639   5.267   4.279   0.985 -0.5306  0.2476 -0.7337
10716TIP3    H253640   5.328   4.394   0.909 -0.1541  0.7798  0.3427
10717TIP3   OH253641   2.529   2.424   4.419  0.3083 -0.1223  0.4767
10717TIP3    H153642   2.545   2.518   4.425 -0.0641  0.0959 -1.4187
10717TIP3    H253643   2.611   2.388   4.387 -0.0014 -0.2418 -0.1948
10718TIP3   OH253644   1.461   4.928   4.362 -0.6185  0.5132  0.3308
10718TIP3    H153645   1.392   4.977   4.408 -0.2530 -0.1837  1.6887
10718TIP3    H253646   1.478   4.979   4.283 -2.7598  0.6566 -0.1151
10719TIP3   OH253647   4.556   6.027   0.504  0.0259  0.1315 -0.3231
10719TIP3    H153648   4.521   6.067   0.426  0.6968 -0.7151 -1.0864
10719TIP3    H253649   4.626   6.085   0.533 -0.0708  0.3243 -0.4822
10720TIP3   OH253650   2.529   5.175   3.791 -0.1152 -0.0654 -0.3696
10720TIP3    H153651   2.542   5.265   3.819  3.6204 -0.6190  0.1415
10720TIP3    H253652   2.615   5.147   3.759 -1.4164 -3.1081 -1.5994
10721TIP3   OH253653   1.940   4.155   4.028  0.0902  0.2885  0.3921
10721TIP3    H153654   1.989   4.232   3.998 -0.1702 -0.0116 -0.8840
10721TIP3    H253655   1.997   4.114   4.093  1.3537  0.1972 -0.7196
10722TIP3   OH253656   0.996   2.331   4.903  0.3726 -0.1307 -0.7250
10722TIP3    H153657   0.983   2.342   4.997 -0.6048  1.7007 -1.0328
10722TIP3    H253658   0.934   2.263   4.878 -0.2815  0.2723 -0.2392
10723TIP3   OH253659   3.142   1.153   6.427  0.7534  0.1700 -0.0949
10723TIP3    H153660   3.173   1.132   6.339  0.6401 -0.3416 -0.0189
10723TIP3    H253661   3.199   1.101   6.485 -0.4873 -1.1213  0.0248
10724TIP3   OH253662   3.707   2.223  15.799  0.2159  0.2790 -0.1591
10724TIP3    H153663   3.688   2.282  15.873 -3.7217  0.0383 -0.7294
10724TIP3    H253664   3.688   2.136  15.833 -0.2561  0.0313 -1.0320
10725TIP3   OH253665   1.847   0.014  14.521  0.0580 -0.8751  0.0764
10725TIP3    H153666   1.940   0.038  14.520 -0.2424  0.3665 -0.9221
10725TIP3    H253667   1.803   0.091  14.557 -0.3370 -2.7196  4.0047
10726TIP3   OH253668   2.731   6.413  10.916  0.1986  0.8273 -0.0318
10726TIP3    H153669   2.665   6.472  10.879 -0.1122  1.3698  1.3133
10726TIP3    H253670   2.801   6.411  10.851 -0.7691  0.8962 -1.1126
10727TIP3   OH253671   5.158   5.421   3.468 -0.3013  0.0755  0.3676
10727TIP3    H153672   5.112   5.472   3.402 -1.0064  1.2868  1.7248
10727TIP3    H253673   5.203   5.486   3.522  1.2885 -0.9641  0.3395
10728TIP3   OH253674   4.103   2.911  16.950  0.6729 -0.1796 -0.0064
10728TIP3    H153675   4.036   2.858  16.908  1.9705 -2.3802  0.5099
10728TIP3    H253676   4.146   2.957  16.878 -0.7662  0.5475 -0.4262
10729TIP3   OH253677   5.029   0.248   5.367 -0.2092  0.3997 -0.3786
10729TIP3    H153678   5.070   0.329   5.398 -0.3615 -0.0490  1.0641
10729TIP3    H253679   5.034   0.254   5.272  2.0004  0.9961 -0.2946
10730TIP3   OH253680   4.249   3.365   3.888 -0.7800 -0.1396  0.2551
10730TIP3    H153681   4.336   3.366   3.849  0.3901  2.4326  2.5837
10730TIP3    H253682   4.258   3.313   3.968 -1.5571 -0.4235  0.1717
10731TIP3   OH253683   0.783   6.755  11.766  0.3333 -0.1193 -0.3463
10731TIP3    H153684   0.834   6.737  11.844 -0.0536  1.2123  0.2414
10731TIP3    H253685   0.757   6.847  11.774  0.1028 -0.0054 -1.9312
10732TIP3   OH253686   6.240   3.373  15.785  0.1797  0.2038 -0.1406
10732TIP3    H153687   6.274   3.462  15.797  0.3216 -0.1399  2.3235
10732TIP3    H253688   6.303   3.331  15.727  0.4974  1.4761 -0.7588
10733TIP3   OH253689   1.459   0.159   6.438  0.0738 -0.6037  0.0041
10733TIP3    H153690   1.458   0.069   6.471  2.1890 -0.5819  0.2498
10733TIP3    H253691   1.510   0.208   6.503 -0.1771  0.5592 -0.6523
10734TIP3   OH253692   0.050   0.192  13.768  0.2506  0.5763  0.4771
10734TIP3    H153693   0.117   0.260  13.760  1.1094 -0.0001  2.2498
10734TIP3    H253694  -0.016   0.231  13.825 -1.9469  1.8157 -2.6284
10735TIP3   OH253695   4.157   2.443   5.286  0.1153  0.6776  0.0921
10735TIP3    H153696   4.177   2.437   5.192  0.2059 -0.1216  0.1572
10735TIP3    H253697   4.210   2.375   5.326 -1.1018 -0.0540  0.5264
10736TIP3   OH253698   4.202   2.169   0.755 -0.2086  0.2374 -0.3306
10736TIP3    H153699   4.202   2.264   0.766  0.6549  0.4484 -1.8593
10736TIP3    H253700   4.142   2.153   0.682 -3.2367 -0.7796  2.1586
10737TIP3   OH253701   3.567   2.107  16.341  0.1522  0.4873 -0.1215
10737TIP3    H153702   3.570   2.130  16.248  0.3167 -1.5426 -0.6877
10737TIP3    H253703   3.617   2.025  16.346  0.8534  1.0028  1.9147
10738TIP3   OH253704   0.314   0.038   2.351  0.1343 -0.6242 -0.0066
10738TIP3    H153705   0.349   0.060   2.437  2.4399 -1.1931 -0.7127
10738TIP3    H253706   0.391   0.009   2.301 -1.0826 -0.0717 -2.3338
10739TIP3   OH253707   5.694   3.580   1.826 -0.1059 -0.0485 -0.1448
10739TIP3    H153708   5.632   3.559   1.896  1.0006  0.1983  0.9365
10739TIP3    H253709   5.751   3.504   1.820  0.0562  0.0987 -0.5183
10740TIP3   OH253710   6.767   4.794   4.220  0.1519  0.6522  0.2137
10740TIP3    H153711   6.745   4.807   4.312 -0.1219  2.2975 -0.0412
10740TIP3    H253712   6.688   4.756   4.181  0.1361  0.3067  0.5768
10741TIP3   OH253713   1.433   0.907   3.156 -0.1746  0.6523 -0.7403
10741TIP3    H153714   1.356   0.960   3.176  0.3965  0.5471  2.2012
10741TIP3    H253715   1.495   0.927   3.227  1.5348 -1.1364 -1.6178
10742TIP3   OH253716   1.265   1.082   1.809  0.0370  0.6091  0.0734
10742TIP3    H153717   1.326   1.015   1.779  0.3643  1.7429 -1.9445
10742TIP3    H253718   1.179   1.051   1.778  0.0559  0.6651 -0.0346
10743TIP3   OH253719   0.871   5.871  16.939 -0.0857 -0.0678  0.4184
10743TIP3    H153720   0.857   5.790  16.891 -1.3551 -0.0940  0.7856
10743TIP3    H253721   0.948   5.854  16.993  1.1813 -0.1391 -1.3294
10744TIP3   OH253722   2.563   4.376  14.925 -0.8318  0.3159  0.0281
10744TIP3    H153723   2.555   4.399  14.832  0.4748 -1.0200 -0.4504
10744TIP3    H253724   2.478   4.339  14.948 -1.3648  1.1952 -0.4605
10745TIP3   OH253725   1.925   3.225  13.109  0.1712 -0.3625  0.4254
10745TIP3    H153726   1.894   3.195  13.024  0.7691 -1.0013  0.4312
10745TIP3    H253727   1.883   3.311  13.120  1.6260  0.6428 -1.3831
10746TIP3   OH253728   3.669   0.558  13.342 -0.1971 -0.1515  0.2707
10746TIP3    H153729   3.644   0.582  13.431 -0.0912  0.9614  0.0102
10746TIP3    H253730   3.614   0.482  13.322 -0.6350 -0.0583  1.0701
10747TIP3   OH253731   2.041   1.925  16.766  0.0074 -0.2445 -0.3061
10747TIP3    H153732   2.025   2.013  16.800  0.3508  0.5712 -2.1528
10747TIP3    H253733   1.961   1.903  16.718 -1.0180 -1.9290  2.0165
10748TIP3   OH253734   5.174   3.408   5.974 -0.3208  0.2838  0.2106
10748TIP3    H153735   5.232   3.454   6.034 -0.9700 -0.5005  1.4742
10748TIP3    H253736   5.164   3.468   5.899 -1.9046  2.6663  2.1655
10749TIP3   OH253737   6.610   2.276  12.362  0.2836  0.2954 -0.2853
10749TIP3    H153738   6.516   2.271  12.342  0.4200 -0.5350 -0.7678
10749TIP3    H253739   6.630   2.369  12.360  0.1438  0.3622 -3.4368
10750TIP3   OH253740   0.374   6.085  16.976 -0.5617  0.0983 -0.5845
10750TIP3    H153741   0.344   6.175  16.967  0.3145  0.4531 -0.1573
10750TIP3    H253742   0.469   6.093  16.986 -0.6097 -0.7571  0.8386
10751TIP3   OH253743   6.416   1.471   3.242  0.2989  0.4333  0.6098
10751TIP3    H153744   6.368   1.391   3.262 -0.2515  0.6352  0.1593
10751TIP3    H253745   6.354   1.541   3.263 -0.2647  0.6580 -1.5875
10752TIP3   OH253746   5.936   2.926  16.601 -0.2135 -0.0118 -0.5262
10752TIP3    H153747   5.987   2.986  16.546  0.8898 -1.2655 -0.9145
10752TIP3    H253748   5.874   2.983  16.647 -0.2237  1.2319 -2.0176
10753TIP3   OH253749   5.226   5.626  13.733  0.1781 -0.3517 -0.2058
10753TIP3    H153750   5.307   5.629  13.784 -0.4987 -0.4493  0.8952
10753TIP3    H253751   5.228   5.540  13.690 -0.1842 -1.1165  1.2582
10754TIP3   OH253752   1.228   6.311   2.541 -0.3803  0.0423  0.3550
10754TIP3    H153753   1.223   6.217   2.559  0.0739 -0.2398 -0.8825
10754TIP3    H253754   1.193   6.321   2.453 -1.2058  1.1604  0.7848
10755TIP3   OH253755   4.092   4.587   4.902  0.0544 -0.1278  0.8051
10755TIP3    H153756   4.129   4.554   4.984 -1.0841  1.6784  2.1165
10755TIP3    H253757   3.999   4.598   4.920 -0.3797 -0.4469 -1.0256
10756TIP3   OH253758   3.487   4.371  13.358 -0.0384  0.0585  0.3518
10756TIP3    H153759   3.462   4.290  13.313 -1.3459  1.4349 -1.5619
10756TIP3    H253760   3.555   4.409  13.302 -0.9542  1.2899  0.0288
10757TIP3   OH253761   4.258   1.836  16.299 -0.6294 -0.3685 -0.1409
10757TIP3    H153762   4.167   1.825  16.324 -0.6529  3.0635  1.8176
10757TIP3    H253763   4.256   1.858  16.206 -1.7096 -0.7199 -0.2082
10758TIP3   OH253764   4.379   4.284   4.587  0.2192 -0.0750 -0.8365
10758TIP3    H153765   4.362   4.373   4.557  0.2182 -0.3246 -1.5745
10758TIP3    H253766   4.470   4.285   4.616  0.1332  0.2381 -0.5737
10759TIP3   OH253767   1.941   4.108  15.218  0.0636 -0.1268  0.7962
10759TIP3    H153768   1.864   4.094  15.163 -0.1604 -0.8101  1.2684
10759TIP3    H253769   2.014   4.116  15.157 -0.7097  3.5312  0.1108
10760TIP3   OH253770   1.954   3.683   0.405  0.6010 -0.5278  0.0954
10760TIP3    H153771   1.977   3.693   0.498 -1.1970 -1.0960  0.6384
10760TIP3    H253772   1.898   3.605   0.403 -2.3651  1.4836 -0.8761
10761TIP3   OH253773   2.117   3.910   3.435 -0.3381 -0.1192  0.1475
10761TIP3    H153774   2.108   3.930   3.528  0.7146 -1.3081  0.5248
10761TIP3    H253775   2.115   3.815   3.430  2.2155 -0.2003 -0.7151
10762TIP3   OH253776   2.332   4.307   0.008 -0.1546 -0.3047 -0.1331
10762TIP3    H153777   2.421   4.305   0.045 -0.9948 -2.4501  2.0241
10762TIP3    H253778   2.300   4.395   0.027  1.2124  0.2297 -0.2016
10763TIP3   OH253779   5.166   5.261   1.658 -0.6644  0.5715 -0.4274
10763TIP3    H153780   5.084   5.237   1.614  0.2348 -0.0151 -1.8526
10763TIP3    H253781   5.143   5.338   1.710 -2.0193  0.7122 -1.1751
10764TIP3   OH253782   1.192   3.778  12.557  0.8915 -0.0201 -0.2524
10764TIP3    H153783   1.224   3.868  12.554  0.1260  0.2723  0.2279
10764TIP3    H253784   1.149   3.765  12.472  1.4313 -0.1070 -0.5203
10765TIP3   OH253785   3.005   3.117   4.006 -0.4842 -0.6662 -0.1162
10765TIP3    H153786   3.009   3.211   4.023 -0.6614 -0.5852 -0.5065
10765TIP3    H253787   3.005   3.077   4.093  2.2115 -0.4366  0.0643
10766TIP3   OH253788   5.401   3.177   4.015  0.0356 -0.2728  0.2224
10766TIP3    H153789   5.352   3.096   4.003  0.6680 -0.7182  0.6241
10766TIP3    H253790   5.358   3.239   3.956  1.2205 -1.6132 -2.1975
10767TIP3   OH253791   5.932   5.928  11.992 -0.2525  0.3590 -0.1810
10767TIP3    H153792   5.892   5.913  12.078 -0.1178  1.4572  0.0837
10767TIP3    H253793   5.858   5.922  11.931 -0.4277  0.0346  0.0567
10768TIP3   OH253794   4.406   5.868   3.338 -0.0871 -0.0241  0.1170
10768TIP3    H153795   4.376   5.846   3.427 -1.1307  1.0847  0.0629
10768TIP3    H253796   4.443   5.956   3.347 -0.7201  0.3295 -0.6442
10769TIP3   OH253797   0.897   0.243  11.221  0.2994 -0.3820  0.2897
10769TIP3    H153798   0.987   0.264  11.247 -0.3572  1.5766  1.2136
10769TIP3    H253799   0.846   0.317  11.253 -1.4900 -0.8926 -1.2380
10770TIP3   OH253800   6.472   5.466   3.739 -0.3112 -0.2127 -0.5123
10770TIP3    H153801   6.442   5.435   3.654  1.0139 -3.0984 -0.0254
10770TIP3    H253802   6.450   5.396   3.800 -0.1130  1.2407  1.3429
10771TIP3   OH253803   2.491   2.678   0.019  0.3824  0.3967  0.1534
10771TIP3    H153804   2.478   2.664   0.113 -0.3805  1.6445  0.2547
10771TIP3    H253805   2.564   2.739   0.015 -0.2387  1.1475 -0.0026
10772TIP3   OH253806   3.282   1.403  12.885  0.4351  0.6410  0.3518
10772TIP3    H153807   3.239   1.318  12.884 -1.1448  1.3850  1.2555
10772TIP3    H253808   3.217   1.462  12.924  2.6262  1.6344  2.7823
10773TIP3   OH253809   4.272   1.483  11.248 -0.0813 -0.0890 -0.3752
10773TIP3    H153810   4.361   1.454  11.228  0.1322 -0.6425  1.2184
10773TIP3    H253811   4.275   1.578  11.237  0.4163 -0.2027 -1.3198
10774TIP3   OH253812   0.256   3.230  14.526 -0.6030 -0.0464  0.3232
10774TIP3    H153813   0.328   3.177  14.560  0.8427  1.7720  0.2356
10774TIP3    H253814   0.231   3.287  14.598 -0.2041  1.0899 -0.4054
10775TIP3   OH253815   5.884   3.447   5.604 -0.0583 -0.7699  0.3273
10775TIP3    H153816   5.903   3.405   5.687  1.7313  1.4523  1.1612
10775TIP3    H253817   5.945   3.408   5.542 -0.2183 -1.2297  0.4585
10776TIP3   OH253818   3.023   2.204   4.129 -0.1974 -0.0443  0.2442
10776TIP3    H153819   3.044   2.111   4.120 -1.0995 -0.2410  0.0986
10776TIP3    H253820   3.007   2.216   4.222  1.0647  0.2312  0.4484
10777TIP3   OH253821   2.522   0.813   4.406  0.1569  0.1652 -0.0420
10777TIP3    H153822   2.590   0.770   4.354 -0.1180 -0.9389  0.4665
10777TIP3    H253823   2.507   0.896   4.362  1.7466  0.3839 -0.2346
10778TIP3   OH253824   4.397   3.446   4.158 -0.1350  0.1557 -0.2265
10778TIP3    H153825   4.399   3.524   4.102  1.6752  0.6793  0.4858
10778TIP3    H253826   4.327   3.462   4.221  0.2790  1.2687 -0.0361
10779TIP3   OH253827   2.322   5.162   5.191  0.0797 -0.3916 -0.3886
10779TIP3    H153828   2.296   5.240   5.240  0.6982 -2.0876  2.8839
10779TIP3    H253829   2.412   5.181   5.162 -0.7138  1.1053 -2.0406
10780TIP3   OH253830   3.299   6.668   3.806 -0.3194 -0.2543  0.2087
10780TIP3    H153831   3.229   6.633   3.861 -2.4100 -1.6580 -3.0274
10780TIP3    H253832   3.289   6.763   3.811 -2.1655 -0.4217  0.2479
10781TIP3   OH253833   6.200   3.077  11.412  0.0658  0.1860  0.1992
10781TIP3    H153834   6.229   2.994  11.452 -0.8803  0.0299  0.5676
10781TIP3    H253835   6.221   3.066  11.319  0.0232 -0.4423  0.2558
10782TIP3   OH253836   3.009   1.492  15.380  0.0787  0.1841  0.2513
10782TIP3    H153837   3.025   1.441  15.459 -0.5596  2.7865  2.2078
10782TIP3    H253838   2.915   1.512  15.383  0.0430  0.3185 -1.1765
10783TIP3   OH253839   5.134   6.065  15.178  0.1157 -0.5541 -0.8637
10783TIP3    H153840   5.123   6.034  15.088 -0.7836 -0.8163 -0.6697
10783TIP3    H253841   5.220   6.031  15.204  0.3403 -0.5584 -1.5834
10784TIP3   OH253842   4.827   3.154  11.013  0.0118 -0.0588  0.3399
10784TIP3    H153843   4.909   3.138  10.965 -0.4233  2.2401 -1.3533
10784TIP3    H253844   4.759   3.118  10.956 -0.2328 -2.4306  1.9789
10785TIP3   OH253845   3.157   6.177   0.299 -0.4025 -0.0434 -0.1954
10785TIP3    H153846   3.194   6.174   0.211  1.7452 -3.4284  0.6205
10785TIP3    H253847   3.196   6.254   0.339  1.2710 -0.3396 -1.1799
10786TIP3   OH253848   5.449   4.510   5.488  0.3228 -0.2209  0.1635
10786TIP3    H153849   5.476   4.589   5.439  1.3816 -1.1105 -0.7389
10786TIP3    H253850   5.355   4.503   5.471  0.5609 -0.2004 -1.3435
10787TIP3   OH253851   6.838   3.966   2.946 -0.1681 -0.0935 -0.0248
10787TIP3    H153852   6.888   3.901   2.995  0.5775  0.8317  0.4845
10787TIP3    H253853   6.904   4.023   2.907 -0.7728 -0.4287 -1.6064
10788TIP3   OH253854   3.817   5.604  13.427  0.0030  0.7962  0.2947
10788TIP3    H153855   3.745   5.667  13.418  1.1286  2.2222  0.9708
10788TIP3    H253856   3.889   5.644  13.379  0.1270 -1.0573 -1.1897
10789TIP3   OH253857   4.185   6.805  11.858 -0.1422 -0.2972 -0.0890
10789TIP3    H153858   4.221   6.794  11.946  2.5489  3.1070 -0.5839
10789TIP3    H253859   4.224   6.733  11.808 -0.5685 -1.4284  1.1320
10790TIP3   OH253860   6.032   6.466   2.513  0.5188 -0.6093  0.0335
10790TIP3    H153861   6.026   6.560   2.528 -0.0628 -0.3389 -1.6347
10790TIP3    H253862   6.061   6.429   2.596 -1.9175  0.7182  1.5946
10791TIP3   OH253863   1.582   6.735   4.648 -0.2298 -0.1524 -0.0292
10791TIP3    H153864   1.534   6.817   4.661 -1.8824 -1.3151  1.8054
10791TIP3    H253865   1.606   6.708   4.737  1.1309 -1.1920 -0.6844
10792TIP3   OH253866   0.107   6.564  12.935 -0.2299 -0.3350  0.5775
10792TIP3    H153867   0.028   6.610  12.908 -0.2801 -1.1632 -0.7916
10792TIP3    H253868   0.176   6.630  12.928 -0.3904 -0.2923 -0.8170
10793TIP3   OH253869   4.451   0.627  12.365 -0.6098 -0.6213 -0.0539
10793TIP3    H153870   4.373   0.683  12.368  0.3168  0.7643 -0.4213
10793TIP3    H253871   4.449   0.587  12.278 -1.6109 -1.6803  0.4412
10794TIP3   OH253872   6.337   5.250   3.088 -0.2625 -0.2794 -0.5806
10794TIP3    H153873   6.243   5.266   3.078 -0.5080 -0.1688  1.5372
10794TIP3    H253874   6.379   5.327   3.048 -1.1311  0.4315 -0.1619
10795TIP3   OH253875   0.415   1.686   1.293  0.7047  0.0578 -0.5358
10795TIP3    H153876   0.511   1.694   1.290  0.9194 -1.9671 -2.8948
10795TIP3    H253877   0.388   1.690   1.201 -1.0271 -2.9786 -0.2896
10796TIP3   OH253878   3.993   4.195   5.568 -0.1700 -0.3700 -0.4347
10796TIP3    H153879   3.905   4.232   5.569  0.3000  0.8052 -0.8702
10796TIP3    H253880   3.998   4.140   5.646 -1.1354 -0.0751 -0.1605
10797TIP3   OH253881   5.232   2.549   1.418 -0.2351  0.0877  0.4057
10797TIP3    H153882   5.227   2.640   1.447 -0.3913  0.1233  0.2715
10797TIP3    H253883   5.314   2.544   1.369 -1.2860  0.7312 -1.5074
10798TIP3   OH253884   4.569   1.931  14.064 -0.5994  0.4187 -0.0182
10798TIP3    H153885   4.627   1.950  13.991  0.8113  1.9723  1.4163
10798TIP3    H253886   4.511   2.007  14.071 -3.1200 -1.1982 -1.5697
10799TIP3   OH253887   5.016   4.857   4.334  0.4464  0.4199 -0.3498
10799TIP3    H153888   5.088   4.840   4.273 -0.4203 -0.7388 -1.0791
10799TIP3    H253889   4.940   4.816   4.294  0.0002 -1.1256  1.8932
10800TIP3   OH253890   2.912   1.525  13.522 -0.2390 -0.1518 -0.1989
10800TIP3    H153891   2.884   1.516  13.613 -0.4900 -1.1494 -0.3600
10800TIP3    H253892   2.995   1.476  13.517 -0.8603 -1.2009 -0.7714
10801TIP3   OH253893   4.728   3.774   1.632 -0.0836 -0.5281  0.3826
10801TIP3    H153894   4.664   3.754   1.564  2.1293  0.0651 -2.0092
10801TIP3    H253895   4.722   3.869   1.644 -0.9330 -0.7006  1.6143
10802TIP3   OH253896   0.406   2.472  13.879 -0.4215 -0.1503 -0.3973
10802TIP3    H153897   0.455   2.528  13.819  1.1089 -0.4744  0.4798
10802TIP3    H253898   0.464   2.396  13.893 -1.5798 -0.9942 -0.0211
10803TIP3   OH253899   3.055   3.590  13.341 -0.6671  0.3637 -0.1125
10803TIP3    H153900   3.144   3.617  13.318 -0.9444  3.3193  1.6879
10803TIP3    H253901   2.999   3.649  13.291 -1.6253 -0.7668 -0.4208
10804TIP3   OH253902   3.995   5.767   0.299 -0.1247  0.1557  0.4327
10804TIP3    H153903   3.934   5.833   0.266 -0.5036  0.3377  1.4531
10804TIP3    H253904   4.058   5.817   0.352  0.1479 -0.1880  0.4350
10805TIP3   OH253905   2.835   6.421  11.646 -0.1558 -0.4136  0.1852
10805TIP3    H153906   2.878   6.370  11.578  0.9647 -0.0372  0.5887
10805TIP3    H253907   2.799   6.497  11.601 -2.4846 -1.8455 -0.5518
10806TIP3   OH253908   1.351   1.914  14.302 -0.1390 -0.0894 -0.4247
10806TIP3    H153909   1.444   1.896  14.316 -0.3353 -2.2351 -1.4761
10806TIP3    H253910   1.346   2.009  14.290  1.8918  0.0661 -0.3125
10807TIP3   OH253911   1.258   0.907  10.997 -0.0408  0.0334  0.5179
10807TIP3    H153912   1.264   0.998  10.966  1.2549 -0.0728  0.3798
10807TIP3    H253913   1.220   0.913  11.084 -0.4122  0.6674  0.3159
10808TIP3   OH253914   0.802   4.940  14.589  0.2256  0.5003  0.1451
10808TIP3    H153915   0.765   4.950  14.676  1.1032  0.9787  0.4728
10808TIP3    H253916   0.756   5.004  14.535 -2.3274 -1.6298 -0.4570
10809TIP3   OH253917   2.946   4.423   0.897  0.2096  0.3161  0.6778
10809TIP3    H153918   2.855   4.424   0.927  0.9785  1.0853  3.3338
10809TIP3    H253919   2.951   4.348   0.838 -2.3384  0.8385 -0.3262
10810TIP3   OH253920   3.688   6.798  12.715 -0.8175  0.0877 -0.1298
10810TIP3    H153921   3.600   6.790  12.754 -1.2623  2.0536 -0.6029
10810TIP3    H253922   3.689   6.886  12.676  1.1268 -0.1652 -0.7644
10811TIP3   OH253923   1.672   1.371  15.233 -0.0733 -0.5490 -0.6274
10811TIP3    H153924   1.638   1.282  15.243 -1.4093 -0.1782 -1.6487
10811TIP3    H253925   1.694   1.378  15.140  1.7942 -0.3858 -0.2287
10812TIP3   OH253926   1.966   4.967   4.398  0.1950  0.1652 -0.1170
10812TIP3    H153927   1.996   4.924   4.318 -1.9265 -0.4585 -0.6498
10812TIP3    H253928   1.973   4.899   4.466  4.1904  1.3377  0.8911
10813TIP3   OH253929   4.052   5.754   2.609 -0.1678  0.0530 -0.8648
10813TIP3    H153930   4.037   5.800   2.691  0.6543  0.2936 -0.8508
10813TIP3    H253931   4.057   5.662   2.634 -1.8641 -0.0820 -0.8994
10814TIP3   OH253932   1.155   5.085  12.229  0.1960 -0.2390  0.5345
10814TIP3    H153933   1.059   5.093  12.231 -0.1758 -2.6282 -1.7578
10814TIP3    H253934   1.178   5.097  12.137  1.8123 -1.9168  0.6711
10815TIP3   OH253935   1.680   0.235   2.983  0.2015  0.1332  0.3916
10815TIP3    H153936   1.766   0.265   3.012  1.4370 -1.9362 -0.8379
10815TIP3    H253937   1.638   0.202   3.063  1.1438 -0.1278  0.7986
10816TIP3   OH253938   1.665   5.126  13.826 -0.2018  0.4035  0.3688
10816TIP3    H153939   1.681   5.080  13.908 -1.4235  0.9594  0.9421
10816TIP3    H253940   1.570   5.138  13.823 -0.7527 -2.8546 -2.8734
10817TIP3   OH253941   3.709   3.025   5.902 -0.3182 -0.3682  0.0433
10817TIP3    H153942   3.701   2.988   5.814  0.4568 -3.0081  0.9773
10817TIP3    H253943   3.786   3.081   5.898 -0.0731 -0.7531 -0.8845
10818TIP3   OH253944   6.092   5.305  11.866 -0.0782 -0.1738 -0.2545
10818TIP3    H153945   6.109   5.214  11.891 -0.0966 -0.6557 -1.8974
10818TIP3    H253946   6.178   5.339  11.841 -0.3271 -0.2740 -1.2742
10819TIP3   OH253947   1.365   2.599  11.025  0.2087 -0.4763  0.0099
10819TIP3    H153948   1.379   2.519  10.975  1.8065  1.0513 -2.2005
10819TIP3    H253949   1.444   2.608  11.078 -0.2582 -0.6822  0.7506
10820TIP3   OH253950   6.339   5.985  12.075  0.5497 -0.2009 -0.0196
10820TIP3    H153951   6.375   6.064  12.034 -0.4546  0.4878  0.4025
10820TIP3    H253952   6.320   5.926  12.001  0.6213  0.2334 -0.3895
10821TIP3   OH253953   0.310   2.704   4.395  0.4917 -0.1718  0.0140
10821TIP3    H153954   0.393   2.725   4.352  0.3808 -0.4108 -0.3132
10821TIP3    H253955   0.328   2.623   4.444 -0.1177 -1.4213 -1.7402
10822TIP3   OH253956   2.020   2.100  13.493 -0.1018 -0.2388  0.2394
10822TIP3    H153957   1.964   2.067  13.423  1.4101  1.6414 -1.9978
10822TIP3    H253958   2.102   2.122  13.450  0.3136  2.6692  2.2189
10823TIP3   OH253959   4.954   1.322  12.433  0.3599  0.8431 -0.1639
10823TIP3    H153960   4.984   1.351  12.519  0.3975  1.7814 -0.4847
10823TIP3    H253961   5.031   1.330  12.377  0.9903 -1.8896  0.1572
10824TIP3   OH253962   6.798   3.113  15.152  0.1438 -0.6573 -0.0108
10824TIP3    H153963   6.740   3.184  15.178  1.2970  1.1379 -1.9981
10824TIP3    H253964   6.882   3.156  15.132  1.0214 -2.6263 -0.8428
10825TIP3   OH253965   5.396   6.690  13.269 -0.2989  0.2223  0.1076
10825TIP3    H153966   5.336   6.638  13.324  0.4729 -0.1980  0.5822
10825TIP3    H253967   5.383   6.656  13.181  1.8587 -2.5116  0.7076
10826TIP3   OH253968   2.562   1.536   0.528 -0.1337 -0.4350 -0.2904
10826TIP3    H153969   2.607   1.455   0.503 -0.3116 -0.2570 -1.2151
10826TIP3    H253970   2.631   1.595   0.557 -0.1323 -1.4857  2.1247
10827TIP3   OH253971   3.849   1.037  10.861 -0.4518 -0.1264  0.4082
10827TIP3    H153972   3.875   1.012  10.950 -0.7063 -1.1681  0.2102
10827TIP3    H253973   3.897   1.117  10.843 -0.3215  0.0455  1.4515
10828TIP3   OH253974   4.020   1.260  16.402 -0.0631 -0.1228  0.0776
10828TIP3    H153975   3.990   1.225  16.487  0.8544  0.1588  0.5350
10828TIP3    H253976   4.115   1.259  16.409  0.0610  3.3337  0.4977
10829TIP3   OH253977   6.011   4.255   1.010  0.1529 -0.3380 -0.6207
10829TIP3    H153978   5.998   4.346   0.981 -1.4427 -0.5565 -0.7131
10829TIP3    H253979   5.969   4.202   0.941  0.9453 -1.1421 -0.4958
10830TIP3   OH253980   4.735   1.013   4.969 -0.5290 -0.7502 -0.3211
10830TIP3    H153981   4.646   1.012   4.934 -1.0263  0.4166  0.8365
10830TIP3    H253982   4.746   1.101   5.004  1.2796 -0.7245 -0.9017
10831TIP3   OH253983   6.657   6.014  13.069 -0.4511 -0.2581 -0.0779
10831TIP3    H153984   6.698   6.024  13.155 -0.3729 -2.1103  0.1497
10831TIP3    H253985   6.708   6.070  13.011  0.6956 -0.4431  0.7277
10832TIP3   OH253986   0.731   5.445   1.435 -0.3330  0.2244 -0.2441
10832TIP3    H153987   0.670   5.435   1.508 -2.1233  1.5176 -1.4500
10832TIP3    H253988   0.783   5.522   1.457 -0.8992  0.6384 -0.3245
10833TIP3   OH253989   2.053   1.814  10.553  0.0006 -0.3651  0.0142
10833TIP3    H153990   2.008   1.839  10.472  1.5900  2.9030 -0.0107
10833TIP3    H253991   2.009   1.865  10.622 -0.2500 -1.8373  0.9895
10834TIP3   OH253992   2.542   6.571  14.668  0.2125  0.3055  0.8638
10834TIP3    H153993   2.547   6.526  14.753 -1.2171 -0.7107  0.4506
10834TIP3    H253994   2.495   6.509  14.612  0.1973  1.4122 -0.3738
10835TIP3   OH253995   5.791   3.483  11.946  0.2180 -0.2393  0.4087
10835TIP3    H153996   5.811   3.472  11.853  1.3097  0.8156  0.4924
10835TIP3    H253997   5.870   3.453  11.991 -0.6778 -1.6923  1.0557
10836TIP3   OH253998   3.167   3.803  16.015 -0.7192  0.1185 -0.7403
10836TIP3    H153999   3.172   3.868  16.085 -2.0774 -0.7398  0.1916
10836TIP3    H254000   3.111   3.844  15.949 -0.8709  0.2274 -0.5449
10837TIP3   OH254001   6.412   0.758   6.180 -0.3380 -0.9153  0.4464
10837TIP3    H154002   6.428   0.735   6.271 -1.4954  0.2115  0.9483
10837TIP3    H254003   6.413   0.673   6.134 -1.2379 -1.6638  1.7396
10838TIP3   OH254004   1.900   1.925  11.116  0.2144 -0.2828  0.3528
10838TIP3    H154005   1.832   1.961  11.059 -0.5032  0.0773  1.3991
10838TIP3    H254006   1.980   1.972  11.092  0.2711 -1.1979 -1.3729
10839TIP3   OH254007   6.636   4.104  11.701 -0.1770  0.3958 -0.5978
10839TIP3    H154008   6.580   4.027  11.695 -0.4558  0.4155  1.1736
10839TIP3    H254009   6.576   4.178  11.709  0.0917  0.7989 -2.1149
10840TIP3   OH254010   1.883   5.527  15.139  0.1984 -0.4283 -0.3394
10840TIP3    H154011   1.848   5.438  15.139  0.5661 -0.5749 -0.9634
10840TIP3    H254012   1.846   5.568  15.061 -0.6969  0.2721  0.4193
10841TIP3   OH254013   1.224   3.777  15.776 -0.1056  0.0512  0.6752
10841TIP3    H154014   1.168   3.848  15.742 -0.1648 -0.6790 -0.8487
10841TIP3    H254015   1.165   3.702  15.783  0.0296  0.0526  1.9712
10842TIP3   OH254016   6.622   1.256  11.066 -0.0612 -0.1960 -0.0530
10842TIP3    H154017   6.558   1.245  11.136 -2.6593 -1.7282 -2.4865
10842TIP3    H254018   6.621   1.173  11.018  0.0850  1.3848 -3.0585
10843TIP3   OH254019   5.819   6.771  13.442 -0.2275  0.6902  0.5993
10843TIP3    H154020   5.818   6.859  13.406  2.2854 -0.0555 -1.7002
10843TIP3    H254021   5.765   6.719  13.382  1.2379  0.0601 -0.2350
10844TIP3   OH254022   0.785   2.131  11.290 -0.2109 -0.1463 -0.2090
10844TIP3    H154023   0.853   2.083  11.337  0.5691  0.8249 -0.3033
10844TIP3    H254024   0.830   2.165  11.212 -1.0795 -0.3884 -0.8211
10845TIP3   OH254025   2.617   1.253   1.871  0.3686  0.2381  0.4877
10845TIP3    H154026   2.705   1.277   1.842  0.7833 -1.4434  0.2210
10845TIP3    H254027   2.589   1.186   1.808 -0.0141 -1.1765  2.1001
10846TIP3   OH254028   2.039   1.428   5.780  0.0581 -0.1129 -0.0254
10846TIP3    H154029   2.013   1.339   5.803  0.8954 -0.3051  0.1984
10846TIP3    H254030   1.986   1.448   5.703  0.9266 -1.3759 -1.0009
10847TIP3   OH254031   6.431   1.472  15.374 -0.7101 -0.5155 -0.3068
10847TIP3    H154032   6.511   1.440  15.333 -1.1022 -1.4983 -0.3186
10847TIP3    H254033   6.427   1.426  15.458 -0.8960  0.0665  0.0097
10848TIP3   OH254034   6.386   1.820   2.099  0.5455  0.4941 -0.2454
10848TIP3    H154035   6.366   1.777   2.015 -1.9656  1.6268 -0.3145
10848TIP3    H254036   6.472   1.785   2.123  0.1500 -1.9631 -1.9218
10849TIP3   OH254037   3.021   1.670   0.414 -0.1034 -0.6260  0.1448
10849TIP3    H154038   3.064   1.675   0.328  0.5401 -1.2194  0.4236
10849TIP3    H254039   3.049   1.749   0.459 -2.3522  0.9649 -1.0160
10850TIP3   OH254040   0.550   6.787  13.882 -0.6333 -0.3216  0.2576
10850TIP3    H154041   0.619   6.769  13.817 -0.1954  1.2192  0.2565
10850TIP3    H254042   0.478   6.823  13.830 -0.2774  0.9288  0.5960
10851TIP3   OH254043   5.393   5.711   0.632  0.1926  0.4835 -0.4866
10851TIP3    H154044   5.458   5.643   0.650 -1.3285 -1.0285 -0.4456
10851TIP3    H254045   5.445   5.791   0.620  1.9913 -0.5137  0.2038
10852TIP3   OH254046   6.343   0.831  15.123 -0.2534  0.1168 -0.4816
10852TIP3    H154047   6.307   0.915  15.094  0.2216  0.3771 -0.3225
10852TIP3    H254048   6.347   0.779  15.043 -0.3362  0.3216 -0.6210
10853TIP3   OH254049   5.047   0.233   2.233 -0.0864  0.3689 -0.1518
10853TIP3    H154050   5.070   0.249   2.141 -1.8561  1.0336 -0.5169
10853TIP3    H254051   4.962   0.275   2.244 -0.0222  0.0793  1.7422
10854TIP3   OH254052   3.184   4.060   3.008  0.2984  0.1628 -0.6081
10854TIP3    H154053   3.160   4.081   2.917  1.1422 -1.1851 -1.1828
10854TIP3    H254054   3.278   4.044   3.004  0.4974  0.8798  0.6858
10855TIP3   OH254055   3.759   6.820   3.924 -0.0878 -0.3307 -0.0480
10855TIP3    H154056   3.791   6.807   4.013 -1.8106 -0.1793  0.6305
10855TIP3    H254057   3.693   6.889   3.932 -0.7823 -0.8151 -1.3168
10856TIP3   OH254058   5.501   2.221   0.801 -0.4631 -0.1134 -0.3166
10856TIP3    H154059   5.469   2.132   0.787 -0.4744 -0.1797  0.1293
10856TIP3    H254060   5.533   2.248   0.715 -0.7936 -0.4121 -0.5382
10857TIP3   OH254061   2.493   2.989  11.118 -0.8156  0.4416 -0.7762
10857TIP3    H154062   2.452   2.927  11.179 -0.5051 -0.3966 -1.4060
10857TIP3    H254063   2.488   2.946  11.033 -0.0853  1.0441 -1.1355
10858TIP3   OH254064   3.871   0.702  14.337  0.1918 -0.1682 -0.2221
10858TIP3    H154065   3.833   0.643  14.272  0.0919 -0.1165 -0.2113
10858TIP3    H254066   3.804   0.769  14.351  1.2385  1.4003 -2.1061
10859TIP3   OH254067   0.434   3.972  14.694  0.2087  0.1423  0.2055
10859TIP3    H154068   0.387   4.047  14.729  1.6581  0.7295  0.9688
10859TIP3    H254069   0.444   3.913  14.769 -2.1950 -1.5359 -0.7039
10860TIP3   OH254070   4.686   1.755   4.634  0.2034 -0.0919  0.0327
10860TIP3    H154071   4.744   1.681   4.616 -1.0321 -1.2196  0.5266
10860TIP3    H254072   4.600   1.725   4.606 -0.4440  0.9045  0.8982
10861TIP3   OH254073   5.736   1.309   5.679  0.5881  0.9376 -0.1210
10861TIP3    H154074   5.762   1.289   5.589  1.8156  3.1446 -0.3394
10861TIP3    H254075   5.778   1.241   5.732  2.0262  1.0868 -1.0137
10862TIP3   OH254076   0.707   3.209   4.168 -0.1415 -0.0859 -0.2280
10862TIP3    H154077   0.726   3.208   4.262 -0.3988  0.9226 -0.1558
10862TIP3    H254078   0.626   3.259   4.160 -0.3950 -0.5936 -0.9476
10863TIP3   OH254079   0.793   2.916  12.019 -0.0536 -0.4404  0.7232
10863TIP3    H154080   0.704   2.894  12.046  0.2626 -0.4031  1.8304
10863TIP3    H254081   0.781   2.971  11.941 -0.9169 -2.3046 -0.5232
10864TIP3   OH254082   2.693   5.286   3.363  0.5459  0.0119  0.2409
10864TIP3    H154083   2.621   5.233   3.397  0.6420  0.0658  0.5380
10864TIP3    H254084   2.669   5.306   3.273 -0.8957  1.9166  0.9732
10865TIP3   OH254085   1.119   2.665   1.096 -0.4680 -0.2911  0.4189
10865TIP3    H154086   1.045   2.724   1.082 -0.1629  0.4542  1.7846
10865TIP3    H254087   1.143   2.678   1.188  2.3352  0.6664 -0.3498
10866TIP3   OH254088   2.468   6.772  11.119 -0.2310 -0.2443 -0.4354
10866TIP3    H154089   2.508   6.706  11.063  0.4892 -0.5842  0.4472
10866TIP3    H254090   2.511   6.760  11.204 -0.9338  0.5842  0.0520
10867TIP3   OH254091   4.632   5.937  15.865 -0.7202 -0.1473  0.3922
10867TIP3    H154092   4.626   6.030  15.887  1.4143  0.3506 -0.7719
10867TIP3    H254093   4.673   5.897  15.941 -2.6987 -0.3992  1.3735
10868TIP3   OH254094   2.803   4.806  11.510  0.4337  0.1762  0.0421
10868TIP3    H154095   2.847   4.867  11.569  0.8068 -1.0310  1.0680
10868TIP3    H254096   2.794   4.726  11.561 -0.2036 -0.5780 -1.1994
10869TIP3   OH254097   6.694   0.034  12.024  0.0153  0.3751  0.7697
10869TIP3    H154098   6.723  -0.003  11.941  1.3290  0.6268  1.0957
10869TIP3    H254099   6.637  -0.033  12.061  0.5987 -0.3851  0.3293
10870TIP3   OH254100   3.677   0.902  14.369 -0.3714 -0.5290  0.3778
10870TIP3    H154101   3.684   0.914  14.274  0.7992 -0.9690  0.3935
10870TIP3    H254102   3.630   0.980  14.399 -0.6487 -0.3258 -0.5459
10871TIP3   OH254103   5.358   4.539   1.144 -0.0906 -0.2186 -0.0926
10871TIP3    H154104   5.279   4.527   1.090  0.0718  0.0226 -0.3831
10871TIP3    H254105   5.390   4.625   1.121  0.9804 -0.8178 -0.9334
10872TIP3   OH254106   0.802   0.245   0.039  0.1759  0.1374 -0.3261
10872TIP3    H154107   0.779   0.161  -0.001  0.1256 -0.6729  1.3379
10872TIP3    H254108   0.720   0.275   0.079  0.4654  0.4231  0.0495
10873TIP3   OH254109   1.849   5.060  13.630  0.1114 -0.4530 -0.6758
10873TIP3    H154110   1.788   5.094  13.564  1.3978  2.6302 -0.4221
10873TIP3    H254111   1.801   5.068  13.712 -0.2060 -0.9714 -0.7996
10874TIP3   OH254112   5.823   5.164   4.946 -0.2070 -0.1140 -0.1338
10874TIP3    H154113   5.784   5.101   4.886 -2.0741  0.4635  0.3923
10874TIP3    H254114   5.816   5.249   4.902 -1.5230  0.3033  0.8095
10875TIP3   OH254115   1.190   1.122   4.963  0.1107  0.0703 -0.1712
10875TIP3    H154116   1.159   1.051   5.020 -1.7048  0.6899 -0.3144
10875TIP3    H254117   1.284   1.128   4.981 -0.4140  0.3960  2.9400
10876TIP3   OH254118   3.566   0.991  12.709  0.0630 -0.3832 -0.0055
10876TIP3    H154119   3.656   0.959  12.703 -0.3179 -1.4044 -0.4128
10876TIP3    H254120   3.539   1.001  12.618 -0.4505 -0.6965  0.1109
10877TIP3   OH254121   5.736   5.512  13.126 -0.0201 -0.3701  0.0812
10877TIP3    H154122   5.817   5.549  13.162 -0.0215  0.2123 -0.4873
10877TIP3    H254123   5.673   5.518  13.198 -0.1758  1.2720 -0.1599
10878TIP3   OH254124   1.466   3.024   2.625  0.3297 -0.3220 -0.9357
10878TIP3    H154125   1.467   3.002   2.532  0.6514  0.7383 -1.1966
10878TIP3    H254126   1.553   3.060   2.642  0.0024  0.2362 -0.4113
10879TIP3   OH254127   4.047   2.298  15.454  0.5841 -0.2285  0.4013
10879TIP3    H154128   4.065   2.223  15.397  2.5965  1.1921 -0.9242
10879TIP3    H254129   3.954   2.318  15.438  0.5378 -1.2183 -0.7043
10880TIP3   OH254130   4.107   2.158   4.757  0.2718  0.0214 -0.1800
10880TIP3    H154131   4.103   2.074   4.802 -0.9029 -0.2419 -0.7425
10880TIP3    H254132   4.134   2.136   4.668 -2.0159 -0.0527 -0.9245
10881TIP3   OH254133   1.774   4.482   5.900 -0.0471 -0.2024  0.5958
10881TIP3    H154134   1.686   4.509   5.924  0.3745  1.1148  0.8047
10881TIP3    H254135   1.763   4.405   5.845 -1.3533  0.1849  0.2879
10882TIP3   OH254136   2.727   5.033   3.664 -0.4306  0.2123 -1.4122
10882TIP3    H154137   2.791   5.025   3.592 -1.8083 -1.1007 -2.5648
10882TIP3    H254138   2.760   4.973   3.731  1.8308  2.7410 -0.0769
10883TIP3   OH254139   2.979   6.518  14.224  0.0379  0.1955 -0.4181
10883TIP3    H154140   3.034   6.550  14.295 -0.2759  1.9743 -0.9502
10883TIP3    H254141   3.003   6.425  14.216  0.8700  0.2292  1.2534
10884TIP3   OH254142   5.265   4.841  12.191  0.1207  0.1883 -0.0259
10884TIP3    H154143   5.226   4.847  12.278 -0.1480  2.0415 -0.2552
10884TIP3    H254144   5.193   4.858  12.131  0.0672 -2.1002 -0.7160
10885TIP3   OH254145   3.009   2.970   4.716 -0.8834 -0.2281 -0.3228
10885TIP3    H154146   3.073   2.930   4.658 -0.0224  0.6041  0.0108
10885TIP3    H254147   3.057   2.984   4.798 -0.4832  3.1565 -0.9619
10886TIP3   OH254148   1.380   3.853   5.526 -0.8501 -0.4456 -0.2927
10886TIP3    H154149   1.449   3.884   5.584 -1.4402 -1.6874  1.1256
10886TIP3    H254150   1.417   3.862   5.438  1.0331 -0.8507  0.4096
10887TIP3   OH254151   2.294   1.111  15.789  0.1590  0.3008 -0.4750
10887TIP3    H154152   2.253   1.066  15.862  3.8162 -1.8895  0.4782
10887TIP3    H254153   2.270   1.060  15.712  1.9993 -1.7686  0.2393
10888TIP3   OH254154   4.377   5.438   0.692  0.4735  0.0411  0.0888
10888TIP3    H154155   4.331   5.516   0.725 -0.6785  0.0627 -1.4769
10888TIP3    H254156   4.390   5.456   0.599  0.9432 -1.2984 -0.1136
10889TIP3   OH254157   4.725   0.594   1.234  0.3960 -0.0996 -0.2110
10889TIP3    H154158   4.668   0.538   1.287 -0.3570 -0.3000 -1.2143
10889TIP3    H254159   4.776   0.533   1.181  1.5047  0.0811  0.6011
10890TIP3   OH254160   1.287   3.071  11.003  0.2570  0.0549  0.2923
10890TIP3    H154161   1.213   3.074  10.942 -0.1133 -0.1904  0.7271
10890TIP3    H254162   1.332   3.155  10.990 -0.1558  0.2518  0.1005
10891TIP3   OH254163   4.230   3.742  14.472  0.1995  0.0391 -0.6804
10891TIP3    H154164   4.162   3.809  14.469 -0.3640 -0.5427 -0.9885
10891TIP3    H254165   4.311   3.791  14.488 -0.2283  0.7708 -0.7199
10892TIP3   OH254166   3.537   1.192  14.387 -0.0194 -0.0021  0.0583
10892TIP3    H154167   3.444   1.200  14.409  0.0717 -1.5898  1.2619
10892TIP3    H254168   3.575   1.277  14.410 -1.3695  1.1116 -1.6948
10893TIP3   OH254169   0.652   0.354   5.590 -0.2446  0.2412 -0.1144
10893TIP3    H154170   0.737   0.336   5.550  0.4303  0.5576  1.1273
10893TIP3    H254171   0.643   0.449   5.586  0.0307  0.3224  0.8277
10894TIP3   OH254172   4.827   3.698   2.792  0.2019 -0.6762 -0.2151
10894TIP3    H154173   4.778   3.631   2.745  1.4698 -0.7418 -1.5165
10894TIP3    H254174   4.909   3.656   2.816 -0.0616 -0.3647  1.3055
10895TIP3   OH254175   0.361   2.964  13.357 -0.1969  0.1923 -0.0604
10895TIP3    H154176   0.296   2.903  13.394 -0.5296  1.1337  0.9624
10895TIP3    H254177   0.394   3.012  13.433  1.6829 -0.2183 -0.5720
10896TIP3   OH254178   2.499   4.371   1.542 -0.1719  0.2094 -0.0094
10896TIP3    H154179   2.424   4.327   1.502 -0.5966  0.8853  0.0240
10896TIP3    H254180   2.542   4.415   1.468 -1.2309  1.8596  0.2971
10897TIP3   OH254181   0.848   0.802   1.873  0.2424 -0.2707 -0.3708
10897TIP3    H154182   0.782   0.733   1.870  0.3071 -0.3136 -0.8937
10897TIP3    H254183   0.833   0.846   1.957 -0.3106 -0.4149 -0.3928
10898TIP3   OH254184   2.280   1.566  15.022 -0.2693 -0.1456  0.0977
10898TIP3    H154185   2.324   1.482  15.011 -1.0805 -0.6853  0.9388
10898TIP3    H254186   2.188   1.548  15.005 -0.4675  0.5609  0.3935
10899TIP3   OH254187   2.792   1.237  14.399  0.2059 -0.2191  0.0021
10899TIP3    H154188   2.843   1.307  14.357  0.9563 -1.5220 -1.4005
10899TIP3    H254189   2.735   1.204  14.329 -0.7085 -0.4864  0.8546
10900TIP3   OH254190   1.169   1.751   0.444 -0.2030  0.1525  0.8534
10900TIP3    H154191   1.185   1.656   0.440 -1.2121 -0.0893  1.8058
10900TIP3    H254192   1.137   1.765   0.534  0.8183  1.5508  1.0225
10901TIP3   OH254193   4.048   1.122  15.459  0.0584 -0.6999 -0.1212
10901TIP3    H154194   4.117   1.180  15.427 -0.3172 -0.2563 -0.1199
10901TIP3    H254195   3.979   1.180  15.489  0.2067 -1.1230  1.0737
10902TIP3   OH254196   0.139   2.348  14.045 -0.1287  0.0860 -0.0382
10902TIP3    H154197   0.126   2.437  14.013 -1.0457 -0.6130 -1.7602
10902TIP3    H254198   0.224   2.350  14.089  0.2576  1.6115 -0.7922
10903TIP3   OH254199   1.162   1.811   3.114 -0.4271  0.2756 -0.4094
10903TIP3    H154200   1.080   1.770   3.137 -0.5752 -0.1332 -1.6159
10903TIP3    H254201   1.208   1.747   3.060  1.6245 -0.3616  1.8726
10904TIP3   OH254202   3.784   4.424  16.749  0.0757  0.2892  0.1410
10904TIP3    H154203   3.769   4.502  16.696  1.0356 -0.6582 -1.6226
10904TIP3    H254204   3.834   4.366  16.692 -1.2708 -1.9455  1.1248
10905TIP3   OH254205   6.660   3.725  12.857 -0.6675  0.3581  0.6214
10905TIP3    H154206   6.720   3.658  12.824 -0.5400  0.2854  0.9979
10905TIP3    H254207   6.618   3.760  12.778  1.8361  2.3558  0.0528
10906TIP3   OH254208   6.668   6.301  12.494 -0.2154  0.0599 -0.0682
10906TIP3    H154209   6.725   6.371  12.528 -1.2854  1.1805 -0.4865
10906TIP3    H254210   6.725   6.249  12.437  0.5413  0.7895  0.0026
10907TIP3   OH254211   3.949   5.490  16.569 -0.1137  0.0888  0.3333
10907TIP3    H154212   3.984   5.413  16.524  0.5821 -0.2619  1.4179
10907TIP3    H254213   3.873   5.456  16.618 -0.6961  0.4094 -0.3274
10908TIP3   OH254214   2.221   5.421   0.638 -0.6104  0.9830  0.0682
10908TIP3    H154215   2.180   5.505   0.617 -1.0658  0.3744 -1.6498
10908TIP3    H254216   2.153   5.371   0.683  0.1164  2.0118  2.4344
10909TIP3   OH254217   0.876   2.030   2.577  0.3299  0.5911  0.1888
10909TIP3    H154218   0.855   1.944   2.540 -1.1897  0.4635  1.2492
10909TIP3    H254219   0.923   2.010   2.658 -1.5746  0.6234  1.3845
10910TIP3   OH254220   4.694   2.100  13.284  0.2114 -0.1514 -0.1583
10910TIP3    H154221   4.678   2.153  13.205 -1.8334 -0.1045  0.2239
10910TIP3    H254222   4.698   2.164  13.355 -0.6121 -0.3641  0.0930
10911TIP3   OH254223   1.521   6.522  15.530  0.1147 -0.6795  0.1170
10911TIP3    H154224   1.611   6.488  15.535 -0.0206 -0.8098  2.8923
10911TIP3    H254225   1.470   6.449  15.496  1.1758 -0.1774 -2.8603
10912TIP3   OH254226   1.998   1.700   4.335  1.0425  0.6217  0.2762
10912TIP3    H154227   2.072   1.761   4.332  1.6077 -0.0941 -0.9927
10912TIP3    H254228   2.016   1.637   4.265  0.0573 -0.5356  1.0336
10913TIP3   OH254229   6.219   4.399   3.125  0.0310  0.2840  0.3919
10913TIP3    H154230   6.178   4.485   3.127 -0.1712  0.1851  1.5732
10913TIP3    H254231   6.221   4.375   3.033 -2.2357  0.4667  0.2272
10914TIP3   OH254232   1.565   6.427   3.703  0.2442  0.0441  0.3445
10914TIP3    H154233   1.598   6.382   3.781 -0.3140 -1.2181 -0.1155
10914TIP3    H254234   1.482   6.382   3.684 -0.0658  0.9317 -0.4563
10915TIP3   OH254235   3.680   1.742  14.107 -0.1001 -0.4960 -0.0651
10915TIP3    H154236   3.768   1.717  14.082 -0.5041 -1.0014 -1.0135
10915TIP3    H254237   3.692   1.816  14.167  0.9994 -1.2978  0.7480
10916TIP3   OH254238   4.760   0.354   1.926  0.1446 -0.3136  0.4224
10916TIP3    H154239   4.706   0.432   1.911 -1.1909 -1.3224 -0.2481
10916TIP3    H254240   4.772   0.352   2.021  0.8349  1.0928  0.3936
10917TIP3   OH254241   1.036   4.422   4.226  0.0546  0.1963  0.4343
10917TIP3    H154242   1.021   4.373   4.145 -1.1921  0.4735  0.4692
10917TIP3    H254243   1.036   4.514   4.198  1.0108  0.2355  0.5587
10918TIP3   OH254244   0.980   2.061  16.853  0.7830 -1.0968 -0.0641
10918TIP3    H154245   1.053   2.023  16.901 -0.0077 -1.6331  0.7471
10918TIP3    H254246   0.909   1.997  16.860 -0.1662 -0.0623  0.2278
10919TIP3   OH254247   6.273   2.289   1.807 -0.1204  0.4030 -0.0399
10919TIP3    H154248   6.325   2.247   1.875  2.1055  1.1397 -1.1951
10919TIP3    H254249   6.334   2.302   1.734 -2.2087  0.3404 -1.9087
10920TIP3   OH254250   1.693   0.767  11.831  0.5725 -0.3945 -0.8423
10920TIP3    H154251   1.716   0.809  11.915 -0.3339 -0.5347 -0.5208
10920TIP3    H254252   1.633   0.829  11.789  0.4359 -0.6705 -1.0557
10921TIP3   OH254253   2.176   2.589   1.361  0.6455 -0.1487 -0.2349
10921TIP3    H154254   2.190   2.616   1.270  1.1212  0.2923 -0.0334
10921TIP3    H254255   2.082   2.576   1.368  0.7582 -1.9606 -1.2827
10922TIP3   OH254256   6.547   3.799  16.847 -0.0653  0.5603 -0.0550
10922TIP3    H154257   6.473   3.739  16.858 -0.0855  0.6511  0.3496
10922TIP3    H254258   6.617   3.744  16.811 -0.4871  0.5901 -0.9269
10923TIP3   OH254259   0.243   6.387   1.523 -0.0003  0.6073  0.3494
10923TIP3    H154260   0.290   6.353   1.447  0.0988  1.5491 -0.0239
10923TIP3    H254261   0.311   6.410   1.586  0.0290  1.5175 -0.0005
10924TIP3   OH254262   0.050   5.361   3.575 -0.5176  0.1813 -0.1825
10924TIP3    H154263   0.053   5.440   3.521 -1.6609  0.8809  0.7463
10924TIP3    H254264   0.087   5.293   3.518  2.7116  1.7538 -0.2270
10925TIP3   OH254265   5.424   3.303  13.300  0.7376 -0.3215  0.4281
10925TIP3    H154266   5.347   3.300  13.357  1.1395 -0.3387  0.9789
10925TIP3    H254267   5.401   3.247  13.226  0.4440 -0.7950  0.8711
10926TIP3   OH254268   1.709   0.412  16.038 -0.5052 -0.5240 -0.4625
10926TIP3    H154269   1.686   0.459  16.118 -0.1539 -2.3183  0.7526
10926TIP3    H254270   1.635   0.353  16.023 -1.3521  0.9261 -2.4578
10927TIP3   OH254271   0.691   6.743   1.150 -0.1310 -0.1425 -0.5322
10927TIP3    H154272   0.735   6.746   1.065  0.6024 -0.5367 -0.1825
10927TIP3    H254273   0.677   6.650   1.166  0.8603 -0.1661  0.3193
10928TIP3   OH254274   4.859   5.703   4.391 -0.6399 -0.2105  0.3066
10928TIP3    H154275   4.768   5.695   4.420 -0.7981  0.8902  0.1619
10928TIP3    H254276   4.904   5.629   4.431 -1.8386 -1.4853 -0.5995
10929TIP3   OH254277   6.198   5.463  12.583  0.1855 -0.7852  0.1625
10929TIP3    H154278   6.198   5.429  12.493 -0.7094 -0.2411 -0.0583
10929TIP3    H254279   6.108   5.492  12.597  0.9670  1.8115  0.2139
10930TIP3   OH254280   5.262   3.299   5.436  0.2230  0.3823 -0.0364
10930TIP3    H154281   5.333   3.291   5.500  0.1587 -2.5210 -0.1880
10930TIP3    H254282   5.184   3.316   5.489  0.0905 -2.4175  0.8644
10931TIP3   OH254283   0.497   0.363  14.797 -0.1644  0.2485  0.6092
10931TIP3    H154284   0.424   0.307  14.822  0.9025 -3.5023 -3.5386
10931TIP3    H254285   0.568   0.337  14.855 -0.4377 -0.6145  0.5644
10932TIP3   OH254286   5.790   3.870  12.539  0.0823 -0.2883 -0.2380
10932TIP3    H154287   5.808   3.896  12.449  2.2251 -0.1230  0.1976
10932TIP3    H254288   5.711   3.920  12.563  0.4455  0.9499 -1.4892
10933TIP3   OH254289   6.475   2.909   4.880  0.5349  0.0424  0.0883
10933TIP3    H154290   6.472   2.996   4.839 -0.0939  0.4236  0.9153
10933TIP3    H254291   6.459   2.926   4.973  0.6228 -0.9433  0.2904
10934TIP3   OH254292   5.828   2.689   2.437 -0.0308 -0.7545 -0.0257
10934TIP3    H154293   5.891   2.616   2.437  0.4137 -0.3777  0.0384
10934TIP3    H254294   5.838   2.729   2.524  0.5911  0.1045 -0.4714
10935TIP3   OH254295   1.191   1.680   1.233 -0.0805  0.0679 -0.4606
10935TIP3    H154296   1.137   1.667   1.311 -1.0299  1.3415 -0.8774
10935TIP3    H254297   1.142   1.638   1.162  0.6293 -0.8114 -0.4544
10936TIP3   OH254298   0.833   4.565   1.230  0.6185 -0.0024 -0.3911
10936TIP3    H154299   0.765   4.499   1.244  0.1587  0.6674  0.7372
10936TIP3    H254300   0.794   4.628   1.170  0.0298  0.6353  0.6293
10937TIP3   OH254301   2.486   5.856  16.518 -0.1997  0.3096  0.1460
10937TIP3    H154302   2.482   5.834  16.425 -0.8095  2.7671 -0.4881
10937TIP3    H254303   2.460   5.776  16.563 -1.1836 -0.5699 -1.8621
10938TIP3   OH254304   1.900   6.089  14.696 -0.0121 -0.0794  0.1179
10938TIP3    H154305   1.972   6.109  14.636  0.4045  0.5586  0.8095
10938TIP3    H254306   1.821   6.106  14.645  0.2954 -1.4045 -0.8596
10939TIP3   OH254307   0.944   3.344  11.057 -0.4561  0.2821  0.2620
10939TIP3    H154308   0.910   3.357  10.968  0.7792  0.7972 -0.1522
10939TIP3    H254309   1.004   3.417  11.071 -0.2260 -0.0928  1.3248
10940TIP3   OH254310   3.687   0.125   2.589 -0.4043 -0.2774  0.7835
10940TIP3    H154311   3.651   0.142   2.502 -3.5123 -1.9809  1.5691
10940TIP3    H254312   3.662   0.035   2.608  2.5666 -0.8654  2.4339
10941TIP3   OH254313   6.170   3.810   4.624  0.5012 -0.5184  0.1612
10941TIP3    H154314   6.255   3.772   4.646  2.4491  2.7563 -0.8927
10941TIP3    H254315   6.175   3.900   4.657 -2.7740 -0.3001  0.4047
10942TIP3   OH254316   1.585   4.641   1.598 -0.4878  0.4657  0.1052
10942TIP3    H154317   1.516   4.650   1.533 -0.0442  1.3962 -0.2582
10942TIP3    H254318   1.659   4.603   1.550  0.2888  2.3625 -0.3122
10943TIP3   OH254319   1.954   4.872   5.102  0.5967 -0.4921  0.4218
10943TIP3    H154320   1.862   4.858   5.080  0.7446  2.2060 -2.7489
10943TIP3    H254321   2.001   4.805   5.052  0.4553  0.7906 -1.5898
10944TIP3   OH254322   1.547   2.199   5.407 -0.4432  0.5092  0.7403
10944TIP3    H154323   1.614   2.230   5.469 -0.0157  0.1536  0.4620
10944TIP3    H254324   1.498   2.278   5.383  0.7265  1.0120 -0.0783
10945TIP3   OH254325   5.280   5.729  12.599  0.0585  0.7954 -0.5979
10945TIP3    H154326   5.234   5.787  12.660  0.8981  0.6910  0.1610
10945TIP3    H254327   5.295   5.648  12.649  2.3155  1.3320 -0.2919
10946TIP3   OH254328   6.599   5.315   5.773  0.1699 -0.4482  0.7155
10946TIP3    H154329   6.611   5.317   5.868 -0.8586  0.5843  0.8491
10946TIP3    H254330   6.661   5.249   5.743  1.0792 -0.2409  2.0165
10947TIP3   OH254331   1.656   0.005   0.299 -0.0209  0.6710  0.1738
10947TIP3    H154332   1.749  -0.019   0.296 -0.2898 -0.4953  0.6461
10947TIP3    H254333   1.617  -0.059   0.359 -0.9766  1.6892  0.6572
10948TIP3   OH254334   5.364   1.769   4.258  0.4143 -0.4815  0.0270
10948TIP3    H154335   5.297   1.713   4.219 -0.0349  1.3473 -2.0402
10948TIP3    H254336   5.447   1.725   4.238  0.0714 -0.4557 -1.5589
10949TIP3   OH254337   5.948   2.610  11.711  0.3209 -0.8271  0.2837
10949TIP3    H154338   5.863   2.622  11.670  0.4224  3.6997  0.8166
10949TIP3    H254339   6.010   2.609  11.638 -0.0241 -1.2401 -0.0034
10950TIP3   OH254340   1.523   3.419   1.324 -0.2220  0.0565  0.5602
10950TIP3    H154341   1.576   3.347   1.359  1.7731 -0.0184 -2.2677
10950TIP3    H254342   1.583   3.494   1.321 -1.2376  0.8761  0.2670
10951TIP3   OH254343   2.455   4.970   0.506  0.2534 -0.3359 -0.1566
10951TIP3    H154344   2.388   4.966   0.438  0.5334 -2.9167 -0.3920
10951TIP3    H254345   2.423   5.035   0.568 -2.0908 -0.9271 -0.6612
10952TIP3   OH254346   1.145   1.700  13.205 -0.5772 -0.1661  0.4529
10952TIP3    H154347   1.186   1.778  13.244 -0.1887 -0.3980  0.5151
10952TIP3    H254348   1.161   1.630  13.269  0.2852 -0.6051 -0.2149
10953TIP3   OH254349   6.720   6.067   0.423 -0.5765 -0.1098 -0.0291
10953TIP3    H154350   6.754   6.017   0.348 -1.9634 -0.2917 -0.5830
10953TIP3    H254351   6.788   6.131   0.442  0.4733 -1.0494 -0.4549
10954TIP3   OH254352   0.573   6.490  15.795 -0.0819  0.3591 -0.6050
10954TIP3    H154353   0.486   6.477  15.833 -0.4120  0.2918 -1.3707
10954TIP3    H254354   0.631   6.442  15.853 -0.4436  1.0400  0.3613
10955TIP3   OH254355   5.200   6.568   4.973  0.4951 -0.7817  0.6480
10955TIP3    H154356   5.175   6.517   5.050 -0.1857 -0.4450  0.6561
10955TIP3    H254357   5.190   6.660   5.001 -0.4429 -0.6548 -0.0474
10956TIP3   OH254358   4.957   0.702  13.634  0.1975 -0.1515 -0.0109
10956TIP3    H154359   4.946   0.748  13.550 -0.2101  0.2222  0.2442
10956TIP3    H254360   4.868   0.692  13.667  0.4199  0.6402  0.8718
10957TIP3   OH254361   3.661   4.708  13.850 -0.5985  0.1146 -0.0506
10957TIP3    H154362   3.708   4.751  13.921 -1.2250  2.5877 -1.0273
10957TIP3    H254363   3.572   4.694  13.885 -0.4804 -0.1007  0.1658
10958TIP3   OH254364   0.868   3.845   5.432  0.6952 -0.0042 -0.1435
10958TIP3    H154365   0.943   3.898   5.402  0.1514  1.6437  1.2212
10958TIP3    H254366   0.791   3.895   5.404  0.1562 -0.1607  1.0292
10959TIP3   OH254367   0.830   4.523  14.398 -0.0225  0.6692 -0.4710
10959TIP3    H154368   0.770   4.597  14.388  1.6332  2.0394 -0.9374
10959TIP3    H254369   0.910   4.552  14.353  0.6142 -1.5171 -0.8438
10960TIP3   OH254370   3.241   2.814  12.599 -0.4847  0.2783 -0.2929
10960TIP3    H154371   3.170   2.811  12.534  1.0184  0.6189 -2.0267
10960TIP3    H254372   3.283   2.729  12.592  1.4584  1.2974 -1.9108
10961TIP3   OH254373   1.224   6.400   0.508 -0.1984  0.0481 -0.1949
10961TIP3    H154374   1.300   6.374   0.456 -0.2742  0.0166 -0.2888
10961TIP3    H254375   1.161   6.434   0.445 -0.6442 -0.8182 -0.2342
10962TIP3   OH254376   5.519   2.122  14.401 -0.2061 -0.1161  0.2693
10962TIP3    H154377   5.433   2.095  14.370  0.0605  0.6418 -1.2216
10962TIP3    H254378   5.570   2.137  14.321  1.0559  0.2697  1.1073
10963TIP3   OH254379   4.569   3.152   2.407 -0.1001  0.3005  0.3234
10963TIP3    H154380   4.592   3.059   2.413  2.3740  0.6516 -1.6078
10963TIP3    H254381   4.650   3.197   2.432 -0.1110  1.8223 -2.0972
10964TIP3   OH254382   0.783   4.422  13.699 -0.1231 -0.2938  0.4034
10964TIP3    H154383   0.716   4.464  13.753  1.2052  1.3992  0.8138
10964TIP3    H254384   0.865   4.442  13.742  0.7762 -1.2102 -0.8100
10965TIP3   OH254385   6.757   6.551  14.222 -0.1198 -0.4042 -0.4489
10965TIP3    H154386   6.844   6.511  14.220  0.4659  0.7690 -2.8208
10965TIP3    H254387   6.750   6.589  14.309  0.5969 -2.8188  0.7423
10966TIP3   OH254388   2.009   6.309   4.045 -0.0387 -0.7311 -0.2766
10966TIP3    H154389   2.020   6.388   4.099  2.2246 -1.5386  0.5532
10966TIP3    H254390   2.067   6.323   3.970 -0.6812 -1.0205 -0.8311
10967TIP3   OH254391   5.325   3.203   0.340  0.2644 -0.6281 -0.1068
10967TIP3    H154392   5.326   3.267   0.269 -0.2369 -0.1535  0.2990
10967TIP3    H254393   5.256   3.234   0.399  3.2744  1.3796  2.7446
10968TIP3   OH254394   5.868   0.537  13.790  0.6901 -0.3984 -0.0842
10968TIP3    H154395   5.812   0.606  13.825  0.5746  0.1837 -1.3602
10968TIP3    H254396   5.809   0.465  13.771  0.4246  0.0432 -0.9896
10969TIP3   OH254397   5.127   1.186   4.838  0.3926 -0.4944 -0.1806
10969TIP3    H154398   5.086   1.101   4.821  1.3423 -0.7611 -1.2255
10969TIP3    H254399   5.111   1.202   4.931 -1.4989 -0.8811 -0.3915
10970TIP3   OH254400   4.159   3.650  17.007 -0.1414  0.6288  0.0031
10970TIP3    H154401   4.106   3.658  16.928 -0.3962  0.4328  0.1499
10970TIP3    H254402   4.096   3.626  17.076  0.3496 -1.2516 -0.1489
10971TIP3   OH254403   6.001   1.940   1.295 -0.3184  0.3849  0.1364
10971TIP3    H154404   6.006   1.956   1.200  2.4479  1.1189  0.3204
10971TIP3    H254405   6.030   2.022   1.334  1.2657 -0.7670  1.5091
10972TIP3   OH254406   1.664   3.393  11.463 -0.0809 -0.0532  0.2274
10972TIP3    H154407   1.714   3.339  11.524  1.9327  2.7857  1.2864
10972TIP3    H254408   1.685   3.357  11.377  1.0265 -1.0714  0.9001
10973TIP3   OH254409   0.471   0.874  14.098 -0.2641  0.3182 -0.4034
10973TIP3    H154410   0.450   0.845  14.187  2.1082 -0.7752 -0.1378
10973TIP3    H254411   0.432   0.961  14.092  0.3091  0.8368  2.0592
10974TIP3   OH254412   4.078   0.965  11.754  0.0621  0.4391 -0.4269
10974TIP3    H154413   4.172   0.967  11.772  0.0332 -1.2095  0.1173
10974TIP3    H254414   4.037   0.988  11.838 -0.0518  3.0723 -1.1397
10975TIP3   OH254415   6.409   5.518   1.208  0.3148 -0.1574  0.0031
10975TIP3    H154416   6.329   5.522   1.154  0.9415 -1.4498 -1.1033
10975TIP3    H254417   6.466   5.457   1.160  3.1410  2.8808 -0.8040
10976TIP3   OH254418   2.588   2.513   3.542 -0.4291 -0.2207 -0.1400
10976TIP3    H154419   2.650   2.539   3.473  0.3511 -1.5462  0.0267
10976TIP3    H254420   2.631   2.440   3.587 -1.2700  0.1122  1.2645
10977TIP3   OH254421   2.927   2.508   2.409  0.1696  0.3064  0.4954
10977TIP3    H154422   3.004   2.452   2.424  1.4388  0.8347 -3.0655
10977TIP3    H254423   2.954   2.567   2.339 -2.8562  1.9169  0.5329
10978TIP3   OH254424   0.097   4.521  13.574  0.3262 -0.7230  0.5313
10978TIP3    H154425   0.077   4.614  13.583  1.0468 -0.3414 -1.3350
10978TIP3    H254426   0.050   4.494  13.494  0.6471 -1.7940  0.6804
10979TIP3   OH254427   2.035   4.151   3.254 -1.0864 -0.1042  0.2866
10979TIP3    H154428   1.940   4.162   3.263 -1.3037 -1.9065  0.5668
10979TIP3    H254429   2.057   4.081   3.316  0.4102  0.1760  0.1170
10980TIP3   OH254430   2.282   5.933  13.467  0.1626  0.0887 -0.3030
10980TIP3    H154431   2.207   5.881  13.495  1.9456 -1.1598  2.6177
10980TIP3    H254432   2.313   5.889  13.388 -1.8192  0.3475 -1.2740
10981TIP3   OH254433   6.317   0.862  13.100  0.2098  0.3053  0.1301
10981TIP3    H154434   6.403   0.899  13.079  1.2196 -1.3971  1.0184
10981TIP3    H254435   6.265   0.936  13.131  0.6629  1.7602 -2.2719
10982TIP3   OH254436   5.787   6.582   3.358  0.7047 -0.0940  0.5082
10982TIP3    H154437   5.847   6.649   3.327 -1.0692  0.8407 -1.1484
10982TIP3    H254438   5.841   6.505   3.372  2.3393  0.8304 -0.4305
10983TIP3   OH254439   5.435   5.963   1.622 -0.4770  0.0141  0.1310
10983TIP3    H154440   5.513   5.909   1.609 -1.5189 -1.5996  0.2909
10983TIP3    H254441   5.463   6.030   1.685  0.8409 -0.3444 -0.0257
10984TIP3   OH254442   1.762   4.341   3.752  0.3247  0.1063  0.2016
10984TIP3    H154443   1.824   4.350   3.825 -1.0136  0.7521  1.3081
10984TIP3    H254444   1.762   4.247   3.732  3.4243  0.3421 -1.4890
10985TIP3   OH254445   4.729   2.261   4.379  0.5447 -0.4166 -0.1684
10985TIP3    H154446   4.659   2.209   4.338 -0.6370 -0.8354  2.1997
10985TIP3    H254447   4.785   2.288   4.306 -1.4824 -0.9840 -2.0437
10986TIP3   OH254448   2.447   3.509  13.320  0.3100  0.0984 -0.6705
10986TIP3    H154449   2.394   3.449  13.372  2.0642 -1.7059 -0.8410
10986TIP3    H254450   2.520   3.532  13.377 -0.8363  3.0978 -0.1841
10987TIP3   OH254451   5.598   4.298   4.429  0.0501  0.3417 -0.2737
10987TIP3    H154452   5.600   4.368   4.493  1.6480  0.8692 -0.8424
10987TIP3    H254453   5.636   4.222   4.474  0.0527  0.3682 -0.2318
10988TIP3   OH254454   4.726   1.903  14.710  0.1546 -0.4203 -0.2387
10988TIP3    H154455   4.780   1.827  14.729  0.6871  0.2391  0.9955
10988TIP3    H254456   4.773   1.949  14.640  1.6790  0.5677  1.3546
10989TIP3   OH254457   6.242   3.964   3.030 -0.2096 -0.2698 -0.1966
10989TIP3    H154458   6.271   3.874   3.046  0.2130 -0.4807 -1.8670
10989TIP3    H254459   6.222   3.966   2.936 -0.2065  1.3833 -0.1950
10990TIP3   OH254460   6.138   0.980  14.403 -0.2179  0.2392  0.4545
10990TIP3    H154461   6.155   0.933  14.485  1.7491 -0.7661 -0.4412
10990TIP3    H254462   6.189   1.061  14.412  2.1474 -1.0147 -0.6914
10991TIP3   OH254463   2.072   6.759  12.792 -0.5519 -0.3840  0.0810
10991TIP3    H154464   2.023   6.755  12.874 -0.5884 -0.0092  0.0783
10991TIP3    H254465   2.164   6.759  12.818 -0.5723  0.7210  0.1685
10992TIP3   OH254466   1.253   5.325   5.549 -0.5025  0.7048 -0.0726
10992TIP3    H154467   1.168   5.284   5.530 -0.6848  1.5325 -1.1023
10992TIP3    H254468   1.312   5.291   5.482 -0.1043  0.4150  0.4203
10993TIP3   OH254469   4.414   1.337   5.629 -0.1452  0.4090  0.1188
10993TIP3    H154470   4.465   1.271   5.583 -1.7315 -1.7219  1.2582
10993TIP3    H254471   4.378   1.393   5.560  0.1822 -0.7003 -0.9764
10994TIP3   OH254472   3.467   6.269   0.860 -0.2539 -0.4338  0.0150
10994TIP3    H154473   3.419   6.352   0.859 -0.6045 -0.6326  0.1331
10994TIP3    H254474   3.479   6.249   0.953  2.7954  1.1609  0.1002
10995TIP3   OH254475   4.343   1.429  11.927 -0.2279  0.0738 -0.3147
10995TIP3    H154476   4.378   1.340  11.924 -1.1094 -0.2854 -2.5276
10995TIP3    H254477   4.248   1.418  11.926 -0.3614  0.9923 -1.6453
10996TIP3   OH254478   1.230   6.449  11.647 -0.2648  0.2005  0.2500
10996TIP3    H154479   1.171   6.439  11.572 -0.7010  1.5789  0.3777
10996TIP3    H254480   1.201   6.530  11.689 -0.2438 -0.7154  2.1125
10997TIP3   OH254481   0.376   1.646   5.199  0.2690 -0.2003  0.2092
10997TIP3    H154482   0.336   1.730   5.223  0.9771  0.1241  0.2720
10997TIP3    H254483   0.302   1.587   5.186 -0.5576  1.4298 -3.9483
10998TIP3   OH254484   1.977   4.500  17.078  0.1985 -0.2023 -0.0912
10998TIP3    H154485   1.987   4.579  17.025  1.4592 -0.9430 -1.0207
10998TIP3    H254486   2.042   4.510  17.148  1.7190 -1.2019 -1.2793
10999TIP3   OH254487   0.580   0.872   4.674 -0.6200 -0.4112 -0.2567
10999TIP3    H154488   0.573   0.878   4.579 -3.3426 -0.3710 -0.1203
10999TIP3    H254489   0.566   0.779   4.693 -1.1363 -0.2614  0.1357
11000TIP3   OH254490   2.288   0.560  15.655 -0.7054  0.6477 -0.5652
11000TIP3    H154491   2.353   0.592  15.718  1.1977  1.2541 -2.7157
11000TIP3    H254492   2.214   0.534  15.710  0.3367  2.2764  1.8261
11001TIP3   OH254493   3.740   2.863   5.673  0.3028  0.3210 -0.1911
11001TIP3    H154494   3.678   2.790   5.670  0.9827 -0.2491 -0.9871
11001TIP3    H254495   3.765   2.876   5.582  2.1461 -0.1714  0.2047
11002TIP3   OH254496   6.018   2.517  15.575 -0.1075 -0.1002  0.1152
11002TIP3    H154497   6.112   2.518  15.593 -0.0174 -2.8340  0.2178
11002TIP3    H254498   5.977   2.521  15.661  0.0229 -1.3675  0.2592
11003TIP3   OH254499   0.738   5.559   2.102  0.0956 -0.0913  0.0481
11003TIP3    H154500   0.658   5.605   2.074  1.3377  2.2528  0.0276
11003TIP3    H254501   0.717   5.526   2.189 -1.3866 -0.9267 -0.5814
11004TIP3   OH254502   3.570   0.749  14.850 -0.1310 -0.3074 -0.3318
11004TIP3    H154503   3.624   0.757  14.772  0.6065 -0.2610  0.1778
11004TIP3    H254504   3.530   0.835  14.862 -0.3591 -0.3564 -0.7358
11005TIP3   OH254505   2.587   0.476   1.076 -0.2075 -0.6354  0.0640
11005TIP3    H154506   2.515   0.438   1.127  0.0306 -1.6172 -0.3119
11005TIP3    H254507   2.649   0.508   1.141 -0.8890  0.0765  0.3947
11006TIP3   OH254508   5.917   5.667  11.259 -0.5172 -0.0357 -0.0857
11006TIP3    H154509   5.924   5.735  11.192  0.1590  0.1144  0.1365
11006TIP3    H254510   5.823   5.646  11.261 -0.9077  1.6302  0.5710
11007TIP3   OH254511   0.015   3.947  14.734  0.7243 -0.2675 -0.1549
11007TIP3    H154512  -0.040   4.005  14.787 -0.2136  0.4238 -1.7997
11007TIP3    H254513   0.103   3.980  14.746  0.7959 -1.2067  2.3013
11008TIP3   OH254514   3.964   1.477  12.634 -0.0451  0.6715  0.4717
11008TIP3    H154515   3.903   1.503  12.702 -0.2589 -0.3129  0.6750
11008TIP3    H254516   3.934   1.523  12.555 -2.2448 -1.2479  0.0954
11009TIP3   OH254517   2.687   0.346   2.359 -0.8064  0.0340 -0.5012
11009TIP3    H154518   2.725   0.403   2.426 -1.5862 -0.6982  0.6104
11009TIP3    H254519   2.712   0.258   2.386 -2.3507 -0.3887 -0.3164
11010TIP3   OH254520   3.749   1.688   4.577 -0.0179  0.4085  0.6121
11010TIP3    H154521   3.717   1.662   4.663  0.4277  1.1748  1.0203
11010TIP3    H254522   3.830   1.737   4.595  0.6310 -0.2975 -0.3040
11011TIP3   OH254523   1.233   6.701  15.230  0.2626  0.0147  0.0357
11011TIP3    H154524   1.157   6.748  15.264 -0.9508 -0.5478 -1.7287
11011TIP3    H254525   1.209   6.608  15.241  0.8581 -0.1677 -0.2020
11012TIP3   OH254526   5.349   6.108  16.861 -0.0926 -0.2578  0.0293
11012TIP3    H154527   5.364   6.059  16.941 -2.1600  1.4083  1.5653
11012TIP3    H254528   5.381   6.051  16.791  2.1042 -1.6245  2.0159
11013TIP3   OH254529   0.089   3.537   5.324 -0.1496 -0.4418  0.1133
11013TIP3    H154530   0.006   3.557   5.281 -0.3994  1.2933  1.2963
11013TIP3    H254531   0.155   3.552   5.256 -0.6754  0.2239 -0.2657
11014TIP3   OH254532   1.216   2.655  12.436  0.1100  0.1134 -0.3416
11014TIP3    H154533   1.291   2.673  12.493 -0.6180  0.1977  0.6197
11014TIP3    H254534   1.250   2.665  12.347  1.1151  0.6189  0.0853
11015TIP3   OH254535   0.457   4.775  14.502 -0.2623 -0.1358  0.1883
11015TIP3    H154536   0.392   4.705  14.492 -0.8132  0.4229 -0.1910
11015TIP3    H254537   0.479   4.773  14.595 -1.3805  0.1523  0.4727
11016TIP3   OH254538   1.270   1.035   6.693 -0.6879  0.5734  0.1621
11016TIP3    H154539   1.288   1.097   6.623 -1.3709  1.4981  0.7913
11016TIP3    H254540   1.195   0.984   6.662  0.6495 -0.8506 -0.9060
11017TIP3   OH254541   0.602   0.299  12.880 -0.5654  0.0921 -0.0379
11017TIP3    H154542   0.627   0.354  12.806 -2.7242 -1.2677 -1.9276
11017TIP3    H254543   0.674   0.236  12.889  1.0105  1.9101  0.9149
11018TIP3   OH254544   5.526   3.069  11.855  0.0690  0.0609 -0.1892
11018TIP3    H154545   5.493   3.141  11.801 -1.5526  0.7688  1.6399
11018TIP3    H254546   5.447   3.023  11.885  1.0177 -1.6341 -0.1707
11019TIP3   OH254547   6.460   2.097  10.656  0.6633  0.3681  0.7206
11019TIP3    H154548   6.371   2.077  10.625  0.6073 -0.9568  1.6746
11019TIP3    H254549   6.515   2.083  10.579  0.1754  0.0865  0.4129
11020TIP3   OH254550   1.882   1.975  12.949 -0.4281  0.1431 -0.7034
11020TIP3    H154551   1.836   1.963  13.032 -0.8505  0.1766 -0.9298
11020TIP3    H254552   1.927   2.059  12.958  0.5076 -0.4054 -0.0583
11021TIP3   OH254553   6.106   4.735   1.685 -0.6661 -0.3948 -0.1278
11021TIP3    H154554   6.026   4.783   1.709  0.0783  0.3403  1.0045
11021TIP3    H254555   6.175   4.777   1.737  0.2164 -1.9423  0.0069
11022TIP3   OH254556   0.511   6.654  11.778 -0.4322 -0.2562  1.1391
11022TIP3    H154557   0.606   6.651  11.792 -0.3790  2.2990  1.9440
11022TIP3    H254558   0.500   6.713  11.703 -1.3748 -1.5297  0.2401
11023TIP3   OH254559   2.959   0.492  13.519 -0.0344  0.2823  0.4460
11023TIP3    H154560   2.902   0.455  13.586 -2.6138 -2.0268 -2.6574
11023TIP3    H254561   3.017   0.419  13.495 -0.2968  0.4881 -0.8793
11024TIP3   OH254562   5.340   0.904   5.888  0.0065 -0.0862 -0.0475
11024TIP3    H154563   5.343   0.923   5.982 -0.3191 -0.8586  0.1300
11024TIP3    H254564   5.331   0.989   5.846  1.0433  0.3458  0.5758
11025TIP3   OH254565   4.907   5.320   0.131 -0.2217  0.0529  0.3730
11025TIP3    H154566   4.940   5.325   0.221  0.5213  1.5866  0.0568
11025TIP3    H254567   4.943   5.398   0.088 -1.8945  0.2428 -0.8053
11026TIP3   OH254568   1.335   5.219  16.389 -0.0275  0.4184 -0.8363
11026TIP3    H154569   1.428   5.202  16.371 -0.4137 -0.3222 -2.2751
11026TIP3    H254570   1.302   5.136  16.422  0.0461  1.0150  0.8869
11027TIP3   OH254571   0.521   4.965  15.820  0.7941  0.0778 -0.0985
11027TIP3    H154572   0.443   4.949  15.768  1.2822 -1.9178 -0.2907
11027TIP3    H254573   0.491   4.960  15.911  0.5899  0.0056 -0.1692
11028TIP3   OH254574   3.975   0.252   5.372 -0.5912  0.1991  0.8858
11028TIP3    H154575   3.999   0.173   5.420  0.1334 -0.1737 -0.0573
11028TIP3    H254576   4.031   0.320   5.408  2.2528 -0.7118 -1.4716
11029TIP3   OH254577   0.513   2.164  11.878  0.6155 -0.4791  0.2357
11029TIP3    H154578   0.534   2.234  11.940  0.0021 -1.1247  1.1954
11029TIP3    H254579   0.421   2.176  11.857  0.4836 -1.0334  0.4660
11030TIP3   OH254580   3.737   6.235   3.291 -0.1355  0.0333 -0.4602
11030TIP3    H154581   3.666   6.181   3.324 -0.6841  0.9508 -0.1076
11030TIP3    H254582   3.708   6.325   3.306  1.1271  0.4276 -0.2337
11031TIP3   OH254583   2.759   2.357   5.774  0.2276  0.1207  0.0463
11031TIP3    H154584   2.700   2.322   5.707 -1.4108  1.0881  0.9272
11031TIP3    H254585   2.711   2.347   5.856  1.3996  0.7163  0.8278
11032TIP3   OH254586   6.598   6.763  16.565  0.5973 -0.1796 -0.0407
11032TIP3    H154587   6.580   6.669  16.576  1.5312 -0.4344 -0.5474
11032TIP3    H254588   6.582   6.780  16.473  0.0664  0.2488  0.1298
11033TIP3   OH254589   6.094   2.659  13.908  0.1495  0.2973 -0.4221
11033TIP3    H154590   6.050   2.618  13.834 -1.3332  3.0599 -1.1904
11033TIP3    H254591   6.025   2.672  13.973  0.4934  1.8054 -0.3353
11034TIP3   OH254592   4.183   2.311  13.238 -0.6184  0.4881 -0.1885
11034TIP3    H154593   4.247   2.371  13.200  0.0453  0.6589  1.1255
11034TIP3    H254594   4.142   2.361  13.308  0.1760 -0.6466  1.1560
11035TIP3   OH254595   1.768   0.798   4.484 -0.2343  0.1518  0.3966
11035TIP3    H154596   1.677   0.804   4.454 -0.6729 -1.2027  1.3426
11035TIP3    H254597   1.820   0.828   4.410 -1.4584  0.9533 -0.1626
11036TIP3   OH254598   5.825   1.688  13.580  0.5372 -0.3883  0.0552
11036TIP3    H154599   5.852   1.764  13.631 -1.3931  1.7743 -1.9085
11036TIP3    H254600   5.905   1.636  13.570  1.7605  0.9856  2.0648
11037TIP3   OH254601   2.018   5.758  14.590 -0.0386  0.2948  0.6279
11037TIP3    H154602   2.103   5.757  14.546  0.6781  0.7738  1.9386
11037TIP3    H254603   2.004   5.667  14.617  0.3009  0.3034  0.8418
11038TIP3   OH254604   3.134   2.014  14.810  0.0385 -0.0990  0.2952
11038TIP3    H154605   3.140   2.028  14.904  2.3869  1.8881 -0.0678
11038TIP3    H254606   3.046   1.978  14.797 -0.2097 -0.8248  3.2466
11039TIP3   OH254607   6.407   0.793  16.265  0.1698 -0.2120  0.2477
11039TIP3    H154608   6.450   0.868  16.307  1.2773 -0.4828 -0.3565
11039TIP3    H254609   6.314   0.804  16.284  0.5289  0.1917  1.9549
11040TIP3   OH254610   6.377   3.001   2.173  0.7886  0.3167  0.0832
11040TIP3    H154611   6.389   3.040   2.259 -0.6928  0.9909  0.0121
11040TIP3    H254612   6.284   3.015   2.152  0.9036 -0.6164 -1.2373
11041TIP3   OH254613   1.051   3.613   3.557 -0.1425  0.2664  0.1582
11041TIP3    H154614   1.082   3.537   3.605  0.2598 -0.1062 -0.6760
11041TIP3    H254615   1.117   3.628   3.490  0.3589  2.0373  0.9812
11042TIP3   OH254616   5.439   2.620   1.256  0.4064  0.0521  1.0304
11042TIP3    H154617   5.529   2.635   1.282  0.6064  1.7369 -0.4407
11042TIP3    H254618   5.442   2.618   1.160 -1.3088  1.8386  0.8782
11043TIP3   OH254619   4.420   1.314  13.510 -0.0607 -0.1904 -0.4662
11043TIP3    H154620   4.488   1.376  13.483 -0.1849 -0.4757 -1.5107
11043TIP3    H254621   4.392   1.273  13.428 -2.0825  0.5005 -0.1688
11044TIP3   OH254622   2.003   2.329   5.964  0.6166  0.0270 -0.2304
11044TIP3    H154623   2.039   2.283   5.888  0.0696  0.4550 -0.7639
11044TIP3    H254624   2.065   2.312   6.034  1.0607 -0.4996 -0.7352
11045TIP3   OH254625   5.159   3.946   2.739  0.0723  0.0681 -0.4076
11045TIP3    H154626   5.121   3.872   2.691  0.0950 -1.0035  1.1609
11045TIP3    H254627   5.253   3.925   2.745  0.3265  0.9331 -1.1587
11046TIP3   OH254628   1.373   4.707   5.286  0.1752  0.2626 -0.4958
11046TIP3    H154629   1.427   4.758   5.347 -0.7320  0.0322  0.5244
11046TIP3    H254630   1.424   4.627   5.272 -0.2625 -0.3456  1.1577
11047TIP3   OH254631   3.386   3.849   0.647  0.2257  0.4759  0.0365
11047TIP3    H154632   3.438   3.908   0.592  1.1642 -0.2900  0.0768
11047TIP3    H254633   3.333   3.799   0.585  0.4107  0.4350 -0.0895
11048TIP3   OH254634   3.584   6.696  13.178 -0.1465  0.1718 -0.2586
11048TIP3    H154635   3.559   6.631  13.113  2.2106  0.0750 -1.1748
11048TIP3    H254636   3.663   6.737  13.142 -0.1546  1.8311  1.4328
11049TIP3   OH254637   0.319   6.774  14.903 -0.1869 -0.1387  0.5201
11049TIP3    H154638   0.281   6.699  14.949  1.5108 -2.5490 -1.6890
11049TIP3    H254639   0.290   6.764  14.812  0.5071  1.6310  0.0552
11050TIP3   OH254640   0.720   1.773   2.938  0.8828  0.4156 -0.0931
11050TIP3    H154641   0.714   1.687   2.896 -0.9225  0.6225 -0.3289
11050TIP3    H254642   0.649   1.774   3.003  1.6953  1.2546  0.8249
11051TIP3   OH254643   6.432   6.643   3.202  0.3192 -0.0117 -0.4855
11051TIP3    H154644   6.444   6.703   3.129 -1.7333 -1.5355 -2.2164
11051TIP3    H254645   6.486   6.567   3.180  1.3451  0.3558  0.6803
11052TIP3   OH254646   3.296   6.483   0.919 -0.4564  0.1462 -0.5430
11052TIP3    H154647   3.282   6.577   0.921 -0.0326  0.2079  0.6108
11052TIP3    H254648   3.212   6.445   0.943 -0.2606  0.2909  0.4001
11053TIP3   OH254649   5.882   4.926  10.806  0.3068  0.0934 -0.3404
11053TIP3    H154650   5.796   4.888  10.792  0.3813 -0.4604  0.6160
11053TIP3    H254651   5.929   4.861  10.859  1.4760  0.1672 -1.2357
11054TIP3   OH254652   4.922   6.028   0.633 -0.0989 -0.7119 -0.0985
11054TIP3    H154653   4.930   5.967   0.706 -1.0334 -2.1953 -1.1662
11054TIP3    H254654   4.933   6.115   0.672  0.5234 -1.5188  1.5959
11055TIP3   OH254655   4.881   6.724  14.498 -0.0045 -0.3584  0.7277
11055TIP3    H154656   4.844   6.654  14.444  0.9336  0.1868 -0.6738
11055TIP3    H254657   4.975   6.705  14.501  0.1876  0.5477  0.7665
11056TIP3   OH254658   0.972   0.753   4.284 -0.1312 -0.5030  0.9548
11056TIP3    H154659   1.013   0.797   4.210  0.0386 -0.1785  1.2376
11056TIP3    H254660   1.044   0.707   4.327 -0.3638 -1.3390  0.4703
11057TIP3   OH254661   4.687   2.839  12.160  0.4123 -0.6191  0.2819
11057TIP3    H154662   4.604   2.873  12.195  1.2051 -1.1906  3.0006
11057TIP3    H254663   4.683   2.745  12.176  1.8130 -0.5776  1.0938
11058TIP3   OH254664   3.300   5.720  16.739 -0.1221  0.5724 -0.1949
11058TIP3    H154665   3.266   5.766  16.662  0.5592  0.4849 -0.5566
11058TIP3    H254666   3.384   5.686  16.711  0.3900  1.0080  0.7631
11059TIP3   OH254667   6.174   6.388  11.391 -0.0053  0.0818  0.4789
11059TIP3    H154668   6.092   6.422  11.426 -0.1827  1.3647 -1.0446
11059TIP3    H254669   6.238   6.407  11.460 -0.6722  0.7239  0.9465
11060TIP3   OH254670   5.268   2.134  12.006  0.0006  0.2251 -0.0450
11060TIP3    H154671   5.211   2.063  12.036 -0.1136 -0.4273 -1.7486
11060TIP3    H254672   5.356   2.097  12.011 -0.2229 -0.9837 -3.2478
11061TIP3   OH254673   0.864   4.373  15.007 -0.0332 -0.3723  1.1002
11061TIP3    H154674   0.898   4.352  14.920 -2.0702  0.5241  0.0045
11061TIP3    H254675   0.846   4.288  15.048 -0.2627 -0.8126  0.1053
11062TIP3   OH254676   1.294   0.579  16.251 -0.9304  0.1071  0.0405
11062TIP3    H154677   1.303   0.625  16.167  0.4455 -0.5973 -0.2326
11062TIP3    H254678   1.384   0.553  16.273 -0.8821  2.2591  2.9143
11063TIP3   OH254679   0.855   6.331   5.546 -0.1997 -0.0365 -0.8144
11063TIP3    H154680   0.816   6.371   5.624 -1.4994 -0.3899 -1.2558
11063TIP3    H254681   0.935   6.290   5.578 -0.5429  0.1024  0.2820
11064TIP3   OH254682   2.195   5.119  15.987  0.4212  0.3055 -0.2088
11064TIP3    H154683   2.155   5.192  16.033 -0.8112 -0.8400  0.6161
11064TIP3    H254684   2.132   5.096  15.919  0.3113 -0.6069  0.1839
11065TIP3   OH254685   4.642   2.788   2.471  0.3036 -0.8453  0.2755
11065TIP3    H154686   4.706   2.851   2.502 -0.6419  0.9630 -1.2249
11065TIP3    H254687   4.626   2.730   2.546 -0.0137  1.7067  2.3106
11066TIP3   OH254688   2.348   0.279  15.408  0.3055 -0.1942 -0.2365
11066TIP3    H154689   2.432   0.236  15.392 -0.4775 -2.0907  0.4167
11066TIP3    H254690   2.318   0.242  15.491 -1.6355 -0.3469 -0.9518
11067TIP3   OH254691   3.830   4.475  14.140 -0.6012 -0.4184  0.1038
11067TIP3    H154692   3.854   4.510  14.054 -1.5019 -0.2836 -0.1038
11067TIP3    H254693   3.735   4.469  14.137 -0.5224 -2.3080  0.3713
11068TIP3   OH254694   3.863   0.390  13.551 -0.1596 -0.1830 -0.7971
11068TIP3    H154695   3.949   0.415  13.519 -0.7991 -0.4715 -2.9111
11068TIP3    H254696   3.821   0.348  13.476 -1.7968 -0.8932  0.4618
11069TIP3   OH254697   1.207   3.896  14.662  0.2372 -0.0618  0.7197
11069TIP3    H154698   1.202   3.885  14.757  0.7782  0.2547  0.7890
11069TIP3    H254699   1.118   3.920  14.636  0.2450  0.5473  1.2414
11070TIP3   OH254700   3.179   4.397   1.068 -0.0034 -0.6498 -0.6253
11070TIP3    H154701   3.109   4.371   1.127  0.8014  0.1898  0.7570
11070TIP3    H254702   3.135   4.439   0.994 -0.9376  1.8885  1.2329
11071TIP3   OH254703   0.965   2.102  16.449 -0.4132 -0.0303  0.4349
11071TIP3    H154704   0.889   2.105  16.507 -0.4509  1.2193  0.3462
11071TIP3    H254705   0.929   2.113  16.361 -0.2265 -0.4676  0.3045
11072TIP3   OH254706   2.581   1.690  11.461 -0.0942 -0.0297  0.4558
11072TIP3    H154707   2.588   1.594  11.456  1.5357  0.0563  0.6113
11072TIP3    H254708   2.667   1.719  11.490 -0.7089  1.4717  0.8574
11073TIP3   OH254709   5.144   5.810  11.692  0.3587 -0.2203 -0.5989
11073TIP3    H154710   5.089   5.749  11.643 -0.2486 -0.6585  0.5930
11073TIP3    H254711   5.232   5.797  11.657 -0.2376  0.4222 -2.4747
11074TIP3   OH254712   3.030   1.825  13.642  0.0468 -0.2353 -0.2699
11074TIP3    H154713   3.065   1.737  13.630  0.0404 -0.2555 -0.1432
11074TIP3    H254714   3.076   1.879  13.578 -0.1605 -0.3878 -0.5475
11075TIP3   OH254715   6.388   2.090   0.179  0.0068  0.3676 -0.0581
11075TIP3    H154716   6.373   2.095   0.085 -1.3683 -0.5413  0.0933
11075TIP3    H254717   6.318   2.034   0.212  0.5078  0.6121  1.5021
11076TIP3   OH254718   4.712   4.344   2.297  0.2053  0.0810  0.4170
11076TIP3    H154719   4.659   4.266   2.318  0.8234 -0.5744 -0.3794
11076TIP3    H254720   4.685   4.368   2.209 -0.8135  1.4988  1.0742
11077TIP3   OH254721   6.802   0.948   0.290 -0.2881 -0.2095 -0.0538
11077TIP3    H154722   6.788   0.996   0.208  0.4153 -1.3274 -0.8472
11077TIP3    H254723   6.876   0.992   0.332 -0.1867 -0.0809 -0.3684
11078TIP3   OH254724   0.850   4.125   4.415 -0.0935  0.5398 -0.0025
11078TIP3    H154725   0.777   4.140   4.476 -0.3510  1.3892 -0.5171
11078TIP3    H254726   0.911   4.196   4.433  0.8684 -0.4477  0.7767
11079TIP3   OH254727   4.540   4.913  13.351  0.3985 -0.0865  0.1904
11079TIP3    H154728   4.458   4.915  13.301  0.5085 -0.5066 -0.0120
11079TIP3    H254729   4.535   4.989  13.408 -0.6167 -0.6842  0.9323
11080TIP3   OH254730   0.784   6.481   4.489  0.0985  0.1302 -0.1005
11080TIP3    H154731   0.872   6.507   4.518  0.8707 -0.0895 -2.0440
11080TIP3    H254732   0.789   6.386   4.480 -0.9367 -0.1081  1.5005
11081TIP3   OH254733   4.829   6.484   2.270 -0.2711 -0.1234 -0.5530
11081TIP3    H154734   4.891   6.463   2.201 -0.8542 -0.1257 -1.0904
11081TIP3    H254735   4.750   6.511   2.223 -0.7770 -0.4230  0.1156
11082TIP3   OH254736   6.244   3.385  11.196 -0.0622 -0.4462  0.1364
11082TIP3    H154737   6.239   3.314  11.132 -0.7314 -0.1764 -0.1244
11082TIP3    H254738   6.276   3.460  11.146  3.1450 -1.1370  0.9327
11083TIP3   OH254739   0.003   0.606  17.092  0.3574  0.2164 -0.0146
11083TIP3    H154740   0.036   0.628  17.179  0.4362  0.7325 -0.1721
11083TIP3    H254741   0.078   0.620  17.034  0.0914  0.6065 -0.2637
11084TIP3   OH254742   0.233   0.393   3.736  0.0476  0.0007 -0.5645
11084TIP3    H154743   0.153   0.340   3.742 -0.3256  0.5749 -0.3605
11084TIP3    H254744   0.220   0.446   3.657  0.5143 -0.3579 -0.8893
11085TIP3   OH254745   4.351   0.907  12.637  0.2259  0.1808  0.1333
11085TIP3    H154746   4.301   0.840  12.589  0.0117  0.5660 -0.1859
11085TIP3    H254747   4.352   0.982  12.578  0.8283  0.3180  0.3161
11086TIP3   OH254748   6.053   2.536  14.627  0.0550  0.2408  0.3532
11086TIP3    H154749   6.044   2.448  14.590  0.0128  0.2889  0.2500
11086TIP3    H254750   6.077   2.591  14.552  0.0210  0.3283  0.4070
11087TIP3   OH254751   3.038   5.312  16.808  0.3388  0.6525  0.6860
11087TIP3    H154752   3.046   5.266  16.891  0.9122 -0.5806 -0.0232
11087TIP3    H254753   3.128   5.320  16.776  0.0864  0.6407 -0.0533
11088TIP3   OH254754   3.051   2.572   5.993 -0.1985  0.6812  0.2070
11088TIP3    H154755   3.137   2.614   5.996 -0.7153  2.0222 -1.7861
11088TIP3    H254756   2.989   2.643   6.008 -1.0375  0.3588 -1.4769
11089TIP3   OH254757   2.836   2.398   1.154 -0.3849 -0.3754  0.0345
11089TIP3    H154758   2.931   2.390   1.167 -0.7152 -0.7068  2.6273
11089TIP3    H254759   2.818   2.338   1.081  1.4153 -0.0641 -0.7289
11090TIP3   OH254760   3.995   0.342  16.232 -0.0451 -0.2355 -0.3481
11090TIP3    H154761   4.088   0.364  16.226  0.0949 -0.7851 -0.2114
11090TIP3    H254762   3.979   0.284  16.158 -0.1097 -0.7306  0.0500
11091TIP3   OH254763   5.506   6.282  17.013 -0.2901  0.3822  0.1653
11091TIP3    H154764   5.581   6.232  16.982 -0.0308  0.8229  0.0866
11091TIP3    H254765   5.439   6.270  16.946 -0.4873 -0.4576  0.4958
11092TIP3   OH254766   1.068   4.599  13.010  0.0718 -0.1642  0.9194
11092TIP3    H154767   1.148   4.644  13.040  0.3792  0.6493 -0.9557
11092TIP3    H254768   0.997   4.660  13.030  0.0703 -0.3233  1.4122
11093TIP3   OH254769   4.016   5.113   1.014 -0.3178 -0.1419  0.0626
11093TIP3    H154770   4.047   5.037   1.063 -0.0297  0.6948  1.1900
11093TIP3    H254771   4.089   5.135   0.956  0.8800  1.1628  1.9492
11094TIP3   OH254772   2.435   0.239   2.366  0.3497  0.1102  0.1799
11094TIP3    H154773   2.525   0.273   2.372  0.3097  0.5518 -1.3140
11094TIP3    H254774   2.396   0.288   2.294 -1.1868  0.0920  0.9664
11095TIP3   OH254775   3.750   4.172  13.376 -0.2677  0.1280 -0.0228
11095TIP3    H154776   3.750   4.134  13.288 -3.7104  1.9163 -1.0257
11095TIP3    H254777   3.664   4.149  13.412  0.5155  0.6212  2.3362
11096TIP3   OH254778   3.389   2.301   0.401  0.4970 -0.4821 -0.2008
11096TIP3    H154779   3.322   2.316   0.334  0.6326  2.0298  0.1330
11096TIP3    H254780   3.341   2.267   0.476 -0.5017  1.3822  0.0691
11097TIP3   OH254781   0.837   2.277  12.646  0.1111  0.0877 -0.3636
11097TIP3    H154782   0.887   2.360  12.648 -0.1144  0.2176 -0.0826
11097TIP3    H254783   0.903   2.211  12.624  0.9254 -0.0870  2.2147
11098TIP3   OH254784   1.924   0.545  11.970 -0.7456 -0.2561  0.4828
11098TIP3    H154785   1.858   0.564  12.037 -0.9657  1.1074 -0.0795
11098TIP3    H254786   1.948   0.631  11.937  0.0827 -0.8581 -0.5063
11099TIP3   OH254787   5.862   3.526   1.414  0.0858 -0.3809 -0.1008
11099TIP3    H154788   5.800   3.471   1.461  1.0235 -1.8562 -0.5129
11099TIP3    H254789   5.871   3.604   1.468 -1.0402 -0.7620  0.6742
11100TIP3   OH254790   2.810   1.790   4.754  0.3454  0.8514 -0.3738
11100TIP3    H154791   2.729   1.794   4.806  0.0417 -2.0316 -0.5105
11100TIP3    H254792   2.880   1.780   4.819 -0.0793 -3.2952 -0.3264
11101TIP3   OH254793   4.564   5.346  16.033 -1.1616 -0.4525 -0.0802
11101TIP3    H154794   4.598   5.348  16.123  0.4742  1.8526 -0.6283
11101TIP3    H254795   4.643   5.339  15.979 -1.8097  1.2594 -1.3418
11102TIP3   OH254796   6.263   1.757  13.102  0.2332 -0.3216 -0.2870
11102TIP3    H154797   6.334   1.697  13.124 -0.1424 -0.9356 -0.7081
11102TIP3    H254798   6.190   1.728  13.156 -0.1982 -0.7861 -1.1063
11103TIP3   OH254799   1.547   6.563   5.845  0.0789  0.5678 -0.4351
11103TIP3    H154800   1.571   6.507   5.771  0.9453  0.8186 -0.3496
11103TIP3    H254801   1.595   6.526   5.920  0.2968  1.1504 -0.2839
11104TIP3   OH254802   2.951   6.412  16.850 -0.5222  0.2807 -0.4123
11104TIP3    H154803   2.887   6.408  16.921 -0.0764  0.9372  0.0429
11104TIP3    H254804   2.930   6.338  16.794 -0.3592 -0.7585  0.8555
11105TIP3   OH254805   1.764   0.559   5.604  0.0357 -0.6659  0.2038
11105TIP3    H154806   1.776   0.620   5.531  1.2921  0.0431  0.9439
11105TIP3    H254807   1.853   0.545   5.637 -0.4874 -1.0634  1.5045
11106TIP3   OH254808   6.532   2.051  13.589 -0.1070  0.0539  0.4226
11106TIP3    H154809   6.447   2.093  13.574  0.1890  0.2655 -0.8013
11106TIP3    H254810   6.534   1.978  13.527  1.4341  1.3116 -1.1366
11107TIP3   OH254811   4.881   0.365   6.099  0.6357  0.3749 -0.5293
11107TIP3    H154812   4.816   0.367   6.029  0.8875  1.5929 -0.7517
11107TIP3    H254813   4.893   0.457   6.124  0.7349 -0.0101  0.9461
11108TIP3   OH254814   1.439   2.896  14.936  0.5679  0.3637 -0.1595
11108TIP3    H154815   1.486   2.971  14.900  1.9523 -0.7798 -0.8416
11108TIP3    H254816   1.507   2.833  14.959 -0.5787 -0.9869 -0.2727
11109TIP3   OH254817   1.375   0.136   3.891  0.2208 -0.2337  0.2117
11109TIP3    H154818   1.406   0.052   3.857 -1.6734  0.2534 -3.1080
11109TIP3    H254819   1.281   0.124   3.905  0.2270  0.8537  1.4162
11110TIP3   OH254820   3.601   0.119  12.288 -0.1710 -0.0549 -0.4012
11110TIP3    H154821   3.638   0.104  12.375  0.2446 -1.7092 -0.8200
11110TIP3    H254822   3.545   0.195  12.298 -1.2638 -1.0488  1.6761
11111TIP3   OH254823   1.815   5.403  11.731  0.3675  0.8761  0.4703
11111TIP3    H154824   1.911   5.410  11.728  0.4274  0.6998  1.5454
11111TIP3    H254825   1.793   5.429  11.820 -0.6029  1.0325  0.1877
11112TIP3   OH254826   4.026   4.577  11.735  0.1634 -0.0730 -0.2603
11112TIP3    H154827   4.032   4.509  11.802 -2.3404  1.3888  1.6652
11112TIP3    H254828   4.105   4.629  11.746  0.5757 -0.8268  0.4532
11113TIP3   OH254829   2.479   2.909   4.559  0.4807 -0.1696  0.4216
11113TIP3    H154830   2.500   2.848   4.488  0.5592  0.3908 -0.0408
11113TIP3    H254831   2.556   2.908   4.616  0.8153  0.1058 -0.0177
11114TIP3   OH254832   6.137   4.051  16.147 -0.1884  0.0040  0.5971
11114TIP3    H154833   6.048   4.019  16.164 -0.9025  0.6506 -1.6235
11114TIP3    H254834   6.126   4.144  16.127  1.0540  0.1718  0.6158
11115TIP3   OH254835   5.959   0.709  12.700 -0.1713  0.3550  0.3330
11115TIP3    H154836   6.017   0.680  12.770 -0.8024  1.0022  1.1462
11115TIP3    H254837   5.947   0.632  12.645 -0.9243 -0.6378  1.8141
11116TIP3   OH254838   1.393   0.826   5.859 -0.2987 -0.0978  0.3631
11116TIP3    H154839   1.372   0.846   5.768  0.6454 -1.6992 -0.2357
11116TIP3    H254840   1.402   0.731   5.862 -0.3145 -0.0762  2.1379
11117TIP3   OH254841   1.700   4.853  11.510 -0.0775 -0.1629  0.4479
11117TIP3    H154842   1.791   4.883  11.503  0.4340 -1.7405 -0.1381
11117TIP3    H254843   1.670   4.887  11.595  0.9839  0.5786  0.5389
11118TIP3   OH254844   5.798   5.974  13.469 -0.2826 -0.3100  0.2713
11118TIP3    H154845   5.736   6.013  13.407  0.8773  1.9344  0.4494
11118TIP3    H254846   5.884   5.996  13.435  0.3978  1.2940  2.8164
11119TIP3   OH254847   0.034   6.251  14.078  0.6340  0.0012  0.1639
11119TIP3    H154848   0.074   6.247  13.991  1.0561 -1.9079  0.3945
11119TIP3    H254849   0.084   6.318  14.125  1.2816  0.1041 -0.6552
11120TIP3   OH254850   4.145   3.828   3.787 -0.6998 -0.1655 -0.3548
11120TIP3    H154851   4.119   3.834   3.879 -0.5796 -0.9006 -0.2726
11120TIP3    H254852   4.112   3.744   3.758  0.4832 -0.5661 -0.5954
11121TIP3   OH254853   0.454   5.239   1.421 -0.4858  0.2736 -0.0557
11121TIP3    H154854   0.418   5.191   1.347 -0.0353 -0.0826 -0.0460
11121TIP3    H254855   0.516   5.300   1.382 -0.0888 -0.0636  0.0445
11122TIP3   OH254856   2.760   6.057   4.824  0.0538  0.4772  0.0859
11122TIP3    H154857   2.759   6.147   4.856  0.7515  0.8206 -0.8042
11122TIP3    H254858   2.668   6.037   4.807 -0.2637  0.5374  1.5371
11123TIP3   OH254859   4.670   2.990   3.241 -0.4742  0.0008 -0.1377
11123TIP3    H154860   4.684   2.954   3.154 -0.2638  1.3123 -0.6727
11123TIP3    H254861   4.657   2.914   3.297 -0.2952 -0.8743 -1.2560
11124TIP3   OH254862   4.182   6.807  15.224  0.4112  0.1190 -0.1250
11124TIP3    H154863   4.109   6.816  15.284  0.2520  0.5719 -0.3833
11124TIP3    H254864   4.201   6.713  15.223 -1.4213 -0.2907 -1.5330
11125TIP3   OH254865   3.919   5.277   0.591  0.5761  0.6436  0.1296
11125TIP3    H154866   3.888   5.257   0.680  2.2679  2.2229  1.1469
11125TIP3    H254867   3.968   5.359   0.601 -0.0043  1.3853 -2.4739
11126TIP3   OH254868   4.597   6.684  11.511  0.4943  0.2702  0.5910
11126TIP3    H154869   4.621   6.612  11.452 -0.9411  0.0892  0.1831
11126TIP3    H254870   4.680   6.724  11.535  1.1319  0.8017 -2.1412
11127TIP3   OH254871   5.426   1.224  12.776  0.7434  0.0935 -0.5060
11127TIP3    H154872   5.385   1.247  12.860  0.8427  0.5075 -0.5706
11127TIP3    H254873   5.520   1.235  12.792  0.7227  0.9119 -0.8889
11128TIP3   OH254874   1.064   2.769   1.391  0.0607  0.0715  0.0691
11128TIP3    H154875   1.008   2.846   1.401  1.0008  0.6064  1.6483
11128TIP3    H254876   1.004   2.695   1.394 -0.6301  0.6493  1.3059
11129TIP3   OH254877   6.290   5.234  15.445 -0.1405 -0.0539 -0.0923
11129TIP3    H154878   6.310   5.282  15.365 -0.6264 -1.2311 -0.9523
11129TIP3    H254879   6.370   5.188  15.466 -0.0533  0.1502  0.0254
11130TIP3   OH254880   0.874   3.453  11.641  0.2797  0.1042  0.2569
11130TIP3    H154881   0.784   3.487  11.637 -0.1063 -0.9978 -0.6166
11130TIP3    H254882   0.883   3.397  11.564  1.2536 -0.9464  1.1043
11131TIP3   OH254883   0.884   1.595   4.791 -0.4668  0.0279 -0.3967
11131TIP3    H154884   0.812   1.546   4.750 -0.0865 -0.5438 -0.3892
11131TIP3    H254885   0.847   1.682   4.807 -1.3440 -0.4261  0.1326
11132TIP3   OH254886   4.598   2.195   2.166  0.0698  0.1526 -0.0492
11132TIP3    H154887   4.622   2.128   2.230 -1.1547 -0.1739  0.0778
11132TIP3    H254888   4.678   2.247   2.156  0.2574  0.3163  1.8861
11133TIP3   OH254889   1.697   2.248  12.552  0.4471  0.1222  0.4356
11133TIP3    H154890   1.657   2.192  12.619 -0.8314 -1.3268 -1.4341
11133TIP3    H254891   1.629   2.260  12.487  1.4292  2.0741 -0.3174
11134TIP3   OH254892   3.373   0.964   1.639 -0.2139 -0.3570 -0.1194
11134TIP3    H154893   3.402   1.051   1.609 -0.8387 -0.1474 -0.1303
11134TIP3    H254894   3.453   0.922   1.670 -0.1196  0.7576  1.2305
11135TIP3   OH254895   6.112   0.121   5.345  0.8017  0.1180 -0.2252
11135TIP3    H154896   6.158   0.056   5.291 -0.0404 -1.6485  1.0657
11135TIP3    H254897   6.126   0.091   5.435 -0.9389  0.8413  0.3243
11136TIP3   OH254898   1.932   2.240   1.488  0.5586  0.1166 -1.0876
11136TIP3    H154899   2.015   2.247   1.535  0.5602 -1.5019 -0.7778
11136TIP3    H254900   1.887   2.322   1.507  1.8216  0.7637 -0.7535
11137TIP3   OH254901   2.932   5.554   2.950  0.0844  0.0871 -0.6775
11137TIP3    H154902   2.845   5.543   2.988 -0.0842 -0.1489 -1.1316
11137TIP3    H254903   2.919   5.609   2.874  0.4292  0.5700 -0.3896
11138TIP3   OH254904   5.303   6.579  10.611  0.2219 -0.5985 -0.6344
11138TIP3    H154905   5.320   6.650  10.549  0.2807  0.1842  0.2654
11138TIP3    H254906   5.211   6.557  10.597 -0.3671  1.0212  0.4371
11139TIP3   OH254907   3.483   6.160   1.943  0.4508  0.0307  0.2598
11139TIP3    H154908   3.402   6.189   1.986  1.2123  2.4578  0.2124
11139TIP3    H254909   3.495   6.222   1.871  0.7613 -2.1738 -1.7091
11140TIP3   OH254910   5.686   3.617   5.701 -0.1698  0.6039 -0.0091
11140TIP3    H154911   5.739   3.577   5.633  1.0705  0.8055  0.8132
11140TIP3    H254912   5.749   3.656   5.762 -1.1618 -0.4971  1.8241
11141TIP3   OH254913   2.511   6.680  13.509  0.0327 -0.6672  0.9171
11141TIP3    H154914   2.540   6.766  13.541  1.1614 -1.9255  3.5121
11141TIP3    H254915   2.423   6.670  13.545 -1.0438  0.2690 -1.2742
11142TIP3   OH254916   1.496   1.893   2.108  0.2271  0.0959 -0.5988
11142TIP3    H154917   1.518   1.958   2.175 -0.6800 -0.6039  0.4186
11142TIP3    H254918   1.401   1.899   2.099  0.0747 -1.3263 -0.2022
11143TIP3   OH254919   5.310   4.735   0.169 -0.0458 -0.4087  0.3339
11143TIP3    H154920   5.256   4.689   0.105 -0.2776  1.3438 -0.7897
11143TIP3    H254921   5.384   4.768   0.119 -0.6073  1.6240  0.7771
11144TIP3   OH254922   1.376   4.476   4.940  0.1007 -0.1697  0.3475
11144TIP3    H154923   1.472   4.478   4.942  0.0971  0.3912  2.7399
11144TIP3    H254924   1.354   4.491   4.848  2.2990 -0.9157 -0.3732
11145TIP3   OH254925   2.164   4.985   5.405  0.0419 -0.1346  0.4783
11145TIP3    H154926   2.106   4.916   5.439 -0.3829  1.0071  2.1643
11145TIP3    H254927   2.111   5.064   5.407  1.2556  0.6912  0.7886
11146TIP3   OH254928   2.416   1.491  15.909 -0.0316 -0.6264  0.0479
11146TIP3    H154929   2.480   1.545  15.864 -0.0129  1.2996  2.2046
11146TIP3    H254930   2.353   1.467  15.841  0.6949  1.0196 -1.2787
11147TIP3   OH254931   1.553   0.947  10.873 -0.1499  0.7260 -0.2617
11147TIP3    H154932   1.480   0.912  10.822  0.4437 -0.2891 -0.4358
11147TIP3    H254933   1.608   0.993  10.810 -0.0028  0.4468 -0.3342
11148TIP3   OH254934   4.530   6.089  14.750 -0.8800  0.0653  0.5210
11148TIP3    H154935   4.498   6.044  14.672 -0.9766 -0.5933  0.9275
11148TIP3    H254936   4.604   6.142  14.719 -0.6327 -0.5412  0.0598
11149TIP3   OH254937   6.510   6.489  12.615  0.2473 -0.1243  0.0326
11149TIP3    H154938   6.419   6.487  12.586  0.6243  0.4450 -1.2155
11149TIP3    H254939   6.556   6.433  12.553  0.9131  0.3571  0.0895
11150TIP3   OH254940   2.626   0.221  12.306  0.6523  0.1158 -0.9577
11150TIP3    H154941   2.664   0.134  12.319  0.8427 -0.0257 -2.2462
11150TIP3    H254942   2.686   0.281  12.351 -0.0570 -0.4927  0.8591
11151TIP3   OH254943   2.884   6.366   6.345 -0.4377  0.3680  0.0185
11151TIP3    H154944   2.890   6.457   6.317 -0.6733  0.8238  1.3792
11151TIP3    H254945   2.796   6.339   6.319 -0.7963  0.9105  0.6328
11152TIP3   OH254946   3.639   2.268   4.224 -0.0768  0.7040 -0.0843
11152TIP3    H154947   3.658   2.318   4.303  1.9457 -0.8406  0.4946
11152TIP3    H254948   3.699   2.302   4.158  0.6020 -0.2261  0.0309
11153TIP3   OH254949   0.938   5.937  12.260  0.4258 -0.2615 -0.1069
11153TIP3    H154950   0.875   5.879  12.218 -0.1818 -0.2373  0.7685
11153TIP3    H254951   0.889   6.017  12.279  0.8698 -0.0224  0.0484
11154TIP3   OH254952   4.053   5.307   3.627  0.7374  0.4236 -0.2532
11154TIP3    H154953   4.047   5.340   3.717  0.4588  1.5040 -0.6545
11154TIP3    H254954   4.058   5.212   3.637  2.3926  0.5926  0.9808
11155TIP3   OH254955   1.668   5.940  10.703  0.1236 -0.2283  0.0016
11155TIP3    H154956   1.574   5.943  10.721  0.3728  1.7278  1.2673
11155TIP3    H254957   1.674   5.947  10.608 -1.0126  2.4437  0.0470
11156TIP3   OH254958   3.366   1.840  13.005  0.5606  0.5351  0.1657
11156TIP3    H154959   3.388   1.792  12.926 -0.0791 -0.5076  0.5982
11156TIP3    H254960   3.308   1.911  12.975 -0.2973 -0.3054 -0.2164
11157TIP3   OH254961   1.908   2.079  12.356 -0.4818  0.0664 -0.3434
11157TIP3    H154962   2.000   2.092  12.336 -0.7268  2.7197 -0.1356
11157TIP3    H254963   1.887   2.148  12.420 -2.4753 -0.7845  0.0092
11158TIP3   OH254964   1.420   0.255  15.685  0.3166 -0.3858  0.0700
11158TIP3    H154965   1.328   0.229  15.683  0.5542 -1.2301 -1.0146
11158TIP3    H254966   1.467   0.180  15.649  1.2217  0.8367 -1.4602
11159TIP3   OH254967   2.199   0.811  15.097  0.4167  0.5030 -0.4048
11159TIP3    H154968   2.156   0.896  15.106  0.1622  0.1370  2.7541
11159TIP3    H254969   2.146   0.751  15.150  1.7715 -1.1684 -0.8612
11160TIP3   OH254970   2.013   0.457   0.534  0.2535 -0.1331  0.7514
11160TIP3    H154971   2.058   0.473   0.617  0.8129 -0.1973  0.4672
11160TIP3    H254972   2.046   0.371   0.506  0.7728  0.2979  0.0133
11161TIP3   OH254973   1.155   5.318  15.214  0.2264 -0.0809 -0.1946
11161TIP3    H154974   1.095   5.373  15.165 -0.1265  1.3143  1.6850
11161TIP3    H254975   1.241   5.336  15.176  0.0417  1.4388  0.0455
11162TIP3   OH254976   2.828   1.602  11.773  0.0430 -0.3950 -0.0615
11162TIP3    H154977   2.833   1.626  11.866  0.1474  0.3274 -0.2478
11162TIP3    H254978   2.760   1.535  11.770  0.3528 -0.7540  0.6032
11163TIP3   OH254979   0.656   2.947   3.196 -0.0239  0.6499  0.1468
11163TIP3    H154980   0.613   2.873   3.153 -1.5857  0.5394  1.7569
11163TIP3    H254981   0.601   3.022   3.174  0.4106  0.9696  0.1588
11164TIP3   OH254982   0.381   3.153   3.579  0.2178 -0.9494  0.5648
11164TIP3    H154983   0.468   3.194   3.571 -0.6682  1.0909  0.7240
11164TIP3    H254984   0.321   3.218   3.543 -1.1986 -2.6747 -0.3042
11165TIP3   OH254985   4.930   5.649  14.171 -0.1358 -0.1057  0.4959
11165TIP3    H154986   4.864   5.582  14.188 -0.1905  0.0934  1.0971
11165TIP3    H254987   4.945   5.645  14.077 -1.0555 -0.1052  0.3437
11166TIP3   OH254988   4.650   3.670  14.795 -0.1592  0.5402  0.0507
11166TIP3    H154989   4.615   3.712  14.716 -0.9259  0.3570  0.2926
11166TIP3    H254990   4.650   3.577  14.775 -0.3198  0.4968  0.2556
11167TIP3   OH254991   6.333   4.175  12.889 -0.5938  0.2254 -0.0580
11167TIP3    H154992   6.248   4.152  12.854 -2.2435  2.6450  1.9654
11167TIP3    H254993   6.336   4.134  12.976 -0.2867  1.2014  0.4101
11168TIP3   OH254994   2.076   2.122  15.608  0.1048 -0.0627 -0.5073
11168TIP3    H154995   2.166   2.156  15.612 -0.8999  2.8049 -0.0647
11168TIP3    H254996   2.085   2.029  15.629  3.0325 -0.0322 -1.1770
11169TIP3   OH254997   3.394   2.107   1.621  0.4863 -0.4607  0.1798
11169TIP3    H154998   3.406   2.021   1.582  0.4397  0.5047 -2.1229
11169TIP3    H254999   3.464   2.161   1.583  0.7175  0.4682  1.8124
11170TIP3   OH255000   1.306   6.390   5.576  0.7317 -0.0733  0.1054
11170TIP3    H155001   1.394   6.418   5.601  0.6621  0.9584 -0.7328
11170TIP3    H255002   1.259   6.472   5.558  0.5877 -0.6641 -2.6905
11171TIP3   OH255003   6.081   1.731   5.560 -0.6911  0.3048 -0.1491
11171TIP3    H155004   6.101   1.811   5.609  0.4000 -1.0102  1.6927
11171TIP3    H255005   5.989   1.713   5.580 -1.1121  1.3656 -1.0371
11172TIP3   OH255006   0.374   2.495  15.898  0.5409 -0.1480  0.0539
11172TIP3    H155007   0.328   2.412  15.882  0.9158 -0.1630 -1.0841
11172TIP3    H255008   0.433   2.504  15.823 -1.8842  2.7759 -1.7312
11173TIP3   OH255009   2.068   5.259   5.444 -0.6067 -0.4621 -0.0425
11173TIP3    H155010   2.048   5.352   5.436 -0.3910 -0.4762 -0.8161
11173TIP3    H255011   2.024   5.232   5.525 -0.0027  0.4776  0.6135
11174TIP3   OH255012   2.066   1.048  15.074 -0.1737  0.2245  0.7904
11174TIP3    H155013   1.999   1.046  15.005  1.1471 -1.0074 -0.5350
11174TIP3    H255014   2.110   1.132  15.064 -1.1374  0.8132  1.3259
11175TIP3   OH255015   3.179   3.328   5.100 -0.1753 -0.3782  0.4841
11175TIP3    H155016   3.130   3.398   5.143 -1.0313  0.2461 -1.4061
11175TIP3    H255017   3.256   3.316   5.155 -0.9779  0.6642  1.9223
11176TIP3   OH255018   5.721   2.418  14.529  0.1626 -0.3704  0.1059
11176TIP3    H155019   5.762   2.338  14.497 -1.7354 -0.9576 -1.0223
11176TIP3    H255020   5.760   2.432  14.615  0.0945 -2.8950  0.6320
11177TIP3   OH255021   3.052   5.118   4.801 -0.4019 -0.1445  0.6616
11177TIP3    H155022   3.126   5.117   4.740 -0.0447  0.3015  1.0745
11177TIP3    H255023   3.043   5.027   4.829 -1.4874 -0.6289 -1.1266
11178TIP3   OH255024   6.231   5.267  16.137 -0.0664  0.2611  0.0824
11178TIP3    H155025   6.224   5.361  16.122 -0.2144  0.0683 -1.1688
11178TIP3    H255026   6.153   5.230  16.096  1.0553 -0.5892 -1.4011
11179TIP3   OH255027   0.121   1.055   3.670  0.1888 -0.3207  0.5509
11179TIP3    H155028   0.120   1.147   3.646  0.9601  0.0103  1.6917
11179TIP3    H255029   0.107   1.008   3.588  2.1901  0.7434 -0.4600
11180TIP3   OH255030   5.791   3.983  12.298  0.5274  0.0842 -0.4000
11180TIP3    H155031   5.733   4.055  12.276 -1.1627 -0.9285  0.4940
11180TIP3    H255032   5.769   3.913  12.236 -1.2946 -1.2857  1.6190
11181TIP3   OH255033   5.696   0.737   0.915 -0.5520  0.5321  0.7315
11181TIP3    H155034   5.634   0.731   0.988 -0.8898 -0.7310  0.3536
11181TIP3    H255035   5.677   0.662   0.860  0.9918  0.3929  0.3348
11182TIP3   OH255036   0.854   2.668  15.520 -0.5751 -0.3648 -0.6845
11182TIP3    H155037   0.853   2.581  15.560  2.3139 -0.3966 -0.5056
11182TIP3    H255038   0.903   2.722  15.582 -1.3890  1.1405 -1.3097
11183TIP3   OH255039   4.404   1.520  12.209 -0.4959  0.6916  0.7787
11183TIP3    H155040   4.463   1.458  12.252  1.9814  2.9066  0.8444
11183TIP3    H255041   4.371   1.473  12.133  1.6481 -0.6136  0.5570
11184TIP3   OH255042   2.431   6.788   0.758 -0.3773  0.2129 -0.2271
11184TIP3    H155043   2.356   6.842   0.733 -1.1405 -2.1584 -3.6276
11184TIP3    H255044   2.401   6.698   0.750  2.2664 -0.8264  0.3232
11185TIP3   OH255045   3.036   3.962  11.288 -0.4557  0.1232 -0.3742
11185TIP3    H155046   3.026   3.883  11.236 -2.8974  0.8199 -1.0758
11185TIP3    H255047   3.058   4.030  11.224  0.3950  0.2683  0.0576
11186TIP3   OH255048   1.257   1.109  15.725  0.8369 -0.3487  0.3116
11186TIP3    H155049   1.186   1.156  15.681  0.1156 -1.2643  0.4720
11186TIP3    H255050   1.331   1.116  15.665  0.2733 -0.3696 -0.3992
11187TIP3   OH255051   6.386   4.086   3.307 -0.3626  0.0829  0.1016
11187TIP3    H155052   6.358   4.044   3.225  0.5550  0.6106 -0.5041
11187TIP3    H255053   6.417   4.172   3.280  2.9825 -0.8710  0.5039
11188TIP3   OH255054   5.986   0.379   2.010 -0.3575  0.0483 -0.4152
11188TIP3    H155055   5.891   0.364   2.013 -0.5678  0.2991 -3.2225
11188TIP3    H255056   5.996   0.472   2.032 -0.4191 -0.5647  2.6068
11189TIP3   OH255057   3.404   2.611  16.385  0.0424  0.0011 -0.0492
11189TIP3    H155058   3.475   2.674  16.395  1.1880 -0.8686 -2.0170
11189TIP3    H255059   3.349   2.623  16.462  0.7845  2.6422  0.1392
11190TIP3   OH255060   1.278   3.083   4.567 -0.0110  0.2106 -0.1173
11190TIP3    H155061   1.227   3.004   4.584 -2.6694  1.8713  0.2740
11190TIP3    H255062   1.304   3.077   4.475  1.6127 -1.9725  0.3987
11191TIP3   OH255063   2.477   1.777   6.357  0.1006 -0.2933 -0.2579
11191TIP3    H155064   2.416   1.724   6.307  1.1125 -1.2050 -0.5507
11191TIP3    H255065   2.520   1.716   6.416 -0.5017  0.6350  1.1888
11192TIP3   OH255066   5.097   1.315   5.645  0.0853 -0.2493  0.0674
11192TIP3    H155067   5.155   1.388   5.622  0.9896 -0.2759  2.0472
11192TIP3    H255068   5.157   1.244   5.668 -0.7848 -1.2118 -0.5536
11193TIP3   OH255069   0.169   1.941  14.047 -0.6965 -0.5988 -0.4503
11193TIP3    H155070   0.089   1.970  14.002 -0.7439  0.3217  0.1856
11193TIP3    H255071   0.155   1.968  14.138  0.3506 -0.4016 -0.3405
11194TIP3   OH255072   5.427   4.181   2.216 -0.8809  0.4168  0.0604
11194TIP3    H155073   5.375   4.240   2.271 -0.2585 -0.6306  1.8418
11194TIP3    H255074   5.511   4.226   2.204 -0.6854  0.2409  0.7620
11195TIP3   OH255075   1.503   1.015   2.163 -0.0641  0.2905  0.2728
11195TIP3    H155076   1.567   1.077   2.129  0.5844 -0.5604 -0.1053
11195TIP3    H255077   1.418   1.053   2.141  0.3001  1.4680  0.8369
11196TIP3   OH255078   2.707   6.830  14.019 -0.0801  0.0481 -0.2260
11196TIP3    H155079   2.645   6.761  13.998  1.5418 -1.9636  1.1861
11196TIP3    H255080   2.727   6.817  14.112  0.4473  2.3021  0.0324
11197TIP3   OH255081   4.251   2.691  13.460 -0.2831 -0.4976 -0.0501
11197TIP3    H155082   4.214   2.779  13.463  1.4696  0.2998 -0.6875
11197TIP3    H255083   4.176   2.633  13.472 -1.2307  1.0769  2.6514
11198TIP3   OH255084   5.150   6.469  16.871  0.0057 -0.3127  0.2125
11198TIP3    H155085   5.088   6.495  16.804  2.0753  0.3091 -1.5916
11198TIP3    H255086   5.100   6.414  16.932 -1.6975 -2.0501 -2.5527
11199TIP3   OH255087   0.467   5.319  14.028 -0.2997 -0.3493 -0.8327
11199TIP3    H155088   0.468   5.381  14.101 -0.3672 -0.0162 -1.1111
11199TIP3    H255089   0.479   5.234  14.068 -0.1881 -0.1514 -0.4464
11200TIP3   OH255090   0.166   0.919  15.165 -0.3437 -0.2202  0.3736
11200TIP3    H155091   0.172   0.827  15.139 -0.7242  0.0451 -0.6848
11200TIP3    H255092   0.099   0.956  15.108 -0.0638  0.7579  0.6627
11201TIP3   OH255093   0.714   6.810   4.727 -0.1570 -0.6409  0.3372
11201TIP3    H155094   0.672   6.870   4.666 -0.1370 -0.9797 -0.0198
11201TIP3    H255095   0.647   6.788   4.791  0.0899  0.4479  0.9934
11202TIP3   OH255096   1.427   0.097  14.094  0.2584  0.0907  0.4529
11202TIP3    H155097   1.405   0.156  14.166  0.8351 -0.6100  1.2209
11202TIP3    H255098   1.516   0.069  14.113 -0.3056 -1.7185  0.5901
11203TIP3   OH255099   6.646   4.930  10.525  0.2437 -0.3690  0.4621
11203TIP3    H155100   6.734   4.967  10.531  0.0029  0.5402 -0.9212
11203TIP3    H255101   6.653   4.843  10.564  1.5259  0.0348  1.1995
11204TIP3   OH255102   4.141   2.355   4.968  0.0641  0.0284  0.0359
11204TIP3    H155103   4.154   2.320   4.881  0.4183 -1.0832  0.5190
11204TIP3    H255104   4.047   2.372   4.974  0.3514  2.6861 -1.4779
11205TIP3   OH255105   0.833   2.989  14.574  0.1076  0.1136 -0.2064
11205TIP3    H155106   0.868   3.000  14.485  0.2102 -0.2893 -0.2173
11205TIP3    H255107   0.803   3.076  14.599  0.5779  0.3397 -0.4260
11206TIP3   OH255108   4.861   2.266   5.764 -0.5342  0.3166 -0.2305
11206TIP3    H155109   4.846   2.295   5.854 -1.1563  0.9079 -0.5094
11206TIP3    H255110   4.838   2.342   5.710 -1.3492 -0.3991 -0.9422
11207TIP3   OH255111   2.103   5.909   0.461  0.5748 -0.8368  0.1211
11207TIP3    H155112   2.188   5.866   0.457  0.9272 -0.1599  0.2327
11207TIP3    H255113   2.077   5.919   0.369  0.1332 -1.9609  0.1055
11208TIP3   OH255114   0.873   2.620   4.752 -0.5570 -0.0028  0.3733
11208TIP3    H155115   0.932   2.671   4.697  0.1199  0.7075  1.7071
11208TIP3    H255116   0.890   2.529   4.727  1.6757  0.1167  1.1963
11209TIP3   OH255117   2.505   5.146   5.468  0.4703 -0.6070  0.2641
11209TIP3    H155118   2.421   5.110   5.497  0.7713 -0.7457  0.9944
11209TIP3    H255119   2.537   5.084   5.403 -0.8690  0.4183 -1.4635
11210TIP3   OH255120   3.652   0.353   3.608 -0.3562  0.1578  0.3115
11210TIP3    H155121   3.609   0.410   3.672  0.1313  0.0722  0.7208
11210TIP3    H255122   3.642   0.399   3.525  0.7550  1.2576  0.7554
11211TIP3   OH255123   6.456   5.635  14.050  0.0677 -0.0481 -0.0330
11211TIP3    H155124   6.450   5.702  14.118 -3.9260  1.7688 -1.8762
11211TIP3    H255125   6.437   5.553  14.095 -0.9334  0.8887  1.3414
11212TIP3   OH255126   0.632   6.011  13.049  0.2522 -0.3872  1.0964
11212TIP3    H155127   0.651   5.919  13.027  0.1500 -0.1052 -0.2935
11212TIP3    H255128   0.682   6.028  13.129  1.5411 -1.2078  0.5007
11213TIP3   OH255129   4.395   6.251  13.719 -0.7125  0.7148  0.5405
11213TIP3    H155130   4.388   6.283  13.809 -0.9610 -2.3569  1.7213
11213TIP3    H255131   4.305   6.253  13.686 -0.5000  2.7017 -0.0259
11214TIP3   OH255132   5.316   0.212  12.124  0.2031  0.5902  0.2868
11214TIP3    H155133   5.318   0.265  12.203 -0.9580  2.4772 -0.8667
11214TIP3    H255134   5.375   0.257  12.063  0.3791 -0.3190 -0.2414
11215TIP3   OH255135   5.564   5.233   0.295  0.7438 -0.0930 -0.5355
11215TIP3    H155136   5.626   5.197   0.232  0.2322  0.2283 -1.2387
11215TIP3    H255137   5.541   5.319   0.259 -0.1824 -0.2506 -0.3528
11216TIP3   OH255138   4.462   3.640  12.267  0.1687 -0.6696  0.1902
11216TIP3    H155139   4.489   3.686  12.188  0.2222 -0.4494  0.3350
11216TIP3    H255140   4.454   3.548  12.240  0.7403 -0.6899  0.0635
11217TIP3   OH255141   5.860   1.450  16.150  0.3384  0.0671  0.1202
11217TIP3    H155142   5.885   1.497  16.230 -0.3851 -0.1047  0.4557
11217TIP3    H255143   5.766   1.434  16.160  0.9589 -3.8408  1.3401
11218TIP3   OH255144   5.139   0.552   1.207 -0.3956  0.3238 -0.4723
11218TIP3    H155145   5.064   0.528   1.153  0.3162 -0.4235 -1.1511
11218TIP3    H255146   5.103   0.558   1.296 -1.2732  0.0515 -0.7972
11219TIP3   OH255147   3.461   4.781  12.975 -0.2542  0.3975 -0.4808
11219TIP3    H155148   3.471   4.755  13.067  0.2217  0.5004 -0.5043
11219TIP3    H255149   3.379   4.739  12.948  1.8899 -3.7138 -1.4129
11220TIP3   OH255150   6.812   4.862  10.845 -0.5066  0.3749 -0.0948
11220TIP3    H155151   6.738   4.890  10.898 -1.0746 -1.9866  0.4709
11220TIP3    H255152   6.790   4.890  10.756 -1.2837  1.1287  0.3248
11221TIP3   OH255153   4.221   0.141   2.097 -0.1259  0.0941  0.2321
11221TIP3    H155154   4.163   0.121   2.171  1.7152 -2.5379  1.1203
11221TIP3    H255155   4.292   0.191   2.135 -0.1389  0.4067 -0.1568
11222TIP3   OH255156   6.799   1.824   1.172  0.4752 -0.0423  0.1907
11222TIP3    H155157   6.781   1.793   1.260 -0.2459 -1.0975 -0.3060
11222TIP3    H255158   6.882   1.872   1.179  0.0966  0.4362  1.5470
11223TIP3   OH255159   5.228   6.138   4.481  0.1770 -0.8600  0.2859
11223TIP3    H155160   5.143   6.145   4.525 -0.1787 -0.7381 -0.3979
11223TIP3    H255161   5.212   6.078   4.408  0.6988 -0.8933  0.1956
11224TIP3   OH255162   4.839   0.618  17.088  0.0159 -0.0060  0.4620
11224TIP3    H155163   4.756   0.571  17.100  0.8160 -1.4877  0.4038
11224TIP3    H255164   4.861   0.606  16.996 -0.0551  1.0035  0.3058
11225TIP3   OH255165   6.446   2.130  10.193  0.0182 -0.9551  0.2209
11225TIP3    H155166   6.432   2.222  10.214  0.5424 -0.7095 -0.4483
11225TIP3    H255167   6.541   2.122  10.184 -0.1049 -1.2900 -0.8930
11226TIP3   OH255168   3.262   3.834  11.382 -0.0523  0.1120  0.8687
11226TIP3    H155169   3.282   3.853  11.290 -0.8447 -1.4224  0.3548
11226TIP3    H255170   3.187   3.889  11.402 -1.0291 -0.8730  0.0234
11227TIP3   OH255171   2.201   1.742   2.542  0.1062 -0.1059 -0.0623
11227TIP3    H155172   2.281   1.715   2.497 -0.2143  0.9295 -1.3501
11227TIP3    H255173   2.187   1.675   2.609  2.7263  0.3423  1.0783
11228TIP3   OH255174   3.471   4.878   1.124  0.7801  0.8902 -0.4154
11228TIP3    H155175   3.522   4.805   1.159  1.6420  1.6199 -0.0909
11228TIP3    H255176   3.497   4.883   1.032  0.1724  0.3441 -0.6223
11229TIP3   OH255177   6.163   3.404  10.801  0.0248 -0.0197  0.3276
11229TIP3    H155178   6.152   3.383  10.894 -1.0406  3.1204  1.0076
11229TIP3    H255179   6.257   3.419  10.791  0.1110 -0.1022  0.9627
11230TIP3   OH255180   5.725   5.086  15.493 -0.5664  0.1465  0.2319
11230TIP3    H155181   5.630   5.078  15.496 -0.7418  1.9850  0.9207
11230TIP3    H255182   5.740   5.172  15.454  0.7741  0.5103  1.4934
11231TIP3   OH255183   6.059   5.785  11.766  0.1104  0.0787  0.1807
11231TIP3    H155184   6.011   5.716  11.720 -0.1628  0.7947 -0.6618
11231TIP3    H255185   5.999   5.814  11.835  0.2476 -0.5589  0.5651
11232TIP3   OH255186   0.329   3.618  13.104  0.0731 -0.1007  0.7893
11232TIP3    H155187   0.363   3.668  13.178  3.5552  1.5103 -1.6511
11232TIP3    H255188   0.247   3.663  13.081 -0.5539 -0.0338  2.9425
11233TIP3   OH255189   6.828   6.662   4.928 -0.1711 -0.1900  0.4417
11233TIP3    H155190   6.852   6.687   4.838 -0.8675  1.5126  0.6961
11233TIP3    H255191   6.816   6.567   4.923  0.3880 -0.2164 -1.1296
11234TIP3   OH255192   6.204   0.798  10.963  0.0091  0.4333  0.2940
11234TIP3    H155193   6.136   0.783  10.897 -0.1165  3.1021 -0.2740
11234TIP3    H255194   6.281   0.823  10.913  0.1736  1.6171  1.0986
11235TIP3   OH255195   1.082   5.008  11.238  0.3609 -0.8031 -0.0893
11235TIP3    H155196   1.058   4.936  11.180 -1.7117  1.3837 -2.2028
11235TIP3    H255197   1.043   4.985  11.323  0.1638 -2.3513 -0.5723
11236TIP3   OH255198   6.493   4.205   0.357 -0.4392  0.3107 -0.1354
11236TIP3    H155199   6.577   4.217   0.400 -0.7151 -1.8081  1.1666
11236TIP3    H255200   6.430   4.248   0.415 -0.4501  0.2917 -0.1329
11237TIP3   OH255201   3.971   2.296  14.045  0.5296  0.0467 -0.2697
11237TIP3    H155202   4.013   2.231  14.101  0.0183  0.2674  0.3805
11237TIP3    H255203   4.043   2.340  14.001  0.9872  0.4194  0.8269
11238TIP3   OH255204   1.999   3.735  11.870  0.1558 -0.5724 -0.1100
11238TIP3    H155205   2.019   3.827  11.856 -1.8088  0.2540  1.9914
11238TIP3    H255206   1.905   3.733  11.889 -0.7644 -3.4855 -3.7582
11239TIP3   OH255207   5.482   2.275  14.610  0.0038 -0.0800 -0.2906
11239TIP3    H155208   5.496   2.205  14.547 -2.1982 -0.5358 -0.3705
11239TIP3    H255209   5.538   2.346  14.580 -0.9586 -0.2869 -2.8252
11240TIP3   OH255210   4.347   4.904   3.652  0.1590 -0.5375 -0.0002
11240TIP3    H155211   4.380   4.988   3.621 -0.4998 -0.7868 -1.4374
11240TIP3    H255212   4.411   4.840   3.621  0.4335 -0.6301  0.7233
11241TIP3   OH255213   2.554   6.483  12.520  0.1214  0.8766  0.1680
11241TIP3    H155214   2.464   6.494  12.490 -0.2425 -0.1609  0.8254
11241TIP3    H255215   2.584   6.403  12.478 -0.4219 -0.6494  2.4905
11242TIP3   OH255216   6.720   5.159  11.930  0.2508  0.2014 -0.0128
11242TIP3    H155217   6.761   5.088  11.980  1.4822  0.0510 -1.1692
11242TIP3    H255218   6.740   5.139  11.838  1.3149  2.4270 -0.3334
11243TIP3   OH255219   6.089   3.903  12.264 -0.0353 -0.0564  0.1409
11243TIP3    H155220   6.025   3.835  12.286  1.5893 -1.2980  1.2402
11243TIP3    H255221   6.039   3.966  12.212 -1.1886 -2.9769 -2.5884
11244TIP3   OH255222   3.506   1.691   2.035 -0.1713  0.3617  0.0103
11244TIP3    H155223   3.437   1.745   1.996  0.7672  2.9390  1.6336
11244TIP3    H255224   3.546   1.645   1.961 -1.8057  0.9452 -1.2971
11245TIP3   OH255225   0.301   5.792  14.620 -0.8246 -0.1455 -0.2898
11245TIP3    H155226   0.309   5.696  14.619 -0.1617 -0.1737  2.0582
11245TIP3    H255227   0.244   5.812  14.545 -1.0435 -2.3692 -0.7888
11246TIP3   OH255228   5.361   0.609  12.218  0.2224  0.0158  0.4013
11246TIP3    H155229   5.428   0.597  12.151 -0.3947  2.5149 -0.7848
11246TIP3    H255230   5.392   0.684  12.270 -1.7509  1.5065 -0.4345
11247TIP3   OH255231   1.627   3.742   1.511 -0.2264  0.1054 -0.4419
11247TIP3    H155232   1.601   3.665   1.562 -1.2748  1.5737  1.3920
11247TIP3    H255233   1.670   3.799   1.575 -0.1489  1.3695 -1.5757
11248TIP3   OH255234   0.787   2.469  11.331 -0.2717  0.3607 -0.4077
11248TIP3    H155235   0.868   2.438  11.371 -0.3513 -1.3266 -1.4197
11248TIP3    H255236   0.812   2.551  11.287  0.1661  1.3994  1.6718
11249TIP3   OH255237   3.951   2.140   3.844  0.6134  0.2310  0.1394
11249TIP3    H155238   3.970   2.157   3.751  1.9432  0.2228  0.3811
11249TIP3    H255239   3.968   2.047   3.855  0.5608  0.2535  0.4102
11250TIP3   OH255240   5.309   3.889   1.551 -0.1982  0.3708  1.1625
11250TIP3    H155241   5.297   3.796   1.531 -0.4754  0.2568  1.8348
11250TIP3    H255242   5.403   3.900   1.559 -0.2277 -0.1632  2.4862
11251TIP3   OH255243   5.944   6.796   3.958  0.2801 -0.1513 -0.1400
11251TIP3    H155244   6.009   6.831   3.897 -0.7504  0.0503 -1.1614
11251TIP3    H255245   5.986   6.718   3.996  0.0924 -1.7044 -2.8955
11252TIP3   OH255246   5.145   5.024  14.761 -0.1813  0.2311 -0.3999
11252TIP3    H155247   5.088   4.970  14.816 -0.5788 -0.5597 -1.5573
11252TIP3    H255248   5.190   4.961  14.704  1.0765  0.9386 -0.2195
11253TIP3   OH255249   4.053   1.198   1.842 -0.0425 -0.1315 -0.2755
11253TIP3    H155250   4.016   1.111   1.833 -1.1676  0.3636 -0.5591
11253TIP3    H255251   4.089   1.218   1.755 -1.1090  0.2581 -0.6484
11254TIP3   OH255252   5.856   3.695  12.731 -0.0572 -0.1327 -0.9151
11254TIP3    H155253   5.767   3.662  12.740 -0.2846  0.3937 -1.1610
11254TIP3    H255254   5.851   3.758  12.659  0.9356 -1.5608 -2.2741
11255TIP3   OH255255   3.595   0.772   2.569 -0.4934 -0.1083  0.2004
11255TIP3    H155256   3.551   0.741   2.490 -0.5712 -0.9521  0.5650
11255TIP3    H255257   3.685   0.791   2.541 -1.0352  1.5440 -0.5281
11256TIP3   OH255258   0.652   0.417  12.622  0.1596 -0.5490  0.4398
11256TIP3    H155259   0.671   0.495  12.571  0.0276 -0.0641  1.1266
11256TIP3    H255260   0.558   0.405  12.614  0.4666 -2.2845 -1.9931
11257TIP3   OH255261   5.803   6.000  14.184  0.0762 -0.0239  0.7900
11257TIP3    H155262   5.795   5.957  14.099 -0.7736 -0.1676  0.9371
11257TIP3    H255263   5.755   6.082  14.174  1.9750  1.0961  0.4015
11258TIP3   OH255264   6.637   1.053   5.443 -0.3624 -0.2322  0.0285
11258TIP3    H155265   6.717   1.010   5.474  0.9617  0.3348 -2.3814
11258TIP3    H255266   6.576   0.981   5.429  0.1218 -0.8036  0.7299
11259TIP3   OH255267   0.786   4.148  15.181 -0.0985 -0.0777 -0.3851
11259TIP3    H155268   0.698   4.142  15.142 -0.2367 -0.7275  0.0086
11259TIP3    H255269   0.785   4.230  15.230 -0.3339  0.1430 -0.7529
11260TIP3   OH255270   2.307   3.791   1.843  0.0394  0.1501  0.2860
11260TIP3    H155271   2.331   3.719   1.901  0.7411  0.2377  0.1166
11260TIP3    H255272   2.247   3.845   1.894  0.7854  0.3254  0.9999
11261TIP3   OH255273   1.898   2.525   4.140  0.8641  0.1784  0.1894
11261TIP3    H155274   1.898   2.601   4.198  1.3831  0.2815  0.0606
11261TIP3    H255275   1.939   2.557   4.059 -0.2597  0.1600 -0.4036
11262TIP3   OH255276   6.819   1.530   1.071 -0.2549 -0.2022  0.1263
11262TIP3    H155277   6.804   1.619   1.104  0.6278 -0.2484  0.7006
11262TIP3    H255278   6.868   1.542   0.990  2.3655 -0.1899  1.6182
11263TIP3   OH255279   3.003   3.785  16.648 -0.0240 -0.2755 -0.0192
11263TIP3    H155280   3.013   3.876  16.675  3.4028 -0.9650  1.5317
11263TIP3    H255281   3.043   3.734  16.719 -1.7117 -3.0415 -0.8706
11264TIP3   OH255282   2.488   6.386   5.029  0.0194  0.2445  0.4069
11264TIP3    H155283   2.400   6.404   4.997  0.9980  2.0582 -1.5017
11264TIP3    H255284   2.483   6.297   5.064 -2.3939  0.0737 -0.2142
11265TIP3   OH255285   5.447   0.367  16.135  0.0140 -0.0634  0.0691
11265TIP3    H155286   5.451   0.456  16.170 -1.7012 -0.2445  0.8311
11265TIP3    H255287   5.363   0.364  16.089  1.1757 -0.5578 -2.1157
11266TIP3   OH255288   3.551   1.614   4.072 -0.1447  0.2378  0.3300
11266TIP3    H155289   3.601   1.550   4.022  1.5243 -0.2292  2.4296
11266TIP3    H255290   3.607   1.635   4.146 -2.2630  1.2742  1.7411
11267TIP3   OH255291   1.517   4.386   3.650  0.3903 -0.3506 -0.2877
11267TIP3    H155292   1.599   4.351   3.686  0.5981  3.1783  3.4926
11267TIP3    H255293   1.448   4.344   3.703  0.0513 -0.5501 -0.8812
11268TIP3   OH255294   6.214   2.563   0.563 -0.5169  1.1631 -0.3511
11268TIP3    H155295   6.174   2.479   0.585  2.6563 -0.9027 -1.6598
11268TIP3    H255296   6.205   2.616   0.642 -2.3434 -0.5045  0.6390
11269TIP3   OH255297   4.168   2.066  12.778  0.1131  0.6314 -0.0933
11269TIP3    H155298   4.229   2.136  12.755  0.4272  0.3981  0.0113
11269TIP3    H255299   4.147   2.024  12.695  1.1171 -0.1067  0.0091
11270TIP3   OH255300   6.106   5.844   3.996 -0.4422  0.3132  0.4505
11270TIP3    H155301   6.109   5.830   3.901 -0.4297 -0.8639  0.6172
11270TIP3    H255302   6.094   5.939   4.005  1.7386  0.7745 -0.7057
11271TIP3   OH255303   6.133   2.918   2.062  0.4607  0.0763 -0.3481
11271TIP3    H155304   6.165   2.859   1.994  0.3117 -0.5411  0.1103
11271TIP3    H255305   6.123   2.863   2.139 -2.1502  0.1029 -0.5730
11272TIP3   OH255306   3.254   4.295  12.947  0.0231 -0.1562 -0.4352
11272TIP3    H155307   3.272   4.378  12.991 -1.3587 -0.4572  0.8126
11272TIP3    H255308   3.158   4.289  12.945  0.0877 -1.6629 -0.5694
11273TIP3   OH255309   1.231   1.042   3.251 -0.0059 -0.1869  0.5135
11273TIP3    H155310   1.168   1.084   3.192 -1.4998 -1.1759  1.3597
11273TIP3    H255311   1.234   1.100   3.328 -0.3821 -0.4627  0.7404
11274TIP3   OH255312   0.358   4.347   4.432 -0.1115  0.2842  0.1535
11274TIP3    H155313   0.348   4.370   4.524 -1.7753 -2.2512  0.7201
11274TIP3    H255314   0.295   4.401   4.386 -1.6183 -0.6777  0.9974
11275TIP3   OH255315   0.921   2.340  10.765 -0.4534  0.3211 -0.4511
11275TIP3    H155316   1.014   2.345  10.785 -0.4150  1.1206 -0.7851
11275TIP3    H255317   0.917   2.333  10.670 -0.6980 -1.4956 -0.3539
11276TIP3   OH255318   6.174   3.802  14.395  0.7467  0.0027 -0.0782
11276TIP3    H155319   6.174   3.707  14.411 -0.1323  0.2066  1.3444
11276TIP3    H255320   6.086   3.820  14.361  0.4244  0.4707  0.9561
11277TIP3   OH255321   3.616   3.350   1.639  0.3069 -0.0274  0.2014
11277TIP3    H155322   3.531   3.318   1.667  0.9118 -2.0885 -0.1659
11277TIP3    H255323   3.597   3.418   1.575 -1.0651 -0.5332  0.0527
11278TIP3   OH255324   2.407   1.078   4.225  0.4007  0.1287  0.2822
11278TIP3    H155325   2.342   1.040   4.166  1.2122 -1.2150  0.2142
11278TIP3    H255326   2.382   1.170   4.231 -0.5562 -0.0113 -1.0012
11279TIP3   OH255327   0.126   4.466   0.552  0.8062 -0.0279  0.0011
11279TIP3    H155328   0.054   4.529   0.549  0.1457 -0.6073  1.8926
11279TIP3    H255329   0.122   4.420   0.468  2.0253  3.1027 -1.9565
11280TIP3   OH255330   3.578   6.436   2.635  0.4274 -0.2588  0.0785
11280TIP3    H155331   3.568   6.399   2.723 -2.7821  0.0211 -0.0707
11280TIP3    H255332   3.601   6.361   2.580  0.4873 -0.8092  0.8374
11281TIP3   OH255333   4.596   3.975   4.050  1.1189 -0.6851 -0.6143
11281TIP3    H155334   4.624   4.062   4.078  0.4605 -0.3781 -0.9043
11281TIP3    H255335   4.501   3.981   4.044  1.0736 -1.4068 -0.7074
11282TIP3   OH255336   5.376   5.657  11.825 -0.1417 -0.3547  0.2478
11282TIP3    H155337   5.400   5.698  11.908 -0.0734  0.6149 -0.2356
11282TIP3    H255338   5.280   5.656  11.825 -0.1448 -1.0788  0.6687
11283TIP3   OH255339   6.170   6.704   4.824 -0.0199 -0.0589  0.1830
11283TIP3    H155340   6.222   6.647   4.881  0.8167  0.7765  0.2751
11283TIP3    H255341   6.194   6.792   4.851 -1.3932  0.3486  0.1264
11284TIP3   OH255342   0.655   4.408   4.922  0.0618 -0.4088  0.1709
11284TIP3    H155343   0.629   4.495   4.950  0.6949  0.0083 -0.5226
11284TIP3    H255344   0.607   4.393   4.841 -0.8993 -1.1648  0.8467
11285TIP3   OH255345   0.829   4.906   0.750 -0.2086  0.5280  0.3537
11285TIP3    H155346   0.796   4.830   0.799 -0.6636  1.1625  1.0479
11285TIP3    H255347   0.847   4.872   0.663 -0.0830 -0.4603  0.7525
11286TIP3   OH255348   1.971   5.020  13.976  0.2914 -0.1112  0.6637
11286TIP3    H155349   1.985   4.941  14.029 -0.5998 -0.9772 -0.3166
11286TIP3    H255350   1.891   5.000  13.926  0.5397  1.0751 -0.2320
11287TIP3   OH255351   3.225   0.668   5.171 -0.3541 -0.2462  0.1104
11287TIP3    H155352   3.256   0.637   5.086  0.0251  1.1872 -0.2960
11287TIP3    H255353   3.130   0.653   5.168 -0.7999  2.3574 -1.7502
11288TIP3   OH255354   2.359   0.694  13.169  0.7255 -0.1548  0.0320
11288TIP3    H155355   2.355   0.747  13.249 -0.5861  0.6851 -0.5434
11288TIP3    H255356   2.413   0.619  13.193  3.6863  1.9516  0.5692
11289TIP3   OH255357   1.824   4.815   2.003  0.2190  0.0471  0.5079
11289TIP3    H155358   1.834   4.733   2.051 -2.1119 -0.4766  0.2231
11289TIP3    H255359   1.863   4.881   2.059  0.8273 -1.0440  1.4153
11290TIP3   OH255360   0.743   1.266   1.096 -0.3767 -0.1470  1.2288
11290TIP3    H155361   0.710   1.201   1.158  0.5509  0.0159  1.9364
11290TIP3    H255362   0.715   1.235   1.010 -3.0222  0.4151  1.8025
11291TIP3   OH255363   6.294   0.252   2.162  0.0691 -0.4153  0.1790
11291TIP3    H155364   6.334   0.233   2.077 -0.0910 -0.1121  0.0360
11291TIP3    H255365   6.222   0.189   2.169  0.0520 -0.4078  0.0697
11292TIP3   OH255366   2.918   1.193  16.979  0.3806 -0.1793  0.1637
11292TIP3    H155367   2.977   1.251  16.932 -1.1036 -0.4354 -2.1712
11292TIP3    H255368   2.900   1.122  16.917 -0.6976 -1.2139  1.5948
11293TIP3   OH255369   1.990   4.280   5.627 -0.4005  0.2744  0.4870
11293TIP3    H155370   1.990   4.188   5.653 -0.1898 -0.0221 -0.5014
11293TIP3    H255371   2.045   4.283   5.548 -2.5679  0.7634 -1.0871
11294TIP3   OH255372   4.963   2.430   2.813  0.5891 -0.1478 -0.6862
11294TIP3    H155373   5.001   2.342   2.812  0.5150 -0.2370  0.9390
11294TIP3    H255374   5.038   2.489   2.801  1.0000 -0.3859  0.5354
11295TIP3   OH255375   1.253   3.099  16.105 -0.4352  1.2088  0.5960
11295TIP3    H155376   1.328   3.158  16.107 -0.3868  1.1615  0.1786
11295TIP3    H255377   1.290   3.012  16.115  0.0158  0.7690 -3.2430
11296TIP3   OH255378   2.811   3.182  16.387  0.4273 -0.5254  0.2784
11296TIP3    H155379   2.788   3.181  16.294  0.1382  0.6180  0.3136
11296TIP3    H255380   2.727   3.172  16.433  0.4304 -0.0037  0.4065
11297TIP3   OH255381   4.278   4.828  14.517 -0.3844  0.5207  0.0824
11297TIP3    H155382   4.263   4.771  14.441  3.0865  0.4468 -0.7471
11297TIP3    H255383   4.345   4.783  14.568 -1.3386  1.4520  2.2912
11298TIP3   OH255384   3.777   2.099  13.997 -0.4095  0.3486  0.1416
11298TIP3    H155385   3.764   2.031  14.063 -2.1573  2.5840  2.2966
11298TIP3    H255386   3.842   2.157  14.037  0.7193  0.2528 -1.4684
11299TIP3   OH255387   4.821   3.016   0.436 -0.3123  0.1065 -0.6381
11299TIP3    H155388   4.844   2.995   0.346  1.8193  0.9309 -0.3326
11299TIP3    H255389   4.904   3.012   0.484 -1.2883  0.3374  1.1679
11300TIP3   OH255390   6.155   5.603   3.644 -0.7115  0.0560 -0.9832
11300TIP3    H155391   6.227   5.552   3.682 -1.5181  0.6095  1.4505
11300TIP3    H255392   6.076   5.554   3.667 -1.3842  1.5235 -0.0166
11301TIP3   OH255393   0.790   3.146   3.456 -0.3706 -0.3732  0.1249
11301TIP3    H155394   0.775   3.051   3.450  0.4076 -0.6984  2.4168
11301TIP3    H255395   0.883   3.157   3.440 -0.4584  0.0186 -0.1321
11302TIP3   OH255396   6.732   2.131  15.816  0.2224  0.0026 -0.6685
11302TIP3    H155397   6.788   2.073  15.868 -1.1821  0.3208  1.3321
11302TIP3    H255398   6.749   2.218  15.852 -1.6115  0.0827  0.1009
11303TIP3   OH255399   0.957   4.941  15.142  0.3955  0.1078 -0.6759
11303TIP3    H155400   0.891   4.873  15.124  2.8122 -3.0987  1.4994
11303TIP3    H255401   0.962   4.945  15.237 -0.3885  4.3455 -0.6393
11304TIP3   OH255402   1.554   1.727  17.114 -0.8326  0.3341 -0.4540
11304TIP3    H155403   1.568   1.773  17.197  1.4528  0.8401 -1.0458
11304TIP3    H255404   1.502   1.788  17.062 -0.9905  0.6554  0.0664
11305TIP3   OH255405   5.674   2.584  11.534 -0.3605 -0.4433 -0.4947
11305TIP3    H155406   5.698   2.492  11.527 -1.0529 -0.5298 -2.4322
11305TIP3    H255407   5.731   2.629  11.471  0.3128  0.5581  0.7703
11306TIP3   OH255408   2.093   5.381   4.501 -0.0867  0.0583  0.1389
11306TIP3    H155409   2.134   5.363   4.416  0.8557  1.8332  0.1813
11306TIP3    H255410   2.002   5.402   4.479  0.0507  0.1264 -0.3848
11307TIP3   OH255411   3.248   0.255  15.615  0.3704 -0.4002 -0.2678
11307TIP3    H155412   3.198   0.212  15.545  1.2088  0.5397 -1.4971
11307TIP3    H255413   3.309   0.313  15.568  0.8314  0.3975  1.2577
11308TIP3   OH255414   4.374   0.043   3.585  0.2239 -0.2213 -0.3312
11308TIP3    H155415   4.425   0.053   3.666 -0.4621 -0.2005  0.1106
11308TIP3    H255416   4.405  -0.039   3.548  0.8485 -0.0191 -0.2698
11309TIP3   OH255417   1.011   4.977   4.456 -0.1148 -0.5907 -0.1938
11309TIP3    H155418   0.984   4.897   4.411 -0.8557  0.0576 -0.9355
11309TIP3    H255419   0.936   5.000   4.511 -0.4264  0.2910 -0.9664
11310TIP3   OH255420   5.919   3.021  11.473  0.2196 -0.2721  0.1051
11310TIP3    H155421   6.007   3.058  11.464  0.1374 -0.4325 -1.7797
11310TIP3    H255422   5.878   3.073  11.542 -0.0261  3.5538 -2.6154
11311TIP3   OH255423   4.962   6.124   2.333  0.0608  0.3329 -0.2274
11311TIP3    H155424   5.017   6.146   2.408 -1.1814  0.1725  0.7623
11311TIP3    H255425   4.997   6.177   2.262  1.6400  0.0601  0.2839
11312TIP3   OH255426   5.833   1.077  16.683 -0.4891 -0.1549  0.1774
11312TIP3    H155427   5.760   1.018  16.700 -0.8038  0.3853  0.7279
11312TIP3    H255428   5.896   1.023  16.634 -0.3162 -1.2516  1.5317
11313TIP3   OH255429   1.448   1.859   2.426  0.5136 -0.6109 -1.0485
11313TIP3    H155430   1.397   1.798   2.373  2.0297 -1.7838 -1.2371
11313TIP3    H255431   1.539   1.842   2.401  1.1236  0.2701  0.4276
11314TIP3   OH255432   0.259   5.937   4.493 -0.0889 -0.1195 -0.0069
11314TIP3    H155433   0.350   5.916   4.468 -0.3770 -0.9057 -0.4177
11314TIP3    H255434   0.268   5.998   4.566  0.7980  1.5642 -1.4236
11315TIP3   OH255435   3.265   4.787   6.815 -0.1489  0.2341 -0.0576
11315TIP3    H155436   3.183   4.737   6.817 -2.3543  3.5580  0.7728
11315TIP3    H255437   3.301   4.778   6.904 -0.2140 -0.2914 -0.0814
11316TIP3   OH255438   6.686   6.284   0.138  0.1251 -0.2933  0.0619
11316TIP3    H155439   6.725   6.366   0.169  1.2970 -1.0076  0.5651
11316TIP3    H255440   6.727   6.267   0.054 -0.5308 -0.0895 -0.3057
11317TIP3   OH255441   1.266   2.818   6.311 -0.2706  0.2684 -0.5692
11317TIP3    H155442   1.318   2.878   6.258  2.4221 -1.3817  0.0494
11317TIP3    H255443   1.199   2.785   6.251  0.9287  0.5781 -2.1458
11318TIP3   OH255444   3.088   0.411  14.362  0.2877  0.0223  0.5151
11318TIP3    H155445   3.002   0.446  14.336  1.3434  1.0585 -1.8761
11318TIP3    H255446   3.134   0.486  14.399  1.0020  0.0966 -0.4974
11319TIP3   OH255447   3.829   4.517   0.389  0.1858  0.1437  0.3129
11319TIP3    H155448   3.889   4.442   0.383 -0.6411 -0.4327 -1.3095
11319TIP3    H255449   3.883   4.592   0.364  0.3475 -0.3207 -0.7976
11320TIP3   OH255450   3.530   3.221  15.718  0.5136 -0.0280 -0.1381
11320TIP3    H155451   3.537   3.249  15.810 -0.2260 -0.4321  0.0515
11320TIP3    H255452   3.563   3.131  15.718  1.8119  0.4300 -0.5354
11321TIP3   OH255453   3.444   3.698  13.170  0.3046 -0.1913 -0.0697
11321TIP3    H155454   3.380   3.751  13.217  0.3207 -0.4635  0.2604
11321TIP3    H255455   3.406   3.610  13.168  0.7109 -0.3756  0.2192
11322TIP3   OH255456   3.399   6.644  16.821 -0.9292  0.4867  0.1240
11322TIP3    H155457   3.313   6.624  16.784  0.0647 -0.8142 -1.5858
11322TIP3    H255458   3.392   6.618  16.913 -1.9532 -0.8489 -0.3079
11323TIP3   OH255459   6.287   2.179   2.428 -0.1021  0.2451  0.1531
11323TIP3    H155460   6.218   2.175   2.495 -0.4970  1.8669 -0.1205
11323TIP3    H255461   6.357   2.124   2.463 -0.7199  0.2232  1.4122
11324TIP3   OH255462   0.236   5.005  12.406 -0.1257  0.3050 -0.6918
11324TIP3    H155463   0.188   4.984  12.486 -0.1246 -1.5138 -1.1193
11324TIP3    H255464   0.218   5.097  12.391  0.3953  0.8909  1.7423
11325TIP3   OH255465   5.608   5.354  10.535 -0.2036 -0.0599 -0.0153
11325TIP3    H155466   5.550   5.325  10.464 -0.9186  0.3411  0.3894
11325TIP3    H255467   5.555   5.344  10.614 -0.2300  1.6101  0.2201
11326TIP3   OH255468   0.281   4.062   4.379  0.2250 -0.5680  0.1850
11326TIP3    H155469   0.258   4.038   4.289 -0.0801 -0.2718  0.1794
11326TIP3    H255470   0.294   4.157   4.376  1.8705 -0.7781  0.1104
11327TIP3   OH255471   1.778   5.701  15.517 -0.5772 -0.2748  0.2745
11327TIP3    H155472   1.740   5.642  15.453 -0.7463  2.0238 -1.9001
11327TIP3    H255473   1.702   5.747  15.554 -0.3404 -0.3246  0.8368
11328TIP3   OH255474   2.220   0.695   5.895 -0.2480  0.4915 -0.4628
11328TIP3    H155475   2.210   0.632   5.966 -1.5997 -0.9754 -1.8661
11328TIP3    H255476   2.247   0.776   5.938 -0.1542 -0.5742  1.5967
11329TIP3   OH255477   3.932   0.609  17.063 -0.0416  0.3082  0.2846
11329TIP3    H155478   3.889   0.587  17.146  0.8252  1.0809  0.9493
11329TIP3    H255479   3.869   0.664  17.017 -0.3024  0.3349  0.6694
11330TIP3   OH255480   0.509   3.564  15.705 -0.5852 -0.3173  0.0516
11330TIP3    H155481   0.533   3.599  15.791  1.5869 -0.2712 -0.5332
11330TIP3    H255482   0.553   3.621  15.642 -1.2490 -1.0059 -1.0746
11331TIP3   OH255483   4.051   2.581  15.853  0.5418 -1.1941  0.1663
11331TIP3    H155484   4.119   2.591  15.919  0.4854 -1.4328  0.2629
11331TIP3    H255485   4.081   2.509  15.798  1.8904  0.6723 -1.7029
11332TIP3   OH255486   3.490   4.294  14.269  0.2006  0.1928 -0.2879
11332TIP3    H155487   3.437   4.244  14.332 -1.6638  0.1987 -1.7645
11332TIP3    H255488   3.432   4.364  14.239  2.3313  2.5652  0.7597
11333TIP3   OH255489   2.835   1.644   3.942 -0.2825 -0.3263  0.0267
11333TIP3    H155490   2.795   1.643   4.030 -0.8339 -1.9537 -0.2080
11333TIP3    H255491   2.926   1.669   3.958 -1.2973  3.9047  0.5503
11334TIP3   OH255492   3.087   2.165   3.071  0.0346  0.3716  0.0396
11334TIP3    H155493   3.109   2.258   3.080 -1.4584  0.8324 -0.8393
11334TIP3    H255494   3.049   2.157   2.984 -1.7499 -0.6687  0.8568
11335TIP3   OH255495   1.454   4.204  15.043 -0.1382  0.2734 -0.1481
11335TIP3    H155496   1.429   4.114  15.066 -0.5399  0.5483  0.5327
11335TIP3    H255497   1.463   4.248  15.128  0.6647  0.7202 -0.4588
11336TIP3   OH255498   0.389   2.630  11.287 -0.2345 -0.1997  0.2461
11336TIP3    H155499   0.461   2.624  11.350 -0.3609  1.3333  0.5916
11336TIP3    H255500   0.398   2.552  11.232  0.7122 -0.8549  1.2965
11337TIP3   OH255501   5.803   5.924  15.028  0.7917  0.4833  0.1578
11337TIP3    H155502   5.714   5.925  14.993  0.4013 -1.3844  0.9486
11337TIP3    H255503   5.807   5.999  15.087 -0.9243 -0.4139  1.5207
11338TIP3   OH255504   5.138   4.416   3.199 -0.3185 -0.6232 -0.0365
11338TIP3    H155505   5.059   4.369   3.172 -0.2617 -1.1215  0.6514
11338TIP3    H255506   5.189   4.351   3.247 -0.4478  0.2469  1.3310
11339TIP3   OH255507   0.270   0.278  15.128  0.3550 -0.2196 -0.0465
11339TIP3    H155508   0.287   0.198  15.176  0.3188 -0.3272 -0.2110
11339TIP3    H255509   0.262   0.250  15.037  0.3062 -0.0350 -0.0998
11340TIP3   OH255510   0.426   0.673  11.786 -0.0722 -0.0217 -0.3508
11340TIP3    H155511   0.450   0.620  11.862 -1.8675  0.4907  0.6413
11340TIP3    H255512   0.402   0.610  11.718 -0.4691 -0.4812  0.2149
11341TIP3   OH255513   1.353   6.170  13.343 -0.7439 -0.1546 -0.1391
11341TIP3    H155514   1.304   6.142  13.265 -0.5496 -0.4817 -0.1472
11341TIP3    H255515   1.438   6.197  13.309 -0.7920  0.0640 -0.0843
11342TIP3   OH255516   5.635   1.798  16.128  0.7657 -0.0964  0.3181
11342TIP3    H155517   5.673   1.852  16.198  1.2231  1.1134 -0.8199
11342TIP3    H255518   5.675   1.712  16.140  2.7063  0.7239  0.1234
11343TIP3   OH255519   4.947   6.257  13.497  0.4910  0.4307  0.3220
11343TIP3    H155520   5.011   6.246  13.567 -0.4855 -0.2667  1.1354
11343TIP3    H255521   4.866   6.221  13.532 -0.3093  1.0949 -0.7597
11344TIP3   OH255522   1.741   3.055  15.603  0.2774  0.0099 -0.1342
11344TIP3    H155523   1.770   2.977  15.555 -3.5887 -1.4358 -0.4550
11344TIP3    H255524   1.746   3.028  15.695 -0.2776 -0.3433 -0.2021
11345TIP3   OH255525   1.295   6.761   1.801  0.6875  0.2374  0.4341
11345TIP3    H155526   1.266   6.802   1.720 -0.0718 -0.8106  0.1527
11345TIP3    H255527   1.237   6.797   1.868  1.7027  1.5642  0.6476
11346TIP3   OH255528   1.728   0.071  14.127  0.9710  0.0849  1.0012
11346TIP3    H155529   1.819   0.095  14.142  0.9846  0.9513 -0.3385
11346TIP3    H255530   1.700   0.030  14.209  2.6704 -0.5457  1.2997
11347TIP3   OH255531   0.920   1.762   5.132  0.1303  0.5284 -0.1538
11347TIP3    H155532   0.827   1.782   5.125 -0.4370 -1.3498  1.3350
11347TIP3    H255533   0.924   1.679   5.180  2.6516  1.4943  1.5201
11348TIP3   OH255534   0.079   6.251   5.291  0.4887 -0.1736 -0.5035
11348TIP3    H155535   0.069   6.271   5.197 -0.9939  3.0648  0.1880
11348TIP3    H255536  -0.007   6.219   5.318 -0.1482  1.9887  0.2746
11349TIP3   OH255537   6.198   3.665  16.562  0.1971  0.3483 -0.1413
11349TIP3    H155538   6.209   3.673  16.657  0.1128  1.0347 -0.1862
11349TIP3    H255539   6.148   3.743  16.537 -1.2499 -0.6538 -0.5156
11350TIP3   OH255540   3.348   0.801  13.558  0.0990 -0.3766  0.8859
11350TIP3    H155541   3.262   0.760  13.560 -0.0470 -0.1629 -0.3617
11350TIP3    H255542   3.347   0.857  13.480  2.0966 -2.0370 -0.4650
11351TIP3   OH255543   1.572   0.999   0.485  0.2557  0.1100  0.3582
11351TIP3    H155544   1.622   1.068   0.528  1.0466  1.1497 -2.0169
11351TIP3    H255545   1.513   1.046   0.426 -1.9495 -1.1754  1.3950
11352TIP3   OH255546   0.341   4.635   0.818 -0.3891 -0.2233 -0.7165
11352TIP3    H155547   0.312   4.551   0.855 -2.1670 -0.1019 -1.6944
11352TIP3    H255548   0.264   4.691   0.822  1.0700  1.8051  0.9692
11353TIP3   OH255549   4.653   3.774  16.065  0.8213 -0.2890  0.0373
11353TIP3    H155550   4.665   3.680  16.080 -0.9343 -0.6078 -0.3721
11353TIP3    H255551   4.724   3.797  16.005 -0.3447 -1.9955 -2.1301
11354TIP3   OH255552   4.720   2.162  12.572  0.2262  0.4500  0.0211
11354TIP3    H155553   4.649   2.100  12.552 -0.0409  0.8674 -0.3370
11354TIP3    H255554   4.750   2.136  12.659 -1.4035  1.2260  0.8544
11355TIP3   OH255555   3.988   0.380  15.834 -0.2917  0.6585  0.4063
11355TIP3    H155556   4.077   0.414  15.821  0.1643 -0.2687  0.9779
11355TIP3    H255557   3.931   0.447  15.797  0.6774  0.8774 -0.7719
11356TIP3   OH255558   0.788   2.915  13.635 -0.4851 -0.3103 -0.1037
11356TIP3    H155559   0.770   2.825  13.608  0.7844  0.0911 -2.5577
11356TIP3    H255560   0.873   2.910  13.680 -0.6518 -0.3933  0.2059
11357TIP3   OH255561   1.819   3.551   0.988 -0.1466  0.0446  0.3872
11357TIP3    H155562   1.779   3.620   0.934  0.3625  0.2871  0.3151
11357TIP3    H255563   1.744   3.508   1.030 -0.7043 -1.1560 -1.6711
11358TIP3   OH255564   6.049   6.379  15.097 -0.0263 -0.4059 -0.3263
11358TIP3    H155565   6.092   6.330  15.027 -0.7330 -1.0182 -0.3472
11358TIP3    H255566   5.959   6.346  15.097 -0.2856  0.2803  0.2362
11359TIP3   OH255567   3.743   6.513   1.606 -0.2240  0.2524  0.5933
11359TIP3    H155568   3.815   6.571   1.632  0.1680  0.2167 -0.3421
11359TIP3    H255569   3.675   6.528   1.671  0.3933  0.7577  1.1398
11360TIP3   OH255570   2.322   2.434  14.082 -0.1341 -0.0760  0.4314
11360TIP3    H155571   2.360   2.353  14.048 -0.5237 -0.8424  1.7625
11360TIP3    H255572   2.394   2.497  14.081  0.4273 -0.7151  0.3065
11361TIP3   OH255573   5.173   4.583  14.557  0.0330  0.2799  0.2803
11361TIP3    H155574   5.268   4.598  14.552  0.0902  0.3345  1.2418
11361TIP3    H255575   5.138   4.619  14.476  0.7078  1.3020  0.4218
11362TIP3   OH255576   2.148   4.057  16.482 -0.1455 -0.6306 -1.3074
11362TIP3    H155577   2.138   4.011  16.399 -2.9161 -0.9518 -0.8939
11362TIP3    H255578   2.118   4.146  16.463 -1.0538 -0.7772 -0.6315
11363TIP3   OH255579   6.012   1.018   4.833  0.2644 -0.2369  0.3990
11363TIP3    H155580   6.072   0.955   4.793 -0.5906 -0.7193 -0.1547
11363TIP3    H255581   5.925   0.983   4.815 -0.1799  0.0542  1.8275
11364TIP3   OH255582   5.473   4.346  12.433 -0.6100  0.1142 -0.0840
11364TIP3    H155583   5.412   4.314  12.500  0.0429 -0.7729  0.1154
11364TIP3    H255584   5.462   4.441  12.434 -0.2886  0.1684  1.6293
11365TIP3   OH255585   5.069   3.619  13.940 -0.5287  0.2305  0.0412
11365TIP3    H155586   5.056   3.537  13.892  1.7187 -0.1477 -0.0555
11365TIP3    H255587   5.058   3.688  13.874  1.0407 -0.2130 -0.7518
11366TIP3   OH255588   2.400   5.223   2.203 -0.2621  0.5586  0.3122
11366TIP3    H155589   2.471   5.191   2.147 -0.4035  2.0445 -0.7611
11366TIP3    H255590   2.406   5.168   2.281 -0.4769 -2.0594 -1.3636
11367TIP3   OH255591   5.482   4.325  11.085 -0.1176  0.5680 -0.2300
11367TIP3    H155592   5.425   4.288  11.152 -1.6797  1.1405 -1.1962
11367TIP3    H255593   5.543   4.254  11.064 -2.3590 -1.1583 -1.2944
11368TIP3   OH255594   0.474   3.997   4.578  0.0707 -0.3803  0.1868
11368TIP3    H155595   0.424   4.049   4.516 -0.1377 -0.7889  0.0066
11368TIP3    H255596   0.409   3.946   4.626  0.2448 -0.2146  0.6048
11369TIP3   OH255597   1.990   5.689   4.538 -0.0006 -0.1603  0.2227
11369TIP3    H155598   2.049   5.640   4.594 -0.1891  0.4949  1.0082
11369TIP3    H255599   1.903   5.653   4.556 -0.1289  0.3988  0.7423
11370TIP3   OH255600   2.024   4.047   6.513 -0.2355 -0.3008 -0.3156
11370TIP3    H155601   1.954   4.005   6.562  0.7814  1.0221  2.4799
11370TIP3    H255602   2.091   3.980   6.504 -0.2117 -0.4117  0.6436
11371TIP3   OH255603   3.661   0.244   3.283 -0.2360 -0.3170  0.2970
11371TIP3    H155604   3.648   0.156   3.248  0.1400 -0.3114  0.1434
11371TIP3    H255605   3.578   0.288   3.265  0.2015 -0.0782 -1.3191
11372TIP3   OH255606   0.800   1.661  13.166 -0.1254 -0.4486  0.4556
11372TIP3    H155607   0.847   1.652  13.083 -1.0577  0.0750 -0.1468
11372TIP3    H255608   0.854   1.614  13.230  0.7375 -0.6308 -0.3933
11373TIP3   OH255609   0.333   5.390   1.615 -0.1793 -0.4452 -0.5011
11373TIP3    H155610   0.339   5.317   1.553 -0.1390  0.9279 -2.1774
11373TIP3    H255611   0.421   5.397   1.652  0.6825  0.5767 -2.5722
11374TIP3   OH255612   6.547   5.096   0.738 -0.1567 -0.4799  0.1184
11374TIP3    H155613   6.543   5.059   0.650 -1.0001  0.1714 -0.1308
11374TIP3    H255614   6.493   5.038   0.791 -0.7332 -0.1275 -0.0785
11375TIP3   OH255615   2.190   3.238  15.988 -0.4254 -0.0212  0.2761
11375TIP3    H155616   2.103   3.212  15.958 -0.1239 -0.4787 -0.2149
11375TIP3    H255617   2.174   3.282  16.071 -1.5313  3.0483 -1.3929
11376TIP3   OH255618   0.280   3.277  13.468  0.1851 -0.3498 -0.5318
11376TIP3    H155619   0.219   3.203  13.472 -0.7552  0.3650 -1.0167
11376TIP3    H255620   0.225   3.354  13.485  1.1150  0.2548 -0.1777
11377TIP3   OH255621   0.843   4.860  12.108 -0.2475 -0.5125 -0.1083
11377TIP3    H155622   0.839   4.889  12.018  5.2955  2.9698  0.3036
11377TIP3    H255623   0.812   4.934  12.160  0.2700 -0.9533  0.8740
11378TIP3   OH255624   2.056   0.047  14.192  0.3655 -0.3838 -0.4881
11378TIP3    H155625   2.070  -0.047  14.186 -1.0815 -0.6410 -0.1824
11378TIP3    H255626   2.070   0.068  14.284  0.4510 -0.3280 -0.5126
11379TIP3   OH255627   0.134   0.210   5.463  0.2756  0.6036 -0.0314
11379TIP3    H155628   0.070   0.234   5.395  1.5975 -0.9282 -1.9132
11379TIP3    H255629   0.217   0.246   5.431  1.9071 -4.0628 -1.8603
11380TIP3   OH255630   5.048   3.642  14.192  0.4303 -0.1733 -0.2245
11380TIP3    H155631   5.135   3.660  14.227  1.1057 -2.3651 -0.6312
11380TIP3    H255632   5.059   3.645  14.097 -0.2321  0.6847 -0.2916
11381TIP3   OH255633   0.217   4.162   1.307  0.1593  0.0319  0.0421
11381TIP3    H155634   0.231   4.070   1.285  1.4978  0.3149 -0.4062
11381TIP3    H255635   0.122   4.173   1.306 -0.0354 -1.4119  0.4363
11382TIP3   OH255636   6.646   6.444  13.978  0.0131  0.1796 -0.0679
11382TIP3    H155637   6.691   6.451  14.062  1.0713 -0.0625 -0.6036
11382TIP3    H255638   6.702   6.490  13.916 -0.0143 -0.8918 -0.9186
11383TIP3   OH255639   4.245   6.492  11.016  0.0023 -0.0643 -0.0186
11383TIP3    H155640   4.232   6.398  11.001  2.0417 -0.8451  2.4693
11383TIP3    H255641   4.324   6.498  11.069  0.0043  3.1054 -0.1771
11384TIP3   OH255642   2.794   6.731  14.260 -0.3731 -0.0993 -0.2158
11384TIP3    H155643   2.748   6.688  14.332 -0.7343 -2.1913 -1.5793
11384TIP3    H255644   2.868   6.673  14.241  0.3611  1.0039 -0.8015
11385TIP3   OH255645   1.599   1.230  14.303  0.1559 -0.3593  0.3118
11385TIP3    H155646   1.595   1.323  14.278 -1.4135 -0.8876 -1.6517
11385TIP3    H255647   1.670   1.194  14.250  2.1053  0.0283  2.4986
11386TIP3   OH255648   2.417   4.139  12.076 -0.7154  0.0267 -0.0638
11386TIP3    H155649   2.449   4.197  12.145  0.9443  1.0948 -1.6440
11386TIP3    H255650   2.457   4.055  12.094 -0.3833  0.2677  0.3307
11387TIP3   OH255651   0.308   6.649  12.259 -0.0816 -0.1466 -0.1880
11387TIP3    H155652   0.245   6.582  12.233 -0.1224  0.2462 -1.1619
11387TIP3    H255653   0.309   6.710  12.185  0.0203  0.8755  0.6360
11388TIP3   OH255654   2.847   6.728  11.357 -0.7194  0.2964 -0.1006
11388TIP3    H155655   2.937   6.698  11.339 -0.6564  1.0459 -1.1165
11388TIP3    H255656   2.791   6.669  11.307 -0.8517 -0.5511  1.0096
11389TIP3   OH255657   6.132   3.637   0.166 -0.0100 -0.3132  0.1562
11389TIP3    H155658   6.136   3.612   0.258 -1.0619 -0.7850  0.0893
11389TIP3    H255659   6.216   3.611   0.130  0.5883  0.2871  1.0811
11390TIP3   OH255660   4.306   2.114  15.849  0.3428  0.4896 -0.3719
11390TIP3    H155661   4.365   2.169  15.902  2.7160 -1.6625 -0.5872
11390TIP3    H255662   4.363   2.074  15.783 -1.2726 -2.0124 -0.3927
11391TIP3   OH255663   3.110   3.227   2.060 -0.3420  0.6517  0.4009
11391TIP3    H155664   3.166   3.232   2.137 -0.9127 -0.1527  0.8937
11391TIP3    H255665   3.162   3.180   1.995 -0.2875  0.2594  0.7215
11392TIP3   OH255666   6.549   3.798   3.288 -0.5889 -0.5144  0.2416
11392TIP3    H155667   6.625   3.836   3.332 -0.6133 -1.9321  1.6037
11392TIP3    H255668   6.560   3.821   3.196  0.0552  1.6124  0.8065
11393TIP3   OH255669   6.724   1.809   3.502 -0.1438 -0.4056 -0.0394
11393TIP3    H155670   6.783   1.827   3.429  0.7637 -0.1948  0.7221
11393TIP3    H255671   6.643   1.854   3.479  1.4666  3.4179  1.0107
11394TIP3   OH255672   5.596   0.925  16.983  0.7473 -0.1838 -0.4208
11394TIP3    H155673   5.680   0.923  16.936 -0.0275 -1.0247 -1.8351
11394TIP3    H255674   5.538   0.870  16.931 -0.9060  0.9364  0.1546
11395TIP3   OH255675   4.468   3.508  14.572 -0.0381  0.2181  0.0055
11395TIP3    H155676   4.389   3.491  14.623 -0.1279 -0.1367 -0.2499
11395TIP3    H255677   4.451   3.591  14.528 -0.3958 -0.0122 -0.2960
11396TIP3   OH255678   5.278   0.840  13.980  0.7347  0.2552 -0.3601
11396TIP3    H155679   5.320   0.922  14.005 -0.4722  0.3244  1.6576
11396TIP3    H255680   5.213   0.865  13.915  1.2246  0.7041 -0.6845
11397TIP3   OH255681   6.644   6.727  14.004  0.0057  0.3483  0.1590
11397TIP3    H155682   6.563   6.689  13.972 -0.4871  1.2372  0.3177
11397TIP3    H255683   6.619   6.775  14.083  0.3727  2.0142 -0.7026
11398TIP3   OH255684   5.847   0.382  11.432 -0.6446  0.1972  0.0421
11398TIP3    H155685   5.896   0.331  11.497 -0.1067 -0.7182 -1.0418
11398TIP3    H255686   5.767   0.409  11.478  0.4890  1.0587  1.6143
11399TIP3   OH255687   4.008   1.144   3.369  0.6551  0.7911  0.6811
11399TIP3    H155688   4.003   1.223   3.314  0.4142  0.3629  0.0805
11399TIP3    H255689   3.959   1.168   3.448 -1.4339  0.4915 -0.4439
11400TIP3   OH255690   3.376   2.786   5.329 -0.0836  0.0629  0.1897
11400TIP3    H155691   3.284   2.814   5.319 -0.1470 -0.2163 -0.0080
11400TIP3    H255692   3.393   2.794   5.423 -0.0622  0.8911  0.1300
11401TIP3   OH255693   0.429   5.047  11.271 -0.1000  0.3559  0.2002
11401TIP3    H155694   0.375   5.038  11.193  0.2711 -0.4858  0.0285
11401TIP3    H255695   0.417   4.964  11.319  1.4255 -0.0831 -0.1110
11402TIP3   OH255696   0.711   0.563   1.874 -0.0332 -0.0672 -0.2234
11402TIP3    H155697   0.676   0.504   1.807  1.2078 -1.0142 -0.0692
11402TIP3    H255698   0.649   0.556   1.947  0.1083 -1.2250 -0.1980
11403TIP3   OH255699   4.517   0.039  13.406 -0.1129  0.3274  0.2131
11403TIP3    H155700   4.505   0.113  13.465  1.2384  1.2552 -0.6560
11403TIP3    H255701   4.541  -0.034  13.464 -0.0044  0.9185  0.9176
11404TIP3   OH255702   0.619   4.892  13.315 -0.2712 -0.6444  0.0420
11404TIP3    H155703   0.596   4.926  13.401 -1.0742  0.2989 -0.5306
11404TIP3    H255704   0.713   4.909  13.306 -0.7830  2.2607 -0.5660
11405TIP3   OH255705   3.854   0.948   3.221  0.0130  0.0404  0.3262
11405TIP3    H155706   3.895   1.001   3.289 -0.3195  0.7518 -0.0123
11405TIP3    H255707   3.926   0.897   3.184  0.4819  0.7799  0.1936
11406TIP3   OH255708   0.786   6.494   0.807  0.3893 -0.1047  0.4405
11406TIP3    H155709   0.855   6.428   0.796 -1.0955 -1.5794 -0.6365
11406TIP3    H255710   0.748   6.504   0.719 -0.9533  0.4226  1.0523
11407TIP3   OH255711   3.408   3.660   6.619  0.1381  0.2355 -0.0119
11407TIP3    H155712   3.459   3.737   6.594  2.0352 -0.4561  1.4813
11407TIP3    H255713   3.357   3.688   6.695  2.3581 -0.4098  1.8334
11408TIP3   OH255714   2.979   2.561   4.225  0.5243 -0.1924 -0.2641
11408TIP3    H155715   3.071   2.548   4.245  0.8418  0.5890 -1.1353
11408TIP3    H255716   2.978   2.595   4.135 -0.7335 -1.9706 -0.9820
11409TIP3   OH255717   0.806   2.093  15.624  0.0650  0.2414  0.0289
11409TIP3    H155718   0.747   2.073  15.697  0.6617  1.6754  0.9395
11409TIP3    H255719   0.860   2.014  15.615 -1.1056 -0.5890  0.0258
11410TIP3   OH255720   2.932   5.522   2.375  0.1235 -0.3778  0.1878
11410TIP3    H155721   2.855   5.560   2.417 -0.8099  0.1164 -1.8645
11410TIP3    H255722   2.899   5.485   2.294  2.0170 -0.4040 -0.6188
11411TIP3   OH255723   1.837   5.404   4.425 -0.1596  0.0064  0.2605
11411TIP3    H155724   1.762   5.438   4.475 -1.1784 -0.9834 -0.5369
11411TIP3    H255725   1.820   5.310   4.417  1.1349 -0.2217 -0.0362
11412TIP3   OH255726   1.120   1.482   6.105 -0.5738  0.2960  0.1796
11412TIP3    H155727   1.146   1.574   6.101 -0.5861  0.2939  0.0559
11412TIP3    H255728   1.131   1.458   6.197 -1.3946  0.6601  0.3818
11413TIP3   OH255729   5.768   2.945  12.603  0.2307 -0.1350 -0.3295
11413TIP3    H155730   5.776   2.966  12.696 -0.5104 -0.6604 -0.1369
11413TIP3    H255731   5.696   2.882  12.598 -1.3477  1.6361 -1.5008
11414TIP3   OH255732   2.653   4.024  16.004 -0.5684 -0.3402  0.6667
11414TIP3    H155733   2.574   4.003  16.054 -0.9479 -2.0561 -0.5590
11414TIP3    H255734   2.624   4.027  15.913  0.2984  1.7200  0.4125
11415TIP3   OH255735   5.282   4.335  16.148  0.3887 -0.3297 -0.2564
11415TIP3    H155736   5.293   4.428  16.169  1.0004 -0.4424 -0.0494
11415TIP3    H255737   5.191   4.315  16.172  0.7685 -0.2031  1.4057
11416TIP3   OH255738   6.373   4.146  15.482 -0.2470 -0.4195 -0.2107
11416TIP3    H155739   6.462   4.113  15.470  1.2919  1.5079  3.9162
11416TIP3    H255740   6.376   4.236  15.448 -0.9435 -0.6560 -0.9273
11417TIP3   OH255741   1.920   2.002   4.090 -0.1953 -0.0186 -0.1143
11417TIP3    H155742   1.862   1.999   4.014 -0.8324 -0.9923  0.3807
11417TIP3    H255743   1.898   2.084   4.134 -1.7421 -0.6999  0.4544
11418TIP3   OH255744   4.208   4.310  12.828 -0.0094 -0.6132 -0.4499
11418TIP3    H155745   4.132   4.297  12.772 -0.5516 -2.2028  0.5859
11418TIP3    H255746   4.172   4.337  12.912  0.5663 -1.0379 -0.0524
11419TIP3   OH255747   2.495   2.097   0.425 -0.3073 -0.7234 -0.0211
11419TIP3    H155748   2.412   2.111   0.380 -0.1114 -0.5022 -0.3124
11419TIP3    H255749   2.470   2.076   0.515 -0.6333  0.8779  0.2867
11420TIP3   OH255750   2.826   3.487  15.629 -0.2107 -0.1713  0.3309
11420TIP3    H155751   2.816   3.470  15.535  0.6739  1.1989 -0.0431
11420TIP3    H255752   2.921   3.490  15.643 -0.2718  2.5876  0.6442
11421TIP3   OH255753   6.196   5.556   2.620 -0.0909 -0.8490  0.2166
11421TIP3    H155754   6.278   5.602   2.601  0.2762 -1.8228 -0.6282
11421TIP3    H255755   6.223   5.466   2.638 -0.9733 -1.1651 -0.0040
11422TIP3   OH255756   2.490   0.171   4.713 -0.2185 -0.7471  0.0293
11422TIP3    H155757   2.569   0.223   4.727  0.2972 -1.4733 -0.1751
11422TIP3    H255758   2.507   0.088   4.756 -1.1321 -0.6851  0.5395
11423TIP3   OH255759   1.077   5.226  11.463 -0.2334 -0.7781 -0.0972
11423TIP3    H155760   1.043   5.137  11.471 -0.5190 -0.7955 -1.2495
11423TIP3    H255761   0.998   5.280  11.450 -0.0914 -0.2988  0.9132
11424TIP3   OH255762   1.730   4.592   5.400 -0.2641  0.1651  0.0713
11424TIP3    H155763   1.758   4.508   5.434  1.1169  0.9921  1.0977
11424TIP3    H255764   1.656   4.618   5.455  0.8041  0.6655  1.3130
11425TIP3   OH255765   2.834   2.296  12.640 -0.2739  0.3691 -0.2693
11425TIP3    H155766   2.769   2.228  12.621  0.3585 -0.4523  0.4778
11425TIP3    H255767   2.799   2.341  12.716  0.4002 -0.5941  0.6345
11426TIP3   OH255768   1.581   6.319  16.978 -0.2931 -0.1304 -0.2228
11426TIP3    H155769   1.623   6.396  16.939 -0.6561  0.1461 -0.0722
11426TIP3    H255770   1.565   6.261  16.903 -0.4064  0.1238 -0.3995
11427TIP3   OH255771   1.374   1.348  14.503 -0.6581 -0.5433  0.2956
11427TIP3    H155772   1.437   1.349  14.576 -0.3692  0.2565  0.0405
11427TIP3    H255773   1.427   1.328  14.426 -0.5434  0.9529 -0.0524
11428TIP3   OH255774   3.534   2.579  12.446  0.1794 -0.6213  0.0616
11428TIP3    H155775   3.572   2.644  12.505 -0.5516 -0.3969  0.2962
11428TIP3    H255776   3.568   2.603  12.359  2.0005 -1.5066  0.4816
11429TIP3   OH255777   4.546   1.353   2.976 -0.3121 -0.5438 -0.1286
11429TIP3    H155778   4.621   1.302   3.007  1.1468  1.5412 -0.0276
11429TIP3    H255779   4.496   1.292   2.922  1.0317 -2.2120  0.4321
11430TIP3   OH255780   5.200   0.339  13.044 -0.9105  0.5955  0.2189
11430TIP3    H155781   5.264   0.269  13.058 -0.4324  0.6036 -1.6705
11430TIP3    H255782   5.115   0.295  13.049 -0.6148 -0.2036 -1.0741
11431TIP3   OH255783   5.672   3.804   0.017  0.8454 -0.6569 -0.1551
11431TIP3    H155784   5.672   3.870   0.086 -0.6896 -0.2744 -0.4863
11431TIP3    H255785   5.720   3.730   0.055 -1.5359 -1.1892  2.0801
11432TIP3   OH255786   2.212   2.252  13.746 -0.2424  0.0280  0.8687
11432TIP3    H155787   2.166   2.333  13.726  0.1006 -0.0241 -0.2079
11432TIP3    H255788   2.183   2.229  13.834  0.9508  2.2249  1.9285
11433TIP3   OH255789   4.118   4.733   3.027  0.6868 -0.6893 -0.5498
11433TIP3    H155790   4.119   4.707   3.119 -0.6490 -0.5161 -0.4640
11433TIP3    H255791   4.156   4.658   2.981  0.7438 -1.0595  0.0777
11434TIP3   OH255792   4.327   2.140  16.724  0.0276 -0.3899  0.4861
11434TIP3    H155793   4.285   2.123  16.639  1.7035 -1.0153 -0.2790
11434TIP3    H255794   4.321   2.056  16.770 -0.4650 -0.1831  0.8066
11435TIP3   OH255795   4.335   1.000  16.820  0.0440  0.1957  0.0063
11435TIP3    H155796   4.261   0.940  16.827  1.7382 -1.8224  2.3012
11435TIP3    H255797   4.311   1.075  16.874  0.4849 -1.4812  2.6926
11436TIP3   OH255798   2.295   2.739   5.396  1.0944  0.3054  0.3376
11436TIP3    H155799   2.355   2.682   5.348 -0.5440 -0.1855 -1.1863
11436TIP3    H255800   2.345   2.764   5.474  2.2800 -2.2690  0.5074
11437TIP3   OH255801   3.678   3.163   3.127 -0.0741 -0.1214 -0.0278
11437TIP3    H155802   3.726   3.178   3.209  0.6055 -0.4247 -0.3676
11437TIP3    H255803   3.625   3.242   3.116  1.4350  0.8989 -0.3896
11438TIP3   OH255804   5.008   2.893  11.185 -0.1752  0.2134  0.0292
11438TIP3    H155805   5.071   2.926  11.121  0.8593 -1.1473  0.3004
11438TIP3    H255806   5.041   2.924  11.270  0.4473 -0.9147  0.2208
11439TIP3   OH255807   1.756   3.356  17.027  0.1024  1.0619  0.3208
11439TIP3    H155808   1.826   3.415  17.055  0.7187 -0.1658  1.5133
11439TIP3    H255809   1.780   3.271  17.064 -0.8746  0.1025 -1.1346
11440TIP3   OH255810   4.776   4.344   5.318 -0.0743 -0.3848 -0.1012
11440TIP3    H155811   4.831   4.265   5.320 -1.6990 -1.5458  0.5202
11440TIP3    H255812   4.688   4.312   5.335 -0.7327  1.6332  0.4857
11441TIP3   OH255813   0.176   5.415   2.504 -0.1664 -0.3550  0.0999
11441TIP3    H155814   0.102   5.357   2.485 -0.1237 -0.8855  1.4583
11441TIP3    H255815   0.167   5.486   2.439 -2.3495  0.0245  0.7206
11442TIP3   OH255816   5.751   4.334   3.821  0.4319  0.1359  0.1621
11442TIP3    H155817   5.761   4.304   3.731 -0.7590 -0.8458  0.3431
11442TIP3    H255818   5.794   4.267   3.874 -0.7961 -0.4355  0.4576
11443TIP3   OH255819   2.100   4.279   5.100 -0.0046 -0.1129  0.0333
11443TIP3    H155820   2.163   4.350   5.096  0.5195 -0.6362 -1.3285
11443TIP3    H255821   2.051   4.285   5.018 -1.7042  0.2340  1.0111
11444TIP3   OH255822   2.166   1.473   2.679  1.0349 -0.4340 -0.2339
11444TIP3    H155823   2.093   1.453   2.620  0.3204  2.2479 -0.4056
11444TIP3    H255824   2.141   1.433   2.763 -1.0977  1.0392 -0.0743
11445TIP3   OH255825   0.171   2.345   3.811  0.5093 -0.0495 -0.0034
11445TIP3    H155826   0.213   2.267   3.776 -0.5852 -0.8626  0.4321
11445TIP3    H255827   0.231   2.417   3.788  1.0367 -0.8644 -1.2927
11446TIP3   OH255828   0.477   4.349  15.050 -0.1068 -0.1643 -0.5148
11446TIP3    H155829   0.509   4.275  14.998 -1.5621  0.0723 -1.8214
11446TIP3    H255830   0.460   4.311  15.137  1.3518 -0.8072 -0.4757
11447TIP3   OH255831   5.808   2.509  11.925  0.3451  0.1229 -0.3332
11447TIP3    H155832   5.828   2.540  11.836  0.8127  1.6895  0.2889
11447TIP3    H255833   5.720   2.471  11.918  1.1921 -1.7236 -1.8953
11448TIP3   OH255834   0.730   2.284   4.394  0.5568  0.2376  0.5379
11448TIP3    H155835   0.732   2.188   4.401  0.8254  0.0681 -1.4234
11448TIP3    H255836   0.660   2.302   4.331  1.2554  1.2660  0.0320
11449TIP3   OH255837   1.626   6.239  12.683 -1.3645  0.5586  0.0341
11449TIP3    H155838   1.681   6.173  12.725 -2.9903  0.7189  2.5976
11449TIP3    H255839   1.688   6.304  12.650  0.1458 -1.1450 -0.6618
11450TIP3   OH255840   1.135   1.503   5.638  0.1843 -0.0748  0.3323
11450TIP3    H155841   1.207   1.554   5.674 -1.4086  1.0771  2.0418
11450TIP3    H255842   1.083   1.477   5.715 -3.0186  1.9176 -0.9824
11451TIP3   OH255843   3.928   5.451   4.655  0.3844 -0.0046 -0.3741
11451TIP3    H155844   3.871   5.431   4.580  2.1466  0.6129 -1.9780
11451TIP3    H255845   3.904   5.541   4.679 -3.0007 -1.4775  2.5850
11452TIP3   OH255846   3.319   2.094  15.474  0.3830  0.1720 -0.6454
11452TIP3    H155847   3.305   2.180  15.434  1.3936  0.9249  0.5438
11452TIP3    H255848   3.264   2.096  15.552  2.2210  0.7398  0.7066
11453TIP3   OH255849   2.636   6.003   3.855  0.4744  0.1098  0.3526
11453TIP3    H155850   2.604   5.978   3.768  1.5114 -3.0374  0.7719
11453TIP3    H255851   2.665   6.094   3.844 -3.1057  1.2567 -1.4711
11454TIP3   OH255852   5.350   5.164  12.735  0.7738 -0.5996 -0.6358
11454TIP3    H155853   5.378   5.231  12.673  1.3827 -0.7078 -0.4858
11454TIP3    H255854   5.413   5.171  12.807  0.7474 -1.2308 -0.5524
11455TIP3   OH255855   5.773   6.453   2.760  0.4579 -0.3645  0.4213
11455TIP3    H155856   5.836   6.394   2.800  0.1740  0.1357  1.6532
11455TIP3    H255857   5.742   6.407   2.682  1.8768 -0.8725  0.1298
11456TIP3   OH255858   6.826   3.615  16.509  0.1650 -0.1119  0.5213
11456TIP3    H155859   6.892   3.625  16.440 -0.2550 -0.1057  0.1110
11456TIP3    H255860   6.760   3.681  16.488 -0.1883 -0.4158  0.6645
11457TIP3   OH255861   0.503   5.735  14.310  0.0616  0.2743 -0.3189
11457TIP3    H155862   0.511   5.786  14.229 -0.9653  0.0901 -0.5477
11457TIP3    H255863   0.498   5.802  14.379  0.6871  0.4370 -0.4275
11458TIP3   OH255864   2.969   4.012   3.965  0.2231 -0.7823 -0.2940
11458TIP3    H155865   2.889   4.063   3.950  0.1156 -0.8728 -0.0247
11458TIP3    H255866   3.026   4.072   4.014  0.1468 -0.8737 -0.0920
11459TIP3   OH255867   6.034   5.705   4.223 -0.1309  0.3998 -0.3803
11459TIP3    H155868   6.058   5.737   4.136 -1.4041  1.0527 -0.5177
11459TIP3    H255869   6.078   5.765   4.283 -1.3665  1.5936 -0.6248
11460TIP3   OH255870   4.741   0.803  15.207 -0.1805 -0.4670 -0.0323
11460TIP3    H155871   4.759   0.784  15.299  2.1991 -0.0331 -0.3262
11460TIP3    H255872   4.657   0.848  15.208  1.1707  2.4186  2.3848
11461TIP3   OH255873   4.470   5.014  16.418 -0.5506 -0.0992  0.0948
11461TIP3    H155874   4.479   4.953  16.345 -3.1088  0.4506 -0.7735
11461TIP3    H255875   4.560   5.035  16.443  0.3848 -1.5032 -1.8633
11462TIP3   OH255876   4.988   2.684  15.366  0.6014 -0.0401  0.1939
11462TIP3    H155877   5.051   2.625  15.326  0.2773 -0.1177 -0.1986
11462TIP3    H255878   4.916   2.690  15.303 -0.1886 -0.6293  1.0065
11463TIP3   OH255879   1.195   6.380  12.961 -0.3850 -0.4934  0.6854
11463TIP3    H155880   1.129   6.414  12.901 -1.4383 -2.1160  0.8526
11463TIP3    H255881   1.197   6.442  13.034 -1.0207  0.0768  0.2206
11464TIP3   OH255882   2.542   2.305  10.767  0.6534  0.0937 -0.0409
11464TIP3    H155883   2.532   2.334  10.676  1.6489 -1.6737 -0.7665
11464TIP3    H255884   2.634   2.276  10.773  0.0204 -1.9398  0.8512
11465TIP3   OH255885   4.491   5.148   0.171  0.1970  0.2601 -0.4118
11465TIP3    H155886   4.515   5.061   0.203 -0.7224 -0.1409 -0.7709
11465TIP3    H255887   4.548   5.208   0.219  0.2492 -0.4794  0.4808
11466TIP3   OH255888   4.883   4.451  12.032 -0.1359  0.0313 -0.4982
11466TIP3    H155889   4.854   4.481  12.119 -1.2228 -1.3711 -0.3438
11466TIP3    H255890   4.961   4.399  12.049  0.3691  0.7669 -0.5125
11467TIP3   OH255891   1.478   3.584   5.632  0.2701 -0.2117  1.0121
11467TIP3    H155892   1.455   3.675   5.614  1.5962  0.2445  1.5677
11467TIP3    H255893   1.433   3.563   5.714 -0.5083 -0.2520  0.5820
11468TIP3   OH255894   6.695   2.164  11.493  0.0322 -0.1113 -0.2687
11468TIP3    H155895   6.765   2.227  11.510 -1.2598  1.2978 -0.0451
11468TIP3    H255896   6.694   2.108  11.572  1.1318 -0.3980 -0.4393
11469TIP3   OH255897   2.258   2.877  11.237 -0.4855  0.0532  0.2021
11469TIP3    H155898   2.168   2.847  11.250 -0.6945  0.0482 -1.1421
11469TIP3    H255899   2.251   2.950  11.175  0.6618 -2.0869 -2.6845
11470TIP3   OH255900   1.313   3.752   4.497 -0.1417  0.0306 -0.5146
11470TIP3    H155901   1.384   3.785   4.441  0.0577  1.1176  0.3460
11470TIP3    H255902   1.233   3.772   4.448  0.0286  0.9423 -0.4419
11471TIP3   OH255903   1.359   5.690  16.562 -0.0029 -0.1405 -0.5753
11471TIP3    H155904   1.451   5.683  16.588 -0.4058  1.7705  1.7587
11471TIP3    H255905   1.354   5.775  16.517 -0.7643  0.2357  0.1901
11472TIP3   OH255906   4.631   4.549  13.960  0.3147  0.0445 -0.1009
11472TIP3    H155907   4.541   4.579  13.974  0.2227  0.3989 -1.3401
11472TIP3    H255908   4.675   4.566  14.044 -0.5334  0.7307  0.2224
11473TIP3   OH255909   6.298   5.537   4.995 -0.3306 -0.1425 -0.2513
11473TIP3    H155910   6.313   5.476   4.924  1.9802 -3.6975  2.9183
11473TIP3    H255911   6.209   5.517   5.026  0.2125 -1.6147  0.4162
11474TIP3   OH255912   1.078   3.079  14.318 -0.3040  0.2928 -0.0259
11474TIP3    H155913   1.164   3.037  14.329  0.4262  1.9378  0.8570
11474TIP3    H255914   1.077   3.149  14.383 -1.8566  1.0537 -0.8227
11475TIP3   OH255915   3.541   3.513  12.410 -0.3780 -0.5900  0.5644
11475TIP3    H155916   3.471   3.469  12.362 -0.3478  0.6248 -0.6442
11475TIP3    H255917   3.529   3.485  12.501 -3.3289  0.7152  0.6835
11476TIP3   OH255918   6.548   1.989  15.430  0.0597  0.0547  0.4426
11476TIP3    H155919   6.578   1.917  15.375  0.6676  1.5513 -1.2665
11476TIP3    H255920   6.460   2.008  15.398  0.1769  0.5293  0.4011
11477TIP3   OH255921   2.667   3.671  15.956  0.2713  0.3907  0.4589
11477TIP3    H155922   2.734   3.613  15.995 -1.4891 -0.7915  1.8984
11477TIP3    H255923   2.671   3.653  15.862  1.2539 -0.4376  0.6404
11478TIP3   OH255924   3.502   1.143   3.656 -0.0238  0.4326 -0.6143
11478TIP3    H155925   3.536   1.122   3.569 -0.0167 -0.8151 -0.3325
11478TIP3    H255926   3.564   1.102   3.716 -0.2783  0.8947 -0.0309
11479TIP3   OH255927   1.252   6.521  12.433  0.0690  0.0399  0.1671
11479TIP3    H155928   1.231   6.461  12.361 -0.3117 -1.6561  1.5985
11479TIP3    H255929   1.315   6.472  12.486  2.3930  2.2723 -0.3210
11480TIP3   OH255930   3.472   5.136   1.502  1.0393  0.0694 -0.3305
11480TIP3    H155931   3.391   5.143   1.551  0.7212  3.2334 -1.1330
11480TIP3    H255932   3.530   5.084   1.558 -0.4939  0.4332  1.6914
11481TIP3   OH255933   1.858   3.872   4.560 -0.4456  0.1123 -0.1751
11481TIP3    H155934   1.890   3.887   4.471 -0.4237  0.9276 -0.0393
11481TIP3    H255935   1.844   3.960   4.596 -0.4284 -0.2033  0.6380
11482TIP3   OH255936   2.680   1.176   6.565 -0.0717  0.4079  0.2857
11482TIP3    H155937   2.717   1.089   6.549 -0.3105  0.2611  0.5379
11482TIP3    H255938   2.672   1.214   6.477 -1.3426 -0.3851  0.0274
11483TIP3   OH255939   1.640   1.073  16.138  0.2213 -0.2112 -0.5532
11483TIP3    H155940   1.650   1.121  16.056  0.4290 -0.1346 -0.4857
11483TIP3    H255941   1.729   1.065  16.172 -0.0095  1.2363  0.5003
11484TIP3   OH255942   6.310   0.347   5.775 -0.3948 -0.2370 -0.0554
11484TIP3    H155943   6.353   0.261   5.781 -1.9632 -0.9772  2.4151
11484TIP3    H255944   6.218   0.326   5.760 -0.6613  1.0759 -0.3164
11485TIP3   OH255945   2.812   2.262  11.681 -0.1547  0.0063  0.5466
11485TIP3    H155946   2.769   2.344  11.654 -1.4781 -0.6378  0.6060
11485TIP3    H255947   2.905   2.282  11.679 -0.4648  1.7203  1.1807
11486TIP3   OH255948   1.736   5.635  11.245 -0.1590 -0.2404  0.1725
11486TIP3    H155949   1.650   5.655  11.209 -0.0515  0.5156  0.3163
11486TIP3    H255950   1.792   5.705  11.213  0.3581 -0.6057  0.2618
11487TIP3   OH255951   3.255   5.812  14.969 -0.1016  0.8634  0.1712
11487TIP3    H155952   3.283   5.732  15.014 -0.9990  0.5088  0.1350
11487TIP3    H255953   3.169   5.789  14.934 -0.2691  1.7842 -0.0236
11488TIP3   OH255954   5.361   3.979  14.628  0.2247  0.0977 -0.7942
11488TIP3    H155955   5.402   3.962  14.543  0.2436 -1.0840 -0.5642
11488TIP3    H255956   5.288   3.917  14.633  0.7140 -0.4134  0.3889
11489TIP3   OH255957   0.392   3.360  15.869 -0.0583 -0.2727  0.3410
11489TIP3    H155958   0.405   3.442  15.820  2.0968 -0.3820  0.6284
11489TIP3    H255959   0.303   3.366  15.902 -0.9634  0.6437 -2.0386
11490TIP3   OH255960   3.052   1.713   3.646 -0.4734 -0.1539  0.0446
11490TIP3    H155961   3.072   1.752   3.561  1.4877  0.2523  0.6389
11490TIP3    H255962   2.974   1.759   3.677 -0.3666  0.6831 -0.9145
11491TIP3   OH255963   0.812   1.296   2.366 -0.3488 -0.0481  0.3703
11491TIP3    H155964   0.776   1.208   2.370  0.9365 -0.5518  2.4920
11491TIP3    H255965   0.736   1.354   2.371 -1.2067 -0.9968 -1.0920
11492TIP3   OH255966   6.836   0.387  12.232 -0.2980  0.6909  0.5950
11492TIP3    H155967   6.865   0.467  12.275 -1.9756  1.8844 -0.3700
11492TIP3    H255968   6.900   0.372  12.163  0.9672  0.2149  1.8434
11493TIP3   OH255969   5.436   2.062   2.893 -0.0888  0.5203 -0.6430
11493TIP3    H155970   5.391   2.132   2.941 -2.2050 -1.1473 -0.0189
11493TIP3    H255971   5.522   2.058   2.934 -1.2930  0.1655  2.1444
11494TIP3   OH255972   6.592   5.820  15.191 -0.3611 -0.2799  0.1994
11494TIP3    H155973   6.659   5.809  15.124 -0.3569 -0.7483  0.2783
11494TIP3    H255974   6.577   5.915  15.195 -0.8375 -0.2934 -0.9242
11495TIP3   OH255975   1.512   1.550   2.361 -0.1408 -0.3091 -0.2218
11495TIP3    H155976   1.485   1.465   2.326 -1.0321 -0.4698  0.8092
11495TIP3    H255977   1.477   1.552   2.450  1.2369  0.4938  0.3381
11496TIP3   OH255978   0.513   6.594   1.476 -0.1859  0.0908  0.3289
11496TIP3    H155979   0.439   6.584   1.416 -0.5209 -0.5855  0.8503
11496TIP3    H255980   0.487   6.549   1.556  1.2644 -1.2476  0.1083
11497TIP3   OH255981   1.596   4.312   2.202  0.0928 -0.0857 -0.3517
11497TIP3    H155982   1.533   4.262   2.150  0.0563 -0.9324  0.4798
11497TIP3    H255983   1.587   4.402   2.171 -0.3733 -0.4634 -1.3628
11498TIP3   OH255984   5.136   6.091   0.474  0.1732  0.3467  0.7425
11498TIP3    H155985   5.213   6.075   0.528  0.0145 -1.6881  0.4293
11498TIP3    H255986   5.062   6.070   0.531  0.0146 -2.2101 -0.2896
11499TIP3   OH255987   2.644   3.761  16.853  0.0090  0.1793  0.2439
11499TIP3    H155988   2.671   3.840  16.806 -2.7104  1.0480 -0.0362
11499TIP3    H255989   2.609   3.703  16.785  1.6210 -1.1774  0.4983
11500TIP3   OH255990   4.996   4.188   5.838  0.6421  0.0918  0.3300
11500TIP3    H155991   4.972   4.238   5.759  0.8644  1.7249  1.2541
11500TIP3    H255992   5.085   4.158   5.820  1.0844  1.3308  0.3443
11501TIP3   OH255993   3.933   6.556  17.144 -0.0727 -0.5880 -0.8317
11501TIP3    H155994   3.900   6.496  17.076 -0.0113 -0.0820 -1.3181
11501TIP3    H255995   4.013   6.514  17.176  0.6822 -0.1617 -2.0789
11502TIP3   OH255996   5.479   6.294   2.001 -0.0853 -0.2015  0.1383
11502TIP3    H155997   5.452   6.323   2.089 -1.8425 -2.4446  0.4135
11502TIP3    H255998   5.484   6.375   1.950 -3.5640  0.7956  1.1511
11503TIP3   OH255999   4.755   6.449   3.741 -0.3081  0.1140  0.5877
11503TIP3    H156000   4.682   6.451   3.803  0.3869  0.0609  1.4261
11503TIP3    H256001   4.761   6.357   3.716  0.0808 -0.0552  1.2714
11504TIP3   OH256002   5.205   2.467  15.333  0.0239  0.3400  0.0110
11504TIP3    H156003   5.298   2.473  15.354 -0.4964  3.5297  2.2707
11504TIP3    H256004   5.184   2.374  15.339  2.9059 -0.3960  0.0342
11505TIP3   OH256005   3.009   2.877   2.938  0.2095 -0.0025  0.4539
11505TIP3    H156006   2.976   2.905   2.853  0.7867  2.5002  0.9782
11505TIP3    H256007   2.943   2.816   2.971  0.1755 -1.3443 -1.9150
11506TIP3   OH256008   2.174   5.145  16.524  0.4758 -0.2166 -0.2855
11506TIP3    H156009   2.238   5.081  16.557  0.0063 -0.2410  0.6291
11506TIP3    H256010   2.098   5.133  16.581  0.3565  1.1115 -0.1290
11507TIP3   OH256011   1.999   0.443   1.648  0.3302 -0.8702 -0.0673
11507TIP3    H156012   2.032   0.439   1.558 -2.0223  0.1093 -1.0516
11507TIP3    H256013   1.906   0.463   1.639 -0.6925 -3.6460  2.5147
11508TIP3   OH256014   4.565   6.638  14.963 -0.3878 -0.2536  0.0713
11508TIP3    H156015   4.532   6.723  14.994  0.7351  0.5719 -0.8958
11508TIP3    H256016   4.600   6.596  15.041 -1.7537 -0.2292  0.7269
11509TIP3   OH256017   2.578   6.625  13.245 -0.5741 -0.2714 -0.1526
11509TIP3    H156018   2.553   6.650  13.333 -0.0044 -0.0699 -0.0418
11509TIP3    H256019   2.618   6.538  13.255  2.4544  1.0424  0.3182
11510TIP3   OH256020   1.838   2.101   2.081  0.1929  0.5676  1.0238
11510TIP3    H156021   1.763   2.116   2.139 -1.1899 -1.7872  0.0135
11510TIP3    H256022   1.804   2.043   2.013  2.7598  0.0662  0.0462
11511TIP3   OH256023   6.827   5.237  11.101 -0.1332  0.5525 -0.1519
11511TIP3    H156024   6.782   5.319  11.079  1.0162  1.1966 -0.2210
11511TIP3    H256025   6.857   5.203  11.017  2.4684  1.9481  0.0982
11512TIP3   OH256026   3.751   5.180  14.911 -0.1860  0.0357 -0.5639
11512TIP3    H156027   3.768   5.274  14.907 -2.4062  0.6138  1.4602
11512TIP3    H256028   3.666   5.169  14.867  0.0089 -1.0151 -0.7090
11513TIP3   OH256029   1.179   4.616  12.090  0.7043 -0.4018 -0.0572
11513TIP3    H156030   1.135   4.636  12.008  0.5545 -2.5342 -0.5688
11513TIP3    H256031   1.146   4.681  12.152  1.8647  2.1299 -1.9461
11514TIP3   OH256032   3.690   4.841   3.809 -0.5338 -0.2617  0.2303
11514TIP3    H156033   3.752   4.821   3.878 -1.1058  1.6532  1.3863
11514TIP3    H256034   3.607   4.802   3.838 -0.2356 -1.6611 -0.6683
11515TIP3   OH256035   3.040   1.859  14.211  0.0929  0.0111  0.0829
11515TIP3    H156036   2.968   1.904  14.167 -0.3320 -0.0119  0.7292
11515TIP3    H256037   3.094   1.825  14.141  0.4467  1.5550 -0.4333
11516TIP3   OH256038   3.886   4.838   5.956  0.1565  0.4193 -0.0844
11516TIP3    H156039   3.896   4.817   6.049 -1.1605  0.8362  0.1669
11516TIP3    H256040   3.831   4.767   5.921 -0.3211  0.8796 -0.2808
11517TIP3   OH256041   0.617   4.467   0.167  0.0514 -0.0524 -0.0685
11517TIP3    H156042   0.545   4.406   0.183 -0.5335  0.2463 -1.4280
11517TIP3    H256043   0.584   4.551   0.199 -0.9725  0.4658 -2.2519
11518TIP3   OH256044   1.385   0.236   5.973 -0.5553 -0.2024  0.8062
11518TIP3    H156045   1.466   0.240   6.023  0.2557 -2.1064 -0.2161
11518TIP3    H256046   1.333   0.167   6.016 -1.3778  0.5755  1.0864
11519TIP3   OH256047   2.746   3.053   3.830 -0.2034 -0.4935 -0.1430
11519TIP3    H156048   2.839   3.061   3.850 -0.5973  0.7546  1.3622
11519TIP3    H256049   2.729   2.959   3.828  0.7047 -0.7101  1.5101
11520TIP3   OH256050   5.062   6.134  11.665  0.3032 -0.1366 -0.0512
11520TIP3    H156051   5.093   6.062  11.609  0.4611 -1.1618  1.2892
11520TIP3    H256052   4.988   6.171  11.618  0.5634 -0.8311 -1.0309
11521TIP3   OH256053   0.301   4.485   4.664 -0.8084  0.2500 -0.0577
11521TIP3    H156054   0.349   4.553   4.712  2.2158 -1.0751 -0.9312
11521TIP3    H256055   0.249   4.534   4.600 -0.0339  1.8109  0.4473
11522TIP3   OH256056   0.115   1.116   2.156  0.4206 -0.3354  0.1423
11522TIP3    H156057   0.146   1.055   2.223  1.1832 -2.5417 -2.0825
11522TIP3    H256058   0.044   1.069   2.112 -0.5476  1.3514 -0.1921
11523TIP3   OH256059   3.161   2.617   2.828  0.5688 -0.5116  0.0079
11523TIP3    H156060   3.149   2.708   2.800  2.6993 -0.1359  0.1026
11523TIP3    H256061   3.091   2.569   2.785  0.6236  0.8621 -1.7353
11524TIP3   OH256062   2.480   5.700  11.966 -0.1501 -0.2694  0.0848
11524TIP3    H156063   2.511   5.729  11.880 -1.9294 -0.5163 -0.6742
11524TIP3    H256064   2.437   5.777  12.003  0.4857 -0.2074  0.7274
11525TIP3   OH256065   4.324   5.216  11.826  0.0175  0.8650 -0.0773
11525TIP3    H156066   4.388   5.204  11.897  0.3377 -1.2972 -0.6752
11525TIP3    H256067   4.251   5.262  11.867  0.1271 -0.4590  1.7345
11526TIP3   OH256068   4.047   0.107   2.333  0.4621  0.4497  0.1624
11526TIP3    H156069   3.959   0.089   2.301  0.5137 -1.1845  0.8701
11526TIP3    H256070   4.033   0.161   2.411  0.0632 -0.0672  0.4532
11527TIP3   OH256071   1.528   1.227   9.973 -0.3227  0.3518  0.0458
11527TIP3    H156072   1.559   1.286  10.042  0.8205 -0.7801  0.5360
11527TIP3    H256073   1.434   1.219   9.989 -0.5062  2.0033 -0.0330
11528TIP3   OH256074   0.621   4.243   1.641 -0.3805 -0.2016 -0.1253
11528TIP3    H156075   0.554   4.267   1.578  0.2230 -1.4279 -1.2779
11528TIP3    H256076   0.573   4.227   1.722 -1.5398 -1.3063 -0.9968
11529TIP3   OH256077   4.142   1.566   5.680  0.3319 -0.7095 -0.5908
11529TIP3    H156078   4.130   1.546   5.773  1.2000 -0.6272 -0.4498
11529TIP3    H256079   4.228   1.609   5.676  1.6758 -3.2425 -1.7731
11530TIP3   OH256080   2.589   2.749  12.744 -0.1395  0.3504  0.2638
11530TIP3    H156081   2.646   2.784  12.676  1.1172 -1.0416  0.5499
11530TIP3    H256082   2.614   2.796  12.823  0.2980  0.0523  0.3016
11531TIP3   OH256083   6.564   3.197   5.885 -0.2929 -0.5686 -0.2585
11531TIP3    H156084   6.613   3.115   5.896 -0.0733 -0.3406  0.5295
11531TIP3    H256085   6.628   3.265   5.904 -1.0653 -0.2737  1.4500
11532TIP3   OH256086   0.674   5.815  12.518  0.2159  0.3673 -0.6475
11532TIP3    H156087   0.697   5.729  12.484  0.0233  0.5315 -1.1931
11532TIP3    H256088   0.732   5.827  12.594  1.6424  0.5936 -1.7415
11533TIP3   OH256089   4.883   6.777   6.430 -0.0644  0.2860  0.4682
11533TIP3    H156090   4.822   6.784   6.504  1.1638  0.9397  1.4452
11533TIP3    H256091   4.865   6.690   6.393 -3.4015  1.3831 -0.9535
11534TIP3   OH256092   3.197   1.849  13.975  0.4740  0.6066  0.2429
11534TIP3    H156093   3.292   1.854  13.965  0.6057  0.6306  1.3605
11534TIP3    H256094   3.162   1.909  13.908  1.2793  1.2147  0.3504
11535TIP3   OH256095   5.515   1.122  11.299 -0.2813 -0.1379 -0.2530
11535TIP3    H156096   5.571   1.072  11.240 -1.8067 -0.4743 -1.4539
11535TIP3    H256097   5.560   1.207  11.308 -0.0100 -0.0871 -1.8926
11536TIP3   OH256098   2.562   2.610   2.908 -0.2571 -0.0453 -0.0351
11536TIP3    H156099   2.536   2.688   2.956  0.9512 -0.7810  1.9413
11536TIP3    H256100   2.514   2.539   2.949  2.9989 -1.1389  2.3490
11537TIP3   OH256101   6.035   3.401  13.385  0.4032 -0.2154  0.0151
11537TIP3    H156102   6.126   3.430  13.392 -0.0573  1.2915  0.1043
11537TIP3    H256103   6.040   3.317  13.338  1.9329 -0.8240  1.1719
11538TIP3   OH256104   0.190   6.345   6.161  0.2409 -0.5170  0.4701
11538TIP3    H156105   0.201   6.440   6.149 -1.9325 -0.2206  0.5273
11538TIP3    H256106   0.185   6.333   6.256  1.2386 -0.8137  0.5001
11539TIP3   OH256107   6.195   2.785  15.164  0.1328  0.0146  0.3465
11539TIP3    H156108   6.216   2.816  15.253 -0.8248 -1.1753  1.0214
11539TIP3    H256109   6.245   2.843  15.106 -0.4994  1.8958  1.5785
11540TIP3   OH256110   2.849   1.926  14.774  0.1630  0.7130 -0.0497
11540TIP3    H156111   2.845   1.833  14.752  1.2504  0.8775 -1.0271
11540TIP3    H256112   2.758   1.951  14.789 -0.3237 -0.1347 -1.3964
11541TIP3   OH256113   3.136   5.983  15.552 -0.0891  0.3441 -0.1919
11541TIP3    H156114   3.164   6.004  15.641  0.4391 -0.5461 -0.1353
11541TIP3    H256115   3.083   6.058  15.525  0.1850  0.8630  0.6748
11542TIP3   OH256116   0.273   0.851  11.924  0.3967  0.4511 -0.3202
11542TIP3    H156117   0.337   0.793  11.882 -1.6492 -2.2649  0.0840
11542TIP3    H256118   0.200   0.856  11.862 -0.5910  0.3788  0.8047
11543TIP3   OH256119   2.633   4.867  15.517  0.3881 -0.5247  0.9530
11543TIP3    H156120   2.674   4.923  15.582  1.2547 -1.2694  1.0694
11543TIP3    H256121   2.696   4.796  15.502 -0.2963 -1.0003  0.1710
11544TIP3   OH256122   0.987   0.947  12.165 -0.6236  0.0163  0.1108
11544TIP3    H156123   1.053   1.016  12.162  0.4812 -1.0232 -1.9148
11544TIP3    H256124   0.916   0.983  12.219 -0.1366  2.7614 -0.9167
11545TIP3   OH256125   0.555   6.192   1.905 -0.0169 -0.1693  0.6007
11545TIP3    H156126   0.509   6.276   1.914  0.0008  0.0042 -0.7949
11545TIP3    H256127   0.647   6.214   1.915 -0.1040 -0.2853  1.8440
11546TIP3   OH256128   4.886   2.639   1.648  0.0435 -0.2548  0.5072
11546TIP3    H156129   4.908   2.560   1.599  0.3958  0.6146 -0.7932
11546TIP3    H256130   4.933   2.709   1.602 -1.4851  0.9350  0.6719
11547TIP3   OH256131   6.713   1.256  15.289 -0.4374 -0.3913 -0.1840
11547TIP3    H156132   6.628   1.214  15.303 -0.0562 -2.3203 -2.9148
11547TIP3    H256133   6.777   1.189  15.311  0.3042  0.1283 -0.7312
11548TIP3   OH256134   2.219   3.094   2.197 -0.2354 -0.8941  0.0189
11548TIP3    H156135   2.232   3.007   2.234 -0.5607 -1.6165 -1.5013
11548TIP3    H256136   2.125   3.111   2.208  0.0207 -0.1821  1.4064
11549TIP3   OH256137   1.064   5.784   5.316 -0.3368 -0.2235  0.4690
11549TIP3    H156138   1.066   5.689   5.327  0.4449 -0.1724  0.8087
11549TIP3    H256139   1.156   5.809   5.309 -0.5529  0.4564 -0.1069
11550TIP3   OH256140   1.437   5.044  11.593 -0.2846  0.1463  0.0903
11550TIP3    H156141   1.382   5.077  11.522 -0.3337 -0.3907 -0.1264
11550TIP3    H256142   1.508   5.108  11.599 -1.4140  1.3551  1.0138
11551TIP3   OH256143   0.159   5.355  11.703 -0.7757 -0.0424  0.0875
11551TIP3    H156144   0.206   5.388  11.627  0.6277 -0.5593  0.6831
11551TIP3    H256145   0.125   5.270  11.676  1.2803 -1.0837  0.5158
11552TIP3   OH256146   2.891   5.830   4.367 -0.3976  0.2622 -0.0775
11552TIP3    H156147   2.880   5.916   4.408 -1.5122 -0.5428  1.4304
11552TIP3    H256148   2.943   5.780   4.431 -2.2121 -1.0447  0.4446
11553TIP3   OH256149   4.960   3.595   1.912  0.8376 -0.1486 -0.1181
11553TIP3    H156150   4.949   3.504   1.886  2.0184 -0.4599  0.4164
11553TIP3    H256151   4.894   3.609   1.981 -1.5107  0.3522 -2.2920
11554TIP3   OH256152   5.943   6.287  15.647  0.3487 -0.4755 -0.4928
11554TIP3    H156153   6.018   6.231  15.628  0.4022  0.0329 -1.8971
11554TIP3    H256154   5.922   6.328  15.563  0.0846  1.3121  0.3870
11555TIP3   OH256155   2.619   1.952  10.366 -0.0356 -0.4323  0.0032
11555TIP3    H156156   2.543   2.003  10.394 -0.6991 -1.5347  0.2405
11555TIP3    H256157   2.687   2.018  10.351  0.0077  0.3438  2.9650
11556TIP3   OH256158   4.237   0.422  10.654 -0.0635  0.0936  0.1911
11556TIP3    H156159   4.214   0.346  10.707  2.0214  0.0223  1.0494
11556TIP3    H256160   4.207   0.400  10.566 -1.1994 -0.8888  0.8011
11557TIP3   OH256161   3.855   2.618  11.579  0.3210  0.4423  0.3071
11557TIP3    H156162   3.865   2.702  11.535  2.8143 -0.5108 -1.1457
11557TIP3    H256163   3.916   2.621  11.653  0.3021 -0.0225  0.3473
11558TIP3   OH256164   1.663   3.219   2.646  0.4399 -0.0193 -0.0360
11558TIP3    H156165   1.717   3.297   2.648  0.7201 -0.1688 -1.0020
11558TIP3    H256166   1.689   3.169   2.723 -1.2265  1.7736  1.8075
11559TIP3   OH256167   6.112   1.971  16.702 -0.3067 -0.0429 -0.5374
11559TIP3    H156168   6.166   1.924  16.638 -1.0678 -1.1922 -0.3848
11559TIP3    H256169   6.126   1.923  16.784 -0.1194  0.7988 -0.0733
11560TIP3   OH256170   5.009   3.896   5.267 -0.6839 -0.2984  0.1335
11560TIP3    H156171   5.011   3.801   5.274 -0.6655 -0.4749 -1.7799
11560TIP3    H256172   5.055   3.915   5.186  1.1043  1.5053  1.4751
11561TIP3   OH256173   1.624   5.537  14.860  0.0847  0.6104 -0.3240
11561TIP3    H156174   1.695   5.495  14.908 -1.0617  0.1440  1.0307
11561TIP3    H256175   1.582   5.466  14.810 -0.7998  0.4361  0.6386
11562TIP3   OH256176   0.060   0.863  14.183  0.0957 -0.3506 -0.0208
11562TIP3    H156177   0.069   0.886  14.090  1.6465 -0.7844 -0.0123
11562TIP3    H256178  -0.008   0.795  14.184 -0.5534  0.2672 -0.7164
11563TIP3   OH256179   0.329   2.702  15.410  0.1897 -0.3090 -0.2140
11563TIP3    H156180   0.381   2.742  15.341 -0.2711  1.6740  0.5154
11563TIP3    H256181   0.243   2.744  15.404 -0.1554 -0.7872  0.9641
11564TIP3   OH256182   3.223   2.391  15.520  0.0259  0.0438 -0.3516
11564TIP3    H156183   3.231   2.481  15.551 -0.1748 -0.0851  0.0805
11564TIP3    H256184   3.244   2.396  15.427 -0.1271  0.5627 -0.3627
11565TIP3   OH256185   1.043   4.395  12.751  0.1395 -0.4186 -0.8716
11565TIP3    H156186   1.062   4.368  12.662 -0.3155  0.9256 -1.3958
11565TIP3    H256187   0.948   4.397  12.756  0.1055 -2.1947  0.2105
11566TIP3   OH256188   4.352   5.834   3.635 -0.2535  0.2865 -0.0536
11566TIP3    H156189   4.448   5.830   3.635 -0.0881  2.3548 -2.0973
11566TIP3    H256190   4.326   5.784   3.713  2.4421 -0.6496  0.3461
11567TIP3   OH256191   3.973   0.109   3.692 -1.0751  0.0868 -0.0513
11567TIP3    H156192   3.919   0.144   3.621  0.0788 -1.4718 -1.7982
11567TIP3    H256193   4.018   0.034   3.652  0.6301 -0.0361  1.9798
11568TIP3   OH256194   5.617   2.293   1.347  0.4492 -0.5362  0.5076
11568TIP3    H156195   5.694   2.307   1.401  0.4211 -0.3777  0.5065
11568TIP3    H256196   5.628   2.352   1.273  1.5081 -2.2374 -0.7503
11569TIP3   OH256197   5.150   3.341  14.119  0.6615  0.1346 -0.1889
11569TIP3    H156198   5.214   3.285  14.075  0.2992  0.0626 -0.6328
11569TIP3    H256199   5.074   3.341  14.060  0.0345 -0.2493  0.6097
11570TIP3   OH256200   0.655   5.554  15.593 -0.2610  0.1177  0.2661
11570TIP3    H156201   0.682   5.549  15.684 -0.0059 -0.2407  0.1715
11570TIP3    H256202   0.674   5.645  15.567 -2.2370  0.8381  1.1568
11571TIP3   OH256203   0.827   4.915   1.656  0.0225 -0.5041 -0.4012
11571TIP3    H156204   0.846   4.950   1.743  0.9149 -1.2062 -0.3045
11571TIP3    H256205   0.743   4.954   1.633 -0.7044 -1.0576  1.1744
11572TIP3   OH256206   5.981   4.646  16.014 -0.2099 -0.0070 -0.6813
11572TIP3    H156207   6.006   4.558  16.043  0.4059 -0.0706 -1.3943
11572TIP3    H256208   5.965   4.694  16.096  0.5756 -0.4548 -0.2508
11573TIP3   OH256209   6.392   0.672   1.659  0.0942  0.0865  0.0950
11573TIP3    H156210   6.444   0.702   1.584 -1.2933  1.7084 -0.2826
11573TIP3    H256211   6.435   0.591   1.687  1.7064  0.3882 -1.3263
11574TIP3   OH256212   4.628   0.233   2.412 -0.1707 -0.6795  0.4761
11574TIP3    H156213   4.594   0.210   2.499 -0.3609  3.3105  1.6463
11574TIP3    H256214   4.554   0.221   2.353 -1.0794 -0.2403  1.4953
11575TIP3   OH256215   1.517   5.100   5.090 -0.5236  0.3988  0.1416
11575TIP3    H156216   1.611   5.086   5.099 -0.2695  0.7111 -1.6697
11575TIP3    H256217   1.480   5.012   5.082 -0.0006  0.3155 -2.0588
11576TIP3   OH256218   0.243   1.022   3.906 -0.4352  0.5442 -0.3784
11576TIP3    H156219   0.200   1.021   3.820 -3.5924 -0.7028  1.0587
11576TIP3    H256220   0.238   1.114   3.933 -2.1333  0.4821 -0.3581
11577TIP3   OH256221   3.617   5.150   4.739 -0.4551  0.1959  0.4223
11577TIP3    H156222   3.634   5.242   4.757 -1.6078  0.4794  0.1426
11577TIP3    H256223   3.676   5.128   4.667  2.5397 -0.3341  2.8148
11578TIP3   OH256224   1.671   4.584  10.413 -0.8509 -0.3813  0.5279
11578TIP3    H156225   1.607   4.621  10.475 -0.4419 -0.6405  1.1159
11578TIP3    H256226   1.668   4.489  10.429 -0.2957 -0.3924  0.5882
11579TIP3   OH256227   5.452   3.034   6.157  0.5921 -0.0611 -0.4268
11579TIP3    H156228   5.475   3.065   6.069  0.2941 -0.5943 -0.7013
11579TIP3    H256229   5.410   2.949   6.142  0.3567 -0.0647  0.2188
11580TIP3   OH256230   6.695   3.091   2.539 -0.5103  0.0256 -0.4258
11580TIP3    H156231   6.752   3.040   2.596 -0.4541  1.7016  1.0898
11580TIP3    H256232   6.636   3.026   2.500  1.4069 -1.5493 -0.8813
11581TIP3   OH256233   4.311   4.963   5.176  0.3001 -0.1590 -0.2200
11581TIP3    H156234   4.275   4.881   5.142  2.7487 -1.4618  0.0319
11581TIP3    H256235   4.299   4.957   5.270 -2.0379  1.1362 -0.3927
11582TIP3   OH256236   3.214   4.775  15.306  0.2764 -0.2972 -0.0443
11582TIP3    H156237   3.279   4.811  15.246  0.9225 -1.4638 -0.0883
11582TIP3    H256238   3.134   4.824  15.289  1.1412  1.1663  0.0037
11583TIP3   OH256239   3.981   1.480  14.417 -0.0213 -0.1994 -0.3942
11583TIP3    H156240   4.005   1.444  14.502  0.6729 -0.0814 -0.5355
11583TIP3    H256241   3.992   1.575  14.427 -3.3078  0.2120  0.4536
11584TIP3   OH256242   2.463   5.319   4.857  0.7420  0.3918 -0.8497
11584TIP3    H156243   2.543   5.343   4.904 -0.1966  0.5526  0.7519
11584TIP3    H256244   2.393   5.335   4.920 -0.3866 -1.7667 -1.4633
11585TIP3   OH256245   4.011   6.493   4.515 -0.1480  0.2838 -0.0332
11585TIP3    H156246   3.948   6.559   4.544 -0.3152  0.3027 -0.4295
11585TIP3    H256247   4.089   6.544   4.490  0.6443  0.1521  1.9788
11586TIP3   OH256248   1.825   2.035  13.289 -0.6370 -0.2328  0.6001
11586TIP3    H156249   1.769   1.980  13.344  0.5041  0.3375  2.4418
11586TIP3    H256250   1.776   2.117  13.280 -1.0976 -0.5436  0.2380
11587TIP3   OH256251   3.617   1.472  15.596  0.1444  0.5797  0.1616
11587TIP3    H156252   3.622   1.377  15.583 -2.0328  0.5530 -0.8653
11587TIP3    H256253   3.554   1.502  15.530  0.1709  2.6380  1.0055
11588TIP3   OH256254   2.029   5.026  12.004 -0.4603 -0.3770  0.6166
11588TIP3    H156255   2.056   4.997  11.917 -0.5471  1.4236 -0.0541
11588TIP3    H256256   2.100   5.082  12.034 -1.7906  1.5494  0.3326
11589TIP3   OH256257   4.107   4.847  13.992 -0.0400  0.7076  0.7045
11589TIP3    H156258   4.089   4.774  14.050 -0.2571 -0.1562 -0.4190
11589TIP3    H256259   4.198   4.835  13.964 -0.8989 -0.8363 -1.7454
11590TIP3   OH256260   1.144   4.882   2.255  0.2289 -0.0951  0.3814
11590TIP3    H156261   1.053   4.895   2.283  0.3428 -1.8922  1.7474
11590TIP3    H256262   1.141   4.893   2.160 -1.9134 -2.3704  0.0938
11591TIP3   OH256263   2.163   5.796  11.200 -0.8466  0.5196 -0.4398
11591TIP3    H156264   2.242   5.850  11.203 -1.2379  1.0701  1.8627
11591TIP3    H256265   2.196   5.706  11.209 -0.4541  0.7537  0.6433
11592TIP3   OH256266   1.047   3.171  13.622  0.0790 -0.0126 -0.0316
11592TIP3    H156267   1.089   3.142  13.703 -1.7563  0.4529  1.1666
11592TIP3    H256268   1.107   3.144  13.553  0.4165 -2.9658  1.2576
11593TIP3   OH256269   1.163   0.937   5.985 -0.1701 -0.2384 -0.6021
11593TIP3    H156270   1.242   0.965   6.030  0.6158 -0.0170 -2.0643
11593TIP3    H256271   1.194   0.886   5.910 -1.2921  1.2779 -2.1896
11594TIP3   OH256272   2.744   4.235   1.543  0.5548 -0.4887  0.2803
11594TIP3    H156273   2.654   4.269   1.548  1.3762  1.9406  0.0323
11594TIP3    H256274   2.766   4.212   1.633  0.3028  0.7643  0.6945
11595TIP3   OH256275   6.117   0.287  16.669 -0.0457 -0.0665 -0.3069
11595TIP3    H156276   6.055   0.307  16.738  1.4101  0.0006  1.0457
11595TIP3    H256277   6.179   0.360  16.672  0.0798 -0.0969 -1.6513
11596TIP3   OH256278   0.360   4.457   3.101 -0.2006 -0.8950  0.1105
11596TIP3    H156279   0.325   4.378   3.061 -0.9034 -0.5451  0.0173
11596TIP3    H256280   0.415   4.425   3.173  0.6012 -1.4994 -0.7607
11597TIP3   OH256281   3.697   0.411   2.558 -0.6853 -0.0911 -0.0747
11597TIP3    H156282   3.663   0.421   2.468 -0.8549  0.8160  0.0880
11597TIP3    H256283   3.682   0.318   2.577  2.4664 -1.2066 -2.2203
11598TIP3   OH256284   1.688   0.320   4.731  0.1187  0.0892 -0.6083
11598TIP3    H156285   1.718   0.270   4.806  0.3316  3.3694  1.7496
11598TIP3    H256286   1.594   0.331   4.746  0.5762  3.0463  0.9002
11599TIP3   OH256287   6.453   4.413  14.671  0.0732 -0.1410 -0.2342
11599TIP3    H156288   6.434   4.329  14.629 -1.1980  0.3168 -0.6159
11599TIP3    H256289   6.371   4.437  14.714  0.1792  1.2683 -0.7706
11600TIP3   OH256290   2.408   3.666  14.460 -0.7777  0.3626  0.4014
11600TIP3    H156291   2.420   3.668  14.365 -2.2578 -0.9952  0.1430
11600TIP3    H256292   2.345   3.736  14.478 -2.5101 -1.0408  0.0016
11601TIP3   OH256293   1.101   4.058  11.535  0.4979 -0.1634  0.1761
11601TIP3    H156294   1.171   4.026  11.478 -1.6829 -3.3823 -1.0110
11601TIP3    H256295   1.065   4.134  11.489  1.7842  0.1916 -0.2868
11602TIP3   OH256296   0.096   4.732   0.914  0.4653 -0.7628  0.1482
11602TIP3    H156297   0.003   4.745   0.896  0.6815  1.3896  0.3551
11602TIP3    H256298   0.100   4.646   0.956 -1.3393 -1.1707 -0.4286
11603TIP3   OH256299   4.848   4.209   4.995 -0.8698  0.2590 -0.4913
11603TIP3    H156300   4.805   4.133   4.955  0.3107 -0.8491  0.2809
11603TIP3    H256301   4.893   4.252   4.922 -0.8746 -0.2440 -0.7899
11604TIP3   OH256302   0.456   1.590  13.707  0.1219  0.4366  0.2291
11604TIP3    H156303   0.475   1.645  13.632 -1.8427  1.1162  0.1752
11604TIP3    H256304   0.403   1.645  13.765 -0.1720 -0.7432  1.1257
11605TIP3   OH256305   5.824   4.968   3.831  0.3392  0.2558 -0.3345
11605TIP3    H156306   5.757   5.021   3.788 -0.1711  1.0985  1.4162
11605TIP3    H256307   5.783   4.940   3.914  1.9567  0.3434  0.5332
11606TIP3   OH256308   4.051   6.786  13.137 -0.0142 -0.1852 -0.1841
11606TIP3    H156309   3.960   6.764  13.117  0.4756 -0.2378 -2.8089
11606TIP3    H256310   4.055   6.881  13.126  0.4720 -0.3237 -1.3988
11607TIP3   OH256311   5.031   5.302   3.951 -0.5330 -0.0899 -0.5621
11607TIP3    H156312   5.093   5.236   3.920 -0.3630  0.1532 -0.7427
11607TIP3    H256313   4.946   5.257   3.951 -0.5274 -0.1228 -1.3189
11608TIP3   OH256314   2.641   5.642  12.497  0.2840 -0.3072  0.1719
11608TIP3    H156315   2.733   5.648  12.524 -0.0286  1.3957  0.9464
11608TIP3    H256316   2.614   5.555  12.528  0.9923  0.0811  2.0468
11609TIP3   OH256317   4.815   5.941   2.702  0.4904 -0.2320 -0.0943
11609TIP3    H156318   4.731   5.930   2.658  0.6089 -1.7067  0.0091
11609TIP3    H256319   4.794   5.992   2.781 -0.1595  0.0892 -0.4639
11610TIP3   OH256320   0.399   0.272   4.383  0.4997  0.9151 -0.7140
11610TIP3    H156321   0.438   0.243   4.300 -1.5443  3.2433 -2.6597
11610TIP3    H256322   0.350   0.196   4.414  1.3240 -0.0194 -1.6134
11611TIP3   OH256323   5.575   3.415   2.014  0.0435  0.3315  0.0021
11611TIP3    H156324   5.666   3.387   2.006  1.1715  3.4301  0.4253
11611TIP3    H256325   5.562   3.431   2.107 -0.8176  0.2782 -0.0929
11612TIP3   OH256326   3.198   6.146   1.993 -0.1999  0.1673  0.0736
11612TIP3    H156327   3.198   6.051   1.983 -0.4984  0.3271 -1.7050
11612TIP3    H256328   3.174   6.160   2.085 -0.4353 -1.4574  0.2893
11613TIP3   OH256329   2.618   1.886  16.284  0.0342 -0.5502  0.9383
11613TIP3    H156330   2.607   1.900  16.378 -0.0442 -0.6829  0.9479
11613TIP3    H256331   2.548   1.937  16.243 -0.6301 -1.3813  1.0034
11614TIP3   OH256332   4.221   4.289  15.909  0.2920  0.4636 -0.1135
11614TIP3    H156333   4.169   4.248  15.978 -1.6681  0.1188 -1.6991
11614TIP3    H256334   4.234   4.379  15.940 -0.8993  0.4382  0.5184
11615TIP3   OH256335   0.272   4.679   0.356 -1.1295  0.5723 -0.0814
11615TIP3    H156336   0.347   4.655   0.411 -0.5307  0.1246 -1.0620
11615TIP3    H256337   0.302   4.662   0.267 -2.4262  0.3502 -0.4865
11616TIP3   OH256338   5.464   5.297  10.826  0.2706 -0.0179  0.0475
11616TIP3    H156339   5.458   5.360  10.898  3.1489  3.2192 -2.2352
11616TIP3    H256340   5.526   5.231  10.856  1.2755  1.1746  0.6729
11617TIP3   OH256341   5.173   6.548   5.657 -0.3469 -0.2169  1.0016
11617TIP3    H156342   5.082   6.576   5.662 -0.0063  0.8708  1.4431
11617TIP3    H256343   5.221   6.615   5.705  1.1653  1.4898 -2.5047
11618TIP3   OH256344   5.828   6.339   0.450 -0.2373 -0.1890  0.1836
11618TIP3    H156345   5.851   6.292   0.370  0.6359  0.3091  0.1209
11618TIP3    H256346   5.828   6.431   0.424  0.2261 -0.0121  0.7901
11619TIP3   OH256347   5.186   1.822   1.149 -0.6665 -0.2161 -0.8063
11619TIP3    H156348   5.278   1.795   1.149 -0.9590 -1.3610  0.8297
11619TIP3    H256349   5.158   1.812   1.240 -2.5747 -0.4617 -1.3698
11620TIP3   OH256350   5.027   5.374  12.585  0.1105  0.0903  0.0445
11620TIP3    H156351   4.935   5.353  12.569 -0.0962  3.2647 -5.5573
11620TIP3    H256352   5.074   5.292  12.570 -1.6207 -1.1912  1.3121
11621TIP3   OH256353   3.927   3.866   3.497  0.5166  0.0325  0.1890
11621TIP3    H156354   4.017   3.857   3.528  1.1898 -1.1405 -1.9058
11621TIP3    H256355   3.888   3.779   3.506 -0.2394  0.3993  0.5841
11622TIP3   OH256356   0.412   5.135   4.352  0.3155 -0.4742  0.0131
11622TIP3    H156357   0.322   5.104   4.365 -0.4031  1.0362 -1.0911
11622TIP3    H256358   0.466   5.058   4.368 -1.1732 -1.4246  0.6843
11623TIP3   OH256359   6.801   1.690   3.919  0.1325  0.9598  0.0587
11623TIP3    H156360   6.751   1.684   4.000  0.8274  1.4150  0.5320
11623TIP3    H256361   6.737   1.675   3.849 -0.9815  3.0149  0.5730
11624TIP3   OH256362   6.188   4.643   3.575  0.6046  0.4417  0.5605
11624TIP3    H156363   6.177   4.738   3.569  1.4014  0.5263  0.3921
11624TIP3    H256364   6.100   4.608   3.560  0.2047  1.1698  1.1615
11625TIP3   OH256365   0.678   1.074  12.825 -0.7706 -0.3198  0.0271
11625TIP3    H156366   0.700   1.138  12.893 -1.6434  0.0468 -0.0145
11625TIP3    H256367   0.671   1.126  12.745  1.4966 -0.9308 -0.6275
11626TIP3   OH256368   6.269   0.682  11.223  0.2504  0.9195  0.6699
11626TIP3    H156369   6.196   0.641  11.270  0.0627  0.0975 -0.3082
11626TIP3    H256370   6.233   0.704  11.137  1.4907 -0.8025 -0.3506
11627TIP3   OH256371   0.578   0.891   5.478 -0.1604  0.1832 -0.5538
11627TIP3    H156372   0.546   0.861   5.563 -1.0452 -1.0890 -1.2844
11627TIP3    H256373   0.672   0.904   5.491  0.1866 -2.2909  0.0591
11628TIP3   OH256374   4.780   4.396  13.090 -0.0369 -0.1089 -0.4435
11628TIP3    H156375   4.767   4.341  13.167  2.3469 -1.0153 -0.5868
11628TIP3    H256376   4.796   4.484  13.125 -3.6217  0.5907 -0.2051
11629TIP3   OH256377   0.541   3.057  17.088  0.4898 -0.3753  0.2105
11629TIP3    H156378   0.565   3.011  17.168  1.5208  2.2828  1.5565
11629TIP3    H256379   0.601   3.133  17.085 -1.3047  1.0785 -1.6238
11630TIP3   OH256380   1.120   3.092   5.357 -0.0743  0.8732  0.7605
11630TIP3    H156381   1.051   3.031   5.383  0.6264 -1.3944 -2.1808
11630TIP3    H256382   1.201   3.043   5.368  0.6329  1.7148 -0.4332
11631TIP3   OH256383   4.109   4.724   3.278  0.0633  0.7120 -0.5017
11631TIP3    H156384   4.064   4.640   3.292  1.5468 -0.1521 -0.6327
11631TIP3    H256385   4.067   4.784   3.338 -1.0422 -0.1396 -0.3955
11632TIP3   OH256386   5.417   0.561   6.091  0.0298  0.1076 -0.2734
11632TIP3    H156387   5.322   0.567   6.085 -0.0187 -0.5882 -0.2792
11632TIP3    H256388   5.443   0.638   6.142 -0.7447 -0.8103  1.6035
11633TIP3   OH256389   5.757   4.872   3.099 -0.3647  0.6611  0.1017
11633TIP3    H156390   5.760   4.968   3.091  0.9901  0.5277 -1.5574
11633TIP3    H256391   5.817   4.841   3.032  0.0080 -1.3485  1.3035
11634TIP3   OH256392   4.503   2.413   1.900 -0.3230  0.3608  1.0982
11634TIP3    H156393   4.532   2.503   1.886  0.6607  0.1788  1.8766
11634TIP3    H256394   4.584   2.363   1.911 -0.8832 -0.4447  1.6784
11635TIP3   OH256395   0.280   4.869   4.114 -0.7264  0.5760 -0.2914
11635TIP3    H156396   0.227   4.934   4.161 -0.5226 -0.6003  1.6908
11635TIP3    H256397   0.241   4.785   4.138  1.9603 -0.3384  1.2522
11636TIP3   OH256398   4.958   0.099   2.505 -0.4489 -0.0532  0.4354
11636TIP3    H156399   4.997   0.149   2.434  1.9440  0.9901  2.3214
11636TIP3    H256400   4.948   0.162   2.576 -1.3945 -1.3604  1.5297
11637TIP3   OH256401   4.666   2.712   5.782  0.2733 -0.2512  0.0538
11637TIP3    H156402   4.589   2.656   5.792  0.0558 -0.3864 -1.9812
11637TIP3    H256403   4.648   2.763   5.703  1.6636  0.7466  0.3558
11638TIP3   OH256404   6.316   4.084   6.576 -0.7033  0.3184 -0.1136
11638TIP3    H156405   6.404   4.053   6.551 -0.4269  1.0995 -0.1549
11638TIP3    H256406   6.263   4.005   6.580 -0.6304  0.0415 -2.6158
11639TIP3   OH256407   4.079   3.481  16.574 -0.0911 -0.2919 -0.0388
11639TIP3    H156408   4.020   3.422  16.527 -1.4023  1.1676 -0.3274
11639TIP3    H256409   4.027   3.516  16.645  0.1159  1.6886 -0.8013
11640TIP3   OH256410   3.101   1.058   1.263 -0.2321 -0.1772 -0.5877
11640TIP3    H156411   3.039   1.080   1.332  0.4673 -0.0483  0.0019
11640TIP3    H256412   3.053   1.074   1.182 -1.0761 -0.3905 -0.1395
11641TIP3   OH256413   2.802   4.378  10.675 -0.2725 -0.5076  0.2105
11641TIP3    H156414   2.751   4.336  10.605  2.7692 -0.2337 -2.3678
11641TIP3    H256415   2.822   4.465  10.640  1.2917 -0.3412  1.4368
11642TIP3   OH256416   5.325   6.517   2.425 -0.3845 -0.6789  1.0149
11642TIP3    H156417   5.307   6.473   2.508 -0.1317 -1.0068  0.9005
11642TIP3    H256418   5.321   6.610   2.445  0.2457 -0.7521  1.5258
11643TIP3   OH256419   0.587   0.932  15.527  0.4556 -0.5922  0.2741
11643TIP3    H156420   0.596   0.856  15.470  2.3546  0.0069 -0.2799
11643TIP3    H256421   0.667   0.933  15.578  0.3972  0.9564  0.3668
11644TIP3   OH256422   0.624   3.710   3.797 -0.0240  0.3072  0.0601
11644TIP3    H156423   0.572   3.689   3.719  1.0737 -0.6904 -0.4422
11644TIP3    H256424   0.693   3.644   3.797  0.6864  1.0306  1.2336
11645TIP3   OH256425   5.012   2.907   6.144  0.0575 -0.3157  0.2087
11645TIP3    H156426   4.943   2.841   6.159 -0.0358  0.2785  2.7183
11645TIP3    H256427   5.092   2.864   6.172  0.0872  0.4087  1.2569
11646TIP3   OH256428   3.036   1.660  16.949 -0.0065 -0.6333 -0.0440
11646TIP3    H156429   3.106   1.683  17.010  0.0527 -0.4129 -0.1954
11646TIP3    H256430   3.050   1.717  16.873 -0.3711 -0.5622 -0.0600
11647TIP3   OH256431   0.435   5.830  11.916 -0.3773  0.1674 -0.6460
11647TIP3    H156432   0.444   5.755  11.857  3.0319 -0.0281 -0.0763
11647TIP3    H256433   0.520   5.874  11.912 -0.5951  1.1821  2.7578
11648TIP3   OH256434   1.012   3.936   3.856 -0.0885  0.1784  0.4007
11648TIP3    H156435   0.980   3.889   3.778  0.8718  0.1890 -0.0047
11648TIP3    H256436   1.069   3.874   3.900  1.4769  1.0320 -0.3263
11649TIP3   OH256437   4.264   1.101  16.001  0.6044  0.0109 -0.0994
11649TIP3    H156438   4.303   1.186  16.020 -0.0733 -0.0910  2.0286
11649TIP3    H256439   4.338   1.041  15.999  0.9635  0.4565 -0.3329
11650TIP3   OH256440   4.415   1.591   2.533 -0.6432  0.5782 -0.0902
11650TIP3    H156441   4.373   1.672   2.560 -0.9275  1.4243 -2.7575
11650TIP3    H256442   4.508   1.611   2.531 -0.6345  0.5576  0.0879
11651TIP3   OH256443   3.920   2.555   3.087  0.1884 -0.4943 -0.3370
11651TIP3    H156444   3.895   2.647   3.087  0.6160 -0.3484  1.2516
11651TIP3    H256445   3.946   2.537   2.997 -0.6930  0.7027 -0.8616
11652TIP3   OH256446   3.360   0.741   0.389  0.5209 -0.2446 -0.2025
11652TIP3    H156447   3.323   0.653   0.395 -1.6274  0.5273 -0.9682
11652TIP3    H256448   3.383   0.764   0.479 -1.7116 -0.5191  0.5029
11653TIP3   OH256449   6.305   2.998   0.119 -0.2772  0.2667  0.0580
11653TIP3    H156450   6.394   2.967   0.137 -1.0897 -1.2217  1.7653
11653TIP3    H256451   6.316   3.091   0.101  1.6345  0.0961  0.0857
11654TIP3   OH256452   2.563   1.583   3.500  0.2466  0.2486 -0.2040
11654TIP3    H156453   2.560   1.557   3.408  0.3051  0.3469 -0.2347
11654TIP3    H256454   2.645   1.546   3.533  0.7746  1.1377 -0.4814
11655TIP3   OH256455   3.638   3.061  11.224 -0.6737 -0.8463 -0.1571
11655TIP3    H156456   3.693   3.007  11.167 -1.1411 -0.3013 -1.1447
11655TIP3    H256457   3.611   3.135  11.169 -3.1096 -1.5259 -0.0024
11656TIP3   OH256458   2.546   6.423   0.324 -0.6469 -0.0499 -0.1143
11656TIP3    H156459   2.484   6.457   0.259  0.7131  0.8431 -0.9874
11656TIP3    H256460   2.570   6.336   0.291 -2.0651 -0.8030  0.7055
11657TIP3   OH256461   6.750   1.214  12.782 -0.6846  0.6788  0.0551
11657TIP3    H156462   6.834   1.253  12.760 -1.1801  0.9429 -1.4966
11657TIP3    H256463   6.742   1.139  12.723 -0.8375 -0.3427  1.3143
11658TIP3   OH256464   5.710   5.813  12.952 -0.4634 -0.3560 -0.2376
11658TIP3    H156465   5.719   5.891  13.007  2.9784 -0.1567 -0.9095
11658TIP3    H256466   5.635   5.833  12.896 -1.2770  1.3379  1.3249
11659TIP3   OH256467   0.121   0.594   4.733 -0.3391  0.0683  0.2758
11659TIP3    H156468   0.131   0.594   4.828 -0.1804  0.7964  0.2663
11659TIP3    H256469   0.168   0.516   4.704 -1.5577 -0.9185  0.9005
11660TIP3   OH256470   4.417   4.554  15.576  0.3184  0.4989  1.1292
11660TIP3    H156471   4.435   4.590  15.490  2.4269  0.7115  1.6040
11660TIP3    H256472   4.327   4.521  15.570  0.1794  1.1143 -0.9138
11661TIP3   OH256473   0.509   4.498  14.120  0.2146  0.3279  0.0513
11661TIP3    H156474   0.446   4.528  14.185  2.0676  2.2525  1.1107
11661TIP3    H256475   0.551   4.422  14.159 -0.8141 -0.4357 -0.2924
11662TIP3   OH256476   1.776   2.124   2.712  0.3306  0.2915  0.2925
11662TIP3    H156477   1.715   2.055   2.687 -1.2654  0.8449  2.4359
11662TIP3    H256478   1.795   2.107   2.804  0.4713  2.2938  0.6634
11663TIP3   OH256479   3.538   0.229  16.090 -0.5049 -0.3744 -0.1192
11663TIP3    H156480   3.453   0.265  16.065 -1.2116 -1.4139  0.7218
11663TIP3    H256481   3.597   0.305  16.090 -1.9254  0.8164  1.5677
11664TIP3   OH256482   3.777   4.415   1.366  0.7353  0.7025  0.3410
11664TIP3    H156483   3.700   4.361   1.382  1.4417 -0.9024 -1.2055
11664TIP3    H256484   3.762   4.453   1.280  1.2377  1.1603  0.4539
11665TIP3   OH256485   6.370   5.002  10.504 -0.0804  0.5288 -0.6491
11665TIP3    H156486   6.358   4.999  10.410 -0.9757  0.2378 -0.5306
11665TIP3    H256487   6.464   4.985  10.517 -0.1167 -0.3064 -1.4305
11666TIP3   OH256488   1.875   3.154  15.399 -0.1300 -0.0078  0.3916
11666TIP3    H156489   1.831   3.118  15.476 -2.1050  0.9790 -0.2305
11666TIP3    H256490   1.805   3.187  15.343  1.3574  1.0493 -0.9626
11667TIP3   OH256491   2.314   4.661   0.443 -0.0606  0.5292  0.0045
11667TIP3    H156492   2.362   4.578   0.436 -0.7287  0.0507  0.8556
11667TIP3    H256493   2.358   4.707   0.515 -0.5810  0.2845  0.4859
11668TIP3   OH256494   0.070   2.579  16.778 -0.2675 -0.4703 -0.6369
11668TIP3    H156495   0.026   2.496  16.800 -0.0196  0.2360  3.0430
11668TIP3    H256496   0.115   2.605  16.858  0.3468  2.8616 -1.8972
11669TIP3   OH256497   3.209   5.541   4.576 -0.2193 -0.3275 -0.2963
11669TIP3    H156498   3.270   5.479   4.536  0.4955  0.3383 -0.2529
11669TIP3    H256499   3.151   5.486   4.629  1.5610 -0.8041  1.2458
11670TIP3   OH256500   6.776   4.394  15.149  0.0239 -0.0658  0.0183
11670TIP3    H156501   6.704   4.445  15.184  0.7543 -0.2610  1.8861
11670TIP3    H256502   6.750   4.303  15.162  0.8816 -0.1430  1.3783
11671TIP3   OH256503   6.743   6.189   2.613 -0.1056 -0.3864 -0.1879
11671TIP3    H156504   6.787   6.124   2.669 -1.0467 -0.5602  0.3756
11671TIP3    H256505   6.666   6.143   2.580 -0.9602  0.5265  0.4771
11672TIP3   OH256506   3.315   0.426  13.220 -0.0052 -0.7062 -0.4973
11672TIP3    H156507   3.232   0.388  13.250  0.1795  0.9035  2.3946
11672TIP3    H256508   3.289   0.508  13.177  0.0587  0.5101  1.6448
11673TIP3   OH256509   2.403   5.115  11.901 -0.3821 -0.0816  0.3766
11673TIP3    H156510   2.333   5.068  11.855  0.3673 -0.1583 -0.7128
11673TIP3    H256511   2.357   5.162  11.971 -1.3851 -0.9406  0.3341
11674TIP3   OH256512   2.678   1.780  12.353 -0.2850  0.7483  0.3237
11674TIP3    H156513   2.760   1.740  12.382 -0.1939  1.5376  1.2394
11674TIP3    H256514   2.694   1.804  12.262 -0.4844 -1.5826 -0.3945
11675TIP3   OH256515   3.202   4.449   4.749  0.1826  0.5377  0.1677
11675TIP3    H156516   3.283   4.457   4.800  2.0316 -1.4885 -2.1954
11675TIP3    H256517   3.163   4.536   4.752  2.1959  1.4584  1.8161
11676TIP3   OH256518   2.008   6.154  16.785 -0.1962 -0.2014  0.3977
11676TIP3    H156519   2.093   6.110  16.779  1.2810  2.4803 -0.2433
11676TIP3    H256520   1.982   6.166  16.693  0.6922  2.3079  0.3942
11677TIP3   OH256521   0.635   1.461   4.707  0.2306  0.0750 -0.6599
11677TIP3    H156522   0.583   1.524   4.657  1.4471  1.2266 -0.5173
11677TIP3    H256523   0.590   1.455   4.791  0.5024  1.3477 -0.4037
11678TIP3   OH256524   2.475   3.485   1.441  0.3216 -0.0616  0.2509
11678TIP3    H156525   2.429   3.535   1.509 -2.1731 -1.2069 -0.4761
11678TIP3    H256526   2.426   3.503   1.361 -0.4159 -3.2059 -0.1288
11679TIP3   OH256527   6.078   2.464   5.365 -0.3539 -0.2424 -0.0285
11679TIP3    H156528   6.159   2.414   5.368  0.7959  1.5062  0.0465
11679TIP3    H256529   6.015   2.411   5.414 -0.1116 -2.9499 -2.3823
11680TIP3   OH256530   1.773   2.309  15.787 -0.3690  0.0681  0.0316
11680TIP3    H156531   1.821   2.238  15.832 -1.9878 -1.3423 -0.3729
11680TIP3    H256532   1.753   2.372  15.856 -2.3564 -1.8058  1.2900
11681TIP3   OH256533   1.889   0.540  11.579  0.0681  0.0667 -0.8128
11681TIP3    H156534   1.920   0.450  11.594 -0.0839  0.0799 -0.4041
11681TIP3    H256535   1.827   0.555  11.650  1.2737  1.0657  0.0596
11682TIP3   OH256536   3.570   2.769  11.539 -0.4105  0.0529 -0.1449
11682TIP3    H156537   3.581   2.718  11.459 -1.4336 -2.5774  1.2580
11682TIP3    H256538   3.659   2.796  11.562  0.2480 -1.4232 -0.7943
11683TIP3   OH256539   3.862   4.629  12.939  0.3494  0.0825  0.6129
11683TIP3    H156540   3.871   4.585  13.024  1.6238  0.4374  0.6936
11683TIP3    H256541   3.826   4.562  12.881 -0.4651 -0.1870  1.4043
11684TIP3   OH256542   4.844   4.693  13.131 -0.4325  0.7364  0.7518
11684TIP3    H156543   4.829   4.678  13.224 -1.1900 -0.7446  0.4254
11684TIP3    H256544   4.760   4.725  13.098 -0.6003 -0.0680  0.3546
11685TIP3   OH256545   3.703   0.366  15.384  0.2077  0.2347  0.2327
11685TIP3    H156546   3.755   0.308  15.328 -0.7524 -1.4584  0.9881
11685TIP3    H256547   3.713   0.330  15.472 -3.5753 -1.3990  0.2116
11686TIP3   OH256548   4.991   2.432  13.520  1.0022 -0.9611 -0.8540
11686TIP3    H156549   5.025   2.429  13.431 -0.2005 -1.7707 -1.3098
11686TIP3    H256550   4.995   2.341  13.550 -1.0140 -1.1489 -1.0524
11687TIP3   OH256551   4.893   4.092   0.167 -0.0248  0.1544  0.3345
11687TIP3    H156552   4.820   4.148   0.192 -0.4861 -0.0115 -0.6103
11687TIP3    H256553   4.867   4.005   0.195  0.2961  0.2614  0.9834
11688TIP3   OH256554   3.484   4.583  13.513  0.0940  0.6806  0.0441
11688TIP3    H156555   3.485   4.492  13.484  1.4561  0.1201  1.7052
11688TIP3    H256556   3.576   4.606  13.528 -0.3491  1.5748  1.7873
11689TIP3   OH256557   6.587   0.799   0.134  0.3386  0.3272  0.4279
11689TIP3    H156558   6.625   0.799   0.046 -0.5733  0.1836  0.0163
11689TIP3    H256559   6.641   0.861   0.184 -0.4099  2.0595 -0.8092
11690TIP3   OH256560   1.599   5.019  14.506  0.6307 -0.1438 -0.4167
11690TIP3    H156561   1.586   5.094  14.447  2.1129 -1.2896 -2.3539
11690TIP3    H256562   1.513   4.980  14.515 -0.0160  1.2935 -0.0474
11691TIP3   OH256563   2.240   4.348   5.767 -0.3603  0.2090 -0.1566
11691TIP3    H156564   2.223   4.372   5.858 -1.7910 -3.0677  0.5890
11691TIP3    H256565   2.155   4.351   5.724  0.2183  1.2453 -1.3138
11692TIP3   OH256566   6.397   5.771  16.469 -0.5645 -0.2075 -0.0796
11692TIP3    H156567   6.479   5.743  16.509  0.3526 -0.0883 -1.8360
11692TIP3    H256568   6.408   5.865  16.453 -1.1281 -0.1463 -0.1518
11693TIP3   OH256569   4.125   6.820   1.168  0.4183  0.1165 -1.0667
11693TIP3    H156570   4.072   6.871   1.106  0.1584  0.5319 -0.5093
11693TIP3    H256571   4.214   6.850   1.152  0.2897  0.6162 -0.8697
11694TIP3   OH256572   2.030   5.089  15.157 -0.0109 -0.3393  0.1973
11694TIP3    H156573   2.021   4.994  15.154  0.6794 -0.4388  0.9934
11694TIP3    H256574   2.112   5.104  15.205 -0.7060  0.6679  1.1172
11695TIP3   OH256575   5.050   0.278  16.758 -0.4070  0.0269  0.4224
11695TIP3    H156576   5.071   0.191  16.725  0.7410  0.1773  0.7233
11695TIP3    H256577   5.105   0.288  16.836  1.0037  1.7969 -0.7313
11696TIP3   OH256578   4.126   0.096   3.377 -0.0866  0.4007 -0.4642
11696TIP3    H156579   4.169   0.057   3.454  0.0279  3.1803  1.0073
11696TIP3    H256580   4.054   0.036   3.357  1.1355 -1.4936  0.4498
11697TIP3   OH256581   1.848   3.361  14.318  0.1039  0.1818 -0.5334
11697TIP3    H156582   1.858   3.289  14.379  2.2988  0.5793 -0.3418
11697TIP3    H256583   1.917   3.347  14.253  0.5343  2.0395 -0.5293
11698TIP3   OH256584   6.565   4.707  13.288 -0.1618 -0.3241  0.1450
11698TIP3    H156585   6.554   4.624  13.335  0.2214 -0.8009 -0.5762
11698TIP3    H256586   6.658   4.725  13.294  0.2042 -1.2566 -1.7856
11699TIP3   OH256587   6.542   1.168  11.309 -0.4272  0.1232 -0.6262
11699TIP3    H156588   6.531   1.230  11.381 -1.5827 -1.2877  0.4919
11699TIP3    H256589   6.587   1.093  11.349 -0.9157 -0.6047 -1.4043
11700TIP3   OH256590   5.166   1.941  12.428 -0.1751  0.3665 -0.4902
11700TIP3    H156591   5.157   1.858  12.381  2.3993 -1.2221  1.5720
11700TIP3    H256592   5.144   1.919  12.519 -0.1847  2.1441 -0.0361
11701TIP3   OH256593   0.439   5.110  17.080 -0.0304 -0.4211 -0.0402
11701TIP3    H156594   0.438   5.189  17.025  0.4885  0.2454  0.8820
11701TIP3    H256595   0.481   5.138  17.161 -1.2289 -1.2432  0.9066
11702TIP3   OH256596   5.130   4.763  16.215 -0.5451 -0.0631  0.1272
11702TIP3    H156597   5.217   4.722  16.218  0.1013  1.2941  2.4516
11702TIP3    H256598   5.070   4.690  16.203  0.7926 -1.2578  0.3597
11703TIP3   OH256599   4.627   2.808  16.800 -0.0799 -0.1881 -0.2564
11703TIP3    H156600   4.608   2.890  16.755 -1.5684 -0.3866 -0.0473
11703TIP3    H256601   4.588   2.818  16.886  0.0622 -0.9655 -0.0932
11704TIP3   OH256602   0.823   0.103  12.473  0.3430 -0.5437  0.0813
11704TIP3    H156603   0.899   0.108  12.414  0.4050 -0.7416  0.1423
11704TIP3    H256604   0.858   0.130  12.559  0.0332  0.7239 -0.1615
11705TIP3   OH256605   5.758   0.855  14.541  0.6019  0.2235  0.7131
11705TIP3    H156606   5.742   0.887  14.630  0.1171  0.8222  0.4177
11705TIP3    H256607   5.680   0.806  14.517  0.1108  1.2822  0.0899
11706TIP3   OH256608   6.831   2.682   5.370 -0.2310  0.4900 -0.2659
11706TIP3    H156609   6.886   2.752   5.404 -0.7471  1.1743 -0.7949
11706TIP3    H256610   6.875   2.654   5.290  0.8623 -0.9640  0.7892
11707TIP3   OH256611   1.562   2.665  12.070  0.5922  0.0292 -0.1027
11707TIP3    H156612   1.636   2.698  12.020 -0.4606 -0.8576 -2.4089
11707TIP3    H256613   1.576   2.571  12.075  1.0736  0.1626  2.0849
11708TIP3   OH256614   6.155   0.270  11.027 -0.4263  0.5627 -0.2932
11708TIP3    H156615   6.250   0.279  11.032 -0.1587 -2.0170  1.1023
11708TIP3    H256616   6.122   0.333  11.090  0.6198 -0.7201  1.6577
11709TIP3   OH256617   2.487   2.342  10.485  0.2082 -0.4180 -0.0596
11709TIP3    H156618   2.415   2.404  10.498  0.3885 -0.6582  2.5418
11709TIP3    H256619   2.555   2.394  10.442  0.3330  1.2524  1.9947
11710TIP3   OH256620   2.266   3.668   4.669 -0.4171 -0.2661 -0.1035
11710TIP3    H156621   2.314   3.592   4.704 -0.3780 -0.1190  0.1659
11710TIP3    H256622   2.329   3.740   4.675 -1.1306  0.2649  1.6344
11711TIP3   OH256623   2.493   0.141  14.294  0.1694  0.2823  0.1878
11711TIP3    H156624   2.553   0.191  14.348  1.5053 -0.1879 -0.8178
11711TIP3    H256625   2.441   0.207  14.248  2.8394  0.9603 -2.1943
11712TIP3   OH256626   6.524   2.909  12.318 -0.0696 -0.3770  0.2581
11712TIP3    H156627   6.498   2.965  12.245 -1.7212 -0.9185  0.3848
11712TIP3    H256628   6.485   2.824  12.298  0.8768 -0.9969  0.9558
11713TIP3   OH256629   3.610   6.519   5.388  0.2319  0.1940  0.0794
11713TIP3    H156630   3.638   6.485   5.303  2.5192  0.9559  0.4541
11713TIP3    H256631   3.605   6.614   5.376  0.4702  0.2976  0.7731
11714TIP3   OH256632   3.048   2.867   0.113  0.0857 -0.3629 -0.4382
11714TIP3    H156633   3.062   2.918   0.033 -0.2153  0.2795 -0.0918
11714TIP3    H256634   3.019   2.932   0.178  0.9863 -0.7579  0.3828
11715TIP3   OH256635   1.678   5.904   4.403  0.3224 -0.2899  0.9339
11715TIP3    H156636   1.771   5.913   4.385  0.2086  1.5021  1.0791
11715TIP3    H256637   1.663   5.953   4.484 -1.1986  2.0467 -0.6365
11716TIP3   OH256638   3.589   0.929  16.359  0.1059 -0.4839  0.0552
11716TIP3    H156639   3.542   0.850  16.335 -0.7541  0.0855 -0.1516
11716TIP3    H256640   3.656   0.938  16.291  0.2327 -1.0446  0.0959
11717TIP3   OH256641   5.546   3.531  13.197 -0.6771  0.5291 -0.0871
11717TIP3    H156642   5.505   3.447  13.217 -1.1554  0.5967 -0.7382
11717TIP3    H256643   5.560   3.572  13.282 -0.4199 -0.2191  0.2363
11718TIP3   OH256644   3.203   2.067  12.388 -0.8283  0.5177 -0.5590
11718TIP3    H156645   3.244   2.118  12.458 -1.6964 -0.6484  0.8467
11718TIP3    H256646   3.213   1.976  12.415 -2.5007  0.0990 -1.1941
11719TIP3   OH256647   3.502   2.699  13.500  0.2800 -0.2328 -0.0996
11719TIP3    H156648   3.555   2.738  13.569 -0.7540 -0.6373  0.9462
11719TIP3    H256649   3.452   2.630  13.544  0.2548 -1.0983 -1.4214
11720TIP3   OH256650   0.643   3.181  14.378 -0.0334  0.3776 -0.1677
11720TIP3    H156651   0.558   3.138  14.388 -1.0580  1.7212 -2.4056
11720TIP3    H256652   0.688   3.128  14.311  0.1972  0.6553 -0.2320
11721TIP3   OH256653   2.234   4.588   2.540  0.0964 -0.2788  0.0669
11721TIP3    H156654   2.283   4.665   2.569  2.4271 -1.7662  0.3540
11721TIP3    H256655   2.216   4.605   2.447  0.8687  0.4741  0.0398
11722TIP3   OH256656   1.966   0.758   0.950  0.0139 -0.3087 -0.1358
11722TIP3    H156657   1.883   0.712   0.960 -0.0886 -0.1189 -0.1010
11722TIP3    H256658   2.007   0.753   1.036  0.3627 -1.0139 -0.3355
11723TIP3   OH256659   4.239   0.854   1.603  0.0232 -0.1300 -0.2871
11723TIP3    H156660   4.244   0.805   1.685 -0.4077 -0.1881 -0.2981
11723TIP3    H256661   4.292   0.932   1.619  1.4346 -0.9949 -0.5525
11724TIP3   OH256662   4.032   4.247   1.029 -0.1675 -0.7653  0.4956
11724TIP3    H156663   4.031   4.328   0.978  0.6322 -1.5350 -0.8031
11724TIP3    H256664   4.001   4.273   1.116  0.1553  0.9366  0.1372
11725TIP3   OH256665   6.269   6.406   1.367  0.4820 -0.0932  0.0102
11725TIP3    H156666   6.247   6.322   1.407  2.8127 -0.7020  0.1537
11725TIP3    H256667   6.322   6.451   1.433 -0.0785  1.1803 -0.3763
11726TIP3   OH256668   3.490   1.451   3.537 -0.0266  0.3072 -0.4922
11726TIP3    H156669   3.522   1.365   3.566 -0.0421  0.4725  0.0121
11726TIP3    H256670   3.404   1.433   3.501 -0.3274  0.2153  0.2592
11727TIP3   OH256671   4.903   2.017   6.051 -0.7233 -0.0695 -1.3081
11727TIP3    H156672   4.847   2.036   6.127  0.2027 -0.2998 -0.5388
11727TIP3    H256673   4.992   2.029   6.084 -0.2817 -0.8289 -2.1789
11728TIP3   OH256674   2.674   3.119  11.737  0.2147  0.0119 -0.1550
11728TIP3    H156675   2.757   3.133  11.692  0.0518  0.9333 -0.1943
11728TIP3    H256676   2.618   3.191  11.708 -0.7503 -0.8235 -0.4671
11729TIP3   OH256677   0.923   0.472   5.643 -0.7194  0.0822  0.1393
11729TIP3    H156678   0.866   0.494   5.717 -0.1396  0.0031  0.6086
11729TIP3    H256679   1.008   0.451   5.682 -0.9102 -1.8717 -0.3717
11730TIP3   OH256680   2.273   6.476  14.598 -0.0964  0.1399 -0.1151
11730TIP3    H156681   2.238   6.544  14.539  0.4848  0.3930 -0.1762
11730TIP3    H256682   2.220   6.485  14.678 -0.3242  0.3634 -0.2872
11731TIP3   OH256683   5.424   2.533   3.010  0.4619  0.0223  0.1344
11731TIP3    H156684   5.444   2.574   3.094 -0.4725  1.5291 -0.3485
11731TIP3    H256685   5.509   2.517   2.970  0.8798  0.2895  0.8895
11732TIP3   OH256686   3.484   4.737  15.792 -0.1441  0.4225 -0.3537
11732TIP3    H156687   3.402   4.750  15.745 -0.7998  0.2969  0.7379
11732TIP3    H256688   3.470   4.660  15.846  0.0417  1.4321  1.2086
11733TIP3   OH256689   0.554   4.383  12.668  0.1062 -0.6810 -0.1208
11733TIP3    H156690   0.551   4.309  12.727 -0.8643 -0.0059  0.7232
11733TIP3    H256691   0.535   4.346  12.582 -0.3990 -1.4111  0.2917
11734TIP3   OH256692   4.222   4.406   1.372 -0.1106 -0.0077 -0.1826
11734TIP3    H156693   4.311   4.432   1.395 -0.4306  2.6629 -1.6084
11734TIP3    H256694   4.221   4.311   1.386  2.8819 -0.1103  0.0443
11735TIP3   OH256695   2.523   1.251   2.673 -0.1960  0.0944 -0.3531
11735TIP3    H156696   2.580   1.196   2.726  1.1223  0.0724 -1.7282
11735TIP3    H256697   2.559   1.339   2.682  1.7953 -0.2609 -3.2215
11736TIP3   OH256698   4.522   6.012  16.531 -0.3594  0.0370  0.8701
11736TIP3    H156699   4.554   5.957  16.459 -0.9520 -2.2350  2.2287
11736TIP3    H256700   4.601   6.053  16.566  0.2948 -0.8768  0.5197
11737TIP3   OH256701   1.913   3.684  16.044  0.2818 -0.0646 -0.2803
11737TIP3    H156702   1.961   3.693  15.962  1.0131 -0.5598  0.0760
11737TIP3    H256703   1.845   3.619  16.025  0.2533  0.0495 -0.5721
11738TIP3   OH256704   5.084   0.686  16.596  0.0125 -0.3386 -0.7856
11738TIP3    H156705   5.146   0.620  16.627 -0.8283 -0.7144  0.1414
11738TIP3    H256706   5.065   0.660  16.506  0.8413 -0.4810 -0.9278
11739TIP3   OH256707   6.573   2.182  14.282  0.6980 -0.3706  0.3531
11739TIP3    H156708   6.626   2.224  14.215  0.2159 -0.5121 -0.1259
11739TIP3    H256709   6.592   2.230  14.363  2.6504 -1.3271  0.5206
11740TIP3   OH256710   1.524   4.033   2.741  0.0798 -0.7183 -0.2051
11740TIP3    H156711   1.459   4.021   2.809  0.5099  1.1680  0.6120
11740TIP3    H256712   1.573   3.951   2.738 -0.3417 -1.0430  1.3387
11741TIP3   OH256713   6.673   2.895  14.876 -0.7627  0.7334  0.2810
11741TIP3    H156714   6.629   2.916  14.958 -2.0458  1.1361 -0.4816
11741TIP3    H256715   6.621   2.939  14.809 -0.0869 -0.0703 -0.8042
11742TIP3   OH256716   3.006   6.336   3.359  0.0191 -0.1501  0.3916
11742TIP3    H156717   2.924   6.384   3.348 -0.1809 -0.0625  1.9510
11742TIP3    H256718   3.016   6.285   3.279  0.3001  2.5465 -1.4447
11743TIP3   OH256719   2.196   0.870   0.151 -0.1994 -0.4395 -0.3029
11743TIP3    H156720   2.263   0.810   0.118  1.2200  1.6170 -1.4152
11743TIP3    H256721   2.210   0.872   0.246  1.0598 -0.3816 -0.4780
11744TIP3   OH256722   1.345   5.278   0.689  0.2143 -0.4408  0.3522
11744TIP3    H156723   1.405   5.206   0.709  2.4901  1.5441  1.2145
11744TIP3    H256724   1.358   5.295   0.596  1.2756  0.1306  0.5800
11745TIP3   OH256725   0.058   2.004  11.392 -1.0239 -0.0329 -0.1597
11745TIP3    H156726  -0.009   2.064  11.425 -1.1110  0.0827 -0.5411
11745TIP3    H256727   0.048   2.007  11.297  0.4773  1.0912 -0.2993
11746TIP3   OH256728   4.692   0.343  12.327  0.4354  0.2578  0.3061
11746TIP3    H156729   4.728   0.256  12.347 -0.9932  0.0648  2.3401
11746TIP3    H256730   4.678   0.342  12.233  0.4829 -1.7086  0.2794
11747TIP3   OH256731   0.273   3.631   4.432 -0.4706  0.1689  0.1732
11747TIP3    H156732   0.202   3.597   4.487 -0.0100 -0.1000  0.6037
11747TIP3    H256733   0.352   3.616   4.483  0.3243 -2.6061 -1.6604
11748TIP3   OH256734   2.882   4.567   2.565  0.0157 -0.0128  0.2684
11748TIP3    H156735   2.813   4.506   2.592  0.9139 -0.8525  0.7309
11748TIP3    H256736   2.894   4.550   2.472 -0.8018  0.5721  0.0358
11749TIP3   OH256737   5.352   6.703   5.803  0.0302 -0.7615  0.5830
11749TIP3    H156738   5.343   6.788   5.846 -0.2226 -0.6657  0.3421
11749TIP3    H256739   5.351   6.640   5.875 -1.4868 -0.6841  0.6578
11750TIP3   OH256740   6.744   0.110   1.768  0.4189 -0.2846  0.3868
11750TIP3    H156741   6.784   0.142   1.850  0.6263 -1.2785  0.6921
11750TIP3    H256742   6.743   0.014   1.778 -1.1345 -0.3380 -0.0490
11751TIP3   OH256743   1.355   3.649   0.229  0.2490 -0.8810 -0.1972
11751TIP3    H156744   1.421   3.670   0.295  0.7927 -0.8290 -0.7579
11751TIP3    H256745   1.293   3.722   0.234  0.2296 -0.9287  0.3273
11752TIP3   OH256746   4.338   1.717  11.549 -0.0041  0.5545  0.1125
11752TIP3    H156747   4.338   1.731  11.455 -2.1077  1.1670  0.1578
11752TIP3    H256748   4.312   1.801  11.587  0.7272  0.2990  1.2489
11753TIP3   OH256749   0.541   5.380   5.790  0.0368  0.0395 -0.0945
11753TIP3    H156750   0.617   5.353   5.842  0.5424  1.0103 -0.3183
11753TIP3    H256751   0.522   5.304   5.735  0.8506 -0.2160 -0.0386
11754TIP3   OH256752   4.376   4.251  15.074  0.2866  0.3235  0.1080
11754TIP3    H156753   4.400   4.180  15.015  0.9312  0.6391 -0.0230
11754TIP3    H256754   4.349   4.322  15.016 -1.1503 -0.0763  0.2569
11755TIP3   OH256755   1.381   0.278  16.953  0.8573 -0.2803  0.2333
11755TIP3    H156756   1.359   0.251  16.864 -0.9917 -1.6143  1.0399
11755TIP3    H256757   1.306   0.331  16.981 -0.8359 -3.4770  2.4351
11756TIP3   OH256758   4.751   3.602   3.581 -0.2586  0.1539  0.6616
11756TIP3    H156759   4.736   3.693   3.557 -0.7112  0.2789  1.3822
11756TIP3    H256760   4.797   3.564   3.506 -0.1757  0.9405  0.3087
11757TIP3   OH256761   6.385   2.808  13.237  0.2846  0.5223 -0.0508
11757TIP3    H156762   6.480   2.809  13.248  0.3327 -1.6148  0.1190
11757TIP3    H256763   6.371   2.784  13.145 -0.0956 -0.0358  0.1514
11758TIP3   OH256764   5.358   4.172   0.695 -0.3123  1.4082  0.6768
11758TIP3    H156765   5.367   4.226   0.774  1.6543  1.2675  0.6047
11758TIP3    H256766   5.309   4.226   0.634 -1.5371  1.6726  1.8404
11759TIP3   OH256767   5.218   0.441  15.722  0.4385  0.7572  0.1890
11759TIP3    H156768   5.135   0.480  15.694  0.7345  2.4716  1.5049
11759TIP3    H256769   5.273   0.442  15.644 -0.1664  1.3164 -0.2421
11760TIP3   OH256770   3.351   5.738   2.682 -0.3421  0.6430  0.0807
11760TIP3    H156771   3.277   5.678   2.689 -0.1059  0.5481  3.6003
11760TIP3    H256772   3.420   5.697   2.734 -0.3348  3.9636  3.1508
11761TIP3   OH256773   0.216   5.640  11.358  0.2682 -0.2605  0.5592
11761TIP3    H156774   0.201   5.693  11.437  0.3828  0.2518  0.2390
11761TIP3    H256775   0.209   5.549  11.389 -0.2354 -0.0636  1.0557
11762TIP3   OH256776   4.890   5.858  17.156 -0.5902  0.3200 -0.0199
11762TIP3    H156777   4.831   5.925  17.190  0.3246  1.6302 -0.9334
11762TIP3    H256778   4.977   5.882  17.188 -0.1277  0.0211 -0.9862
11763TIP3   OH256779   2.133   5.273   6.480  0.1231 -0.0823  0.0693
11763TIP3    H156780   2.089   5.188   6.491 -1.0710  0.6854  1.7921
11763TIP3    H256781   2.220   5.251   6.449 -0.2100 -1.9322  0.3088
11764TIP3   OH256782   1.380   2.856   1.969 -0.3295 -0.1465 -0.2640
11764TIP3    H156783   1.455   2.805   2.000 -1.4864 -1.1127  1.0996
11764TIP3    H256784   1.411   2.899   1.889  1.0298 -2.1887 -0.9281
11765TIP3   OH256785   4.588   5.723  15.027  0.0337 -0.1036  0.1850
11765TIP3    H156786   4.553   5.811  15.037  0.0087 -0.0837 -0.0883
11765TIP3    H256787   4.593   5.689  15.117 -1.3682 -0.3784  0.1731
11766TIP3   OH256788   2.962   2.425  14.757  0.5437 -0.1297 -0.3524
11766TIP3    H156789   2.910   2.364  14.808 -0.9732  1.4568  0.0897
11766TIP3    H256790   2.996   2.373  14.684 -1.4735 -1.2818 -0.5405
11767TIP3   OH256791   6.298   5.162   5.850 -0.2296 -0.4983 -0.7119
11767TIP3    H156792   6.265   5.252   5.859  0.8206 -0.2156  0.5521
11767TIP3    H256793   6.274   5.119   5.932 -0.5772 -1.3380 -1.2397
11768TIP3   OH256794   0.246   5.412  10.434  0.0182  0.1711  0.2354
11768TIP3    H156795   0.162   5.398  10.479  0.0204 -0.8653 -0.0598
11768TIP3    H256796   0.223   5.461  10.355 -0.2219  0.4317  0.4621
11769TIP3   OH256797   0.043   2.096   2.018 -0.0045  0.7176  0.1378
11769TIP3    H156798   0.071   2.048   1.940  0.0055 -0.5057  0.8727
11769TIP3    H256799   0.038   2.187   1.989 -0.3345  0.2463 -1.3808
11770TIP3   OH256800   0.621   6.225   1.530 -0.0898  0.0715 -0.5892
11770TIP3    H156801   0.556   6.261   1.470 -0.3187  0.2715 -0.2274
11770TIP3    H256802   0.698   6.281   1.518 -0.7507  1.3124  0.6516
11771TIP3   OH256803   4.082   5.731   5.856 -0.1717 -0.1042  0.2769
11771TIP3    H156804   4.014   5.677   5.815 -0.6926 -0.8376  1.9870
11771TIP3    H256805   4.154   5.731   5.793 -1.0353 -0.9008 -0.7543
11772TIP3   OH256806   3.368   3.830  13.749  0.2821  0.9811  0.5992
11772TIP3    H156807   3.361   3.916  13.708 -2.3039  0.2822 -0.6809
11772TIP3    H256808   3.287   3.821  13.800 -0.2415 -1.2444 -0.5084
11773TIP3   OH256809   6.312   6.583  12.443  0.2715 -0.9344  0.2390
11773TIP3    H156810   6.253   6.528  12.391 -0.0857  0.2993 -0.6940
11773TIP3    H256811   6.317   6.665  12.395 -0.8821  0.6457  2.6398
11774TIP3   OH256812   0.208   3.484   0.603  0.4134  0.3991 -0.2290
11774TIP3    H156813   0.134   3.518   0.553  0.3658  0.5324 -0.0682
11774TIP3    H256814   0.271   3.455   0.537  0.7415  1.4025 -0.3808
11775TIP3   OH256815   3.772   6.631  12.942 -1.2751 -0.0020  0.1986
11775TIP3    H156816   3.724   6.607  12.863  0.8416  0.9690 -1.4948
11775TIP3    H256817   3.750   6.724  12.956  1.3339  1.0109 -1.6850
11776TIP3   OH256818   2.722   4.400   3.153 -0.2338 -0.7480 -0.2334
11776TIP3    H156819   2.643   4.361   3.191 -0.5020 -0.0364 -0.0488
11776TIP3    H256820   2.775   4.325   3.127 -0.7130 -1.2377  0.1698
11777TIP3   OH256821   4.024   1.237   0.227 -0.2181 -0.1203  0.1635
11777TIP3    H156822   4.063   1.270   0.146 -1.0369  1.6177  0.4458
11777TIP3    H256823   4.098   1.202   0.277  0.4126 -0.3966 -0.9407
11778TIP3   OH256824   4.489   5.710   0.118 -0.6535 -0.5918 -0.6747
11778TIP3    H156825   4.481   5.803   0.140 -0.3308 -0.8384  0.5515
11778TIP3    H256826   4.583   5.694   0.118 -0.7132 -0.9465 -0.7881
11779TIP3   OH256827   0.768   1.752   0.701  0.2531  0.1339 -0.4066
11779TIP3    H156828   0.700   1.692   0.733  0.6468 -0.3549 -0.4713
11779TIP3    H256829   0.725   1.838   0.699 -0.0654  0.0078  0.4918
11780TIP3   OH256830   6.457   5.775   2.511  0.0613 -0.1941  0.4299
11780TIP3    H156831   6.369   5.812   2.517  0.5673  0.8856  1.6725
11780TIP3    H256832   6.482   5.758   2.602  1.2036 -0.3280  0.1062
11781TIP3   OH256833   0.104   1.249  16.502 -0.2472 -0.3724  0.0194
11781TIP3    H156834   0.130   1.299  16.425  0.4442  0.0920  0.5356
11781TIP3    H256835   0.186   1.213  16.536 -0.4832 -0.2372  0.7622
11782TIP3   OH256836   0.409   5.580  12.381  0.3002  0.2385 -0.8568
11782TIP3    H156837   0.474   5.612  12.319 -0.3651  0.5046 -1.4340
11782TIP3    H256838   0.337   5.549  12.326  0.9504 -2.4285 -0.3584
11783TIP3   OH256839   3.411   2.337  16.333  0.4712 -0.3121 -0.4424
11783TIP3    H156840   3.371   2.424  16.329 -0.7832 -0.8764 -0.6954
11783TIP3    H256841   3.419   2.311  16.241 -0.9518 -1.2240 -0.3452
11784TIP3   OH256842   2.223   3.929   0.478  0.2772  0.1231 -0.4152
11784TIP3    H156843   2.317   3.943   0.491 -0.2978  2.0325  2.8233
11784TIP3    H256844   2.205   3.847   0.524  0.0953  0.8269  0.8165
11785TIP3   OH256845   4.054   3.483   0.608 -0.0392  0.3963 -0.3476
11785TIP3    H156846   4.108   3.459   0.683 -2.3545 -0.1577  1.2645
11785TIP3    H256847   3.966   3.451   0.631 -1.2412  1.9528 -2.4404
11786TIP3   OH256848   5.533   0.956  16.652 -0.5512 -0.3644  0.4842
11786TIP3    H156849   5.463   1.016  16.675 -1.2426 -1.5571  1.6727
11786TIP3    H256850   5.504   0.871  16.687  0.5837 -1.2929 -0.7251
11787TIP3   OH256851   6.243   2.459  13.721 -0.3759  0.1036 -0.3035
11787TIP3    H156852   6.292   2.541  13.717 -1.4889  0.9101  1.5103
11787TIP3    H256853   6.154   2.482  13.695 -0.5476 -0.6590 -0.4256
11788TIP3   OH256854   2.976   5.411  15.005 -0.4295  0.0880  0.0830
11788TIP3    H156855   2.923   5.334  14.982  0.9331 -0.7335 -0.4557
11788TIP3    H256856   2.926   5.455  15.074 -0.4991 -2.1791  1.5871
11789TIP3   OH256857   2.534   4.094  17.046 -0.2307  0.9341  0.3191
11789TIP3    H156858   2.574   4.074  16.961  0.1889 -1.7468  1.0318
11789TIP3    H256859   2.606   4.087  17.108 -0.8254  1.3218  1.0637
11790TIP3   OH256860   0.047   1.557   0.552  0.4553 -0.3818  0.1253
11790TIP3    H156861   0.056   1.651   0.533 -0.7751 -0.3010 -0.1261
11790TIP3    H256862  -0.040   1.534   0.519  0.8532 -1.6799 -0.0594
11791TIP3   OH256863   5.043   1.641  14.767  0.3524 -0.4023 -0.2365
11791TIP3    H156864   5.059   1.733  14.748 -0.8939 -0.1466 -0.1893
11791TIP3    H256865   5.015   1.604  14.683 -0.2667 -0.4564 -0.0113
11792TIP3   OH256866   4.260   0.233   4.667  0.4551 -0.2497  0.3563
11792TIP3    H156867   4.317   0.305   4.696  0.5272 -0.8062  1.6285
11792TIP3    H256868   4.268   0.234   4.571  2.5897 -0.2944  0.4955
11793TIP3   OH256869   4.449   2.727  16.181 -0.1336  0.6212  0.2204
11793TIP3    H156870   4.496   2.734  16.098 -0.7066 -1.0309 -0.2788
11793TIP3    H256871   4.516   2.741  16.248  0.4975  1.1277 -0.5006
11794TIP3   OH256872   2.218   0.575  16.246  0.7161 -0.0060  0.7312
11794TIP3    H156873   2.272   0.564  16.324 -2.0478  1.3691  3.0435
11794TIP3    H256874   2.135   0.532  16.268 -0.1636  0.4047 -1.4734
11795TIP3   OH256875   1.006   5.725  11.870  0.3029  0.4256 -0.5698
11795TIP3    H156876   1.046   5.646  11.832 -1.1415 -0.6366  0.0271
11795TIP3    H256877   1.080   5.774  11.905  1.1717 -1.1063 -0.1403
11796TIP3   OH256878   4.015   1.480   1.857  0.2240 -0.2310  0.1388
11796TIP3    H156879   3.980   1.531   1.930 -0.0069  1.9770 -1.4133
11796TIP3    H256880   3.938   1.440   1.817 -0.0141  0.8038 -0.4818
11797TIP3   OH256881   6.648   1.036   1.638 -0.2940  0.1853  0.1705
11797TIP3    H156882   6.625   0.994   1.722  0.9452  2.8015  1.9593
11797TIP3    H256883   6.563   1.059   1.599 -0.8826 -0.3454  1.0781
11798TIP3   OH256884   3.921   6.585   5.214 -0.2304  0.4624  0.8814
11798TIP3    H156885   3.931   6.490   5.225  1.3339  0.3862 -0.7188
11798TIP3    H256886   4.011   6.617   5.202 -0.7433  2.1408  1.2790
11799TIP3   OH256887   3.102   1.670   4.806 -0.2919 -0.1271  0.7736
11799TIP3    H156888   3.165   1.718   4.753 -0.5179 -1.1276 -0.4634
11799TIP3    H256889   3.099   1.717   4.889 -0.4620  1.9249 -0.3405
11800TIP3   OH256890   1.795   3.186   0.232 -0.1946  0.7342 -0.1640
11800TIP3    H156891   1.877   3.167   0.278 -0.6608 -0.9836  0.0216
11800TIP3    H256892   1.818   3.181   0.139 -0.5133 -2.1509 -0.1633
11801TIP3   OH256893   2.533   3.484  14.180  0.0661  0.0559  0.2343
11801TIP3    H156894   2.588   3.492  14.258 -0.7404  0.7751  0.7482
11801TIP3    H256895   2.510   3.574  14.157 -3.0607 -0.2473  1.6377
11802TIP3   OH256896   0.880   0.631  10.832  0.4121  0.2688 -0.0850
11802TIP3    H156897   0.872   0.712  10.882 -1.6727  0.3582 -0.5012
11802TIP3    H256898   0.966   0.637  10.790  0.3351  2.2117 -0.0385
11803TIP3   OH256899   3.966   2.144   1.393  0.1512  0.4921 -0.2545
11803TIP3    H156900   4.009   2.147   1.478 -2.2396  1.3594  1.0187
11803TIP3    H256901   3.923   2.229   1.384 -0.7719 -0.0780 -1.7019
11804TIP3   OH256902   5.006   1.524   3.877  0.4263  0.3371 -0.2230
11804TIP3    H156903   4.939   1.551   3.815  2.0298 -1.8762 -3.1735
11804TIP3    H256904   4.982   1.433   3.899  2.0781 -0.2835 -0.8800
11805TIP3   OH256905   0.593   1.386  12.133  0.1259  0.1437 -0.1015
11805TIP3    H156906   0.679   1.415  12.101  0.4648 -0.0959  0.5720
11805TIP3    H256907   0.583   1.298  12.096  0.3530  0.0104  0.1550
11806TIP3   OH256908   4.717   5.778  11.990 -0.2638  0.0398 -0.5784
11806TIP3    H156909   4.779   5.811  11.925  0.2973 -0.0866 -0.1163
11806TIP3    H256910   4.770   5.761  12.068 -0.9508  0.3637 -0.0182
11807TIP3   OH256911   5.626   6.721  15.061  0.3919  0.0953 -0.0038
11807TIP3    H156912   5.666   6.766  15.135 -2.0879  0.4929  1.1876
11807TIP3    H256913   5.626   6.785  14.990  4.0534 -0.7262 -0.9396
11808TIP3   OH256914   5.825   2.313   1.775  0.4040 -0.3827 -0.0098
11808TIP3    H156915   5.825   2.244   1.842  1.4720 -0.5535 -0.1763
11808TIP3    H256916   5.762   2.282   1.710 -0.3332 -0.4163  0.7006
11809TIP3   OH256917   2.556   6.375  16.451 -0.3460  0.3940 -0.2613
11809TIP3    H156918   2.534   6.293  16.496  2.4633  0.4424  1.4875
11809TIP3    H256919   2.628   6.351  16.392  1.0091  1.6466  0.8054
11810TIP3   OH256920   2.996   6.608   1.233 -0.2666  0.3006  0.5527
11810TIP3    H156921   3.079   6.587   1.193 -0.3578  0.8333  0.0703
11810TIP3    H256922   2.990   6.549   1.309  0.1676 -0.3003  0.1257
11811TIP3   OH256923   6.771   1.545  11.801 -0.3237 -0.1561  0.1737
11811TIP3    H156924   6.745   1.474  11.859 -0.4114 -1.1645 -1.0452
11811TIP3    H256925   6.723   1.528  11.719  0.5088  0.6610 -0.5103
11812TIP3   OH256926   1.127   2.653  10.898  1.0535 -0.4509 -0.4990
11812TIP3    H156927   1.155   2.647  10.807  0.5929 -1.0644 -0.6105
11812TIP3    H256928   1.208   2.644  10.948  1.0266 -3.4465 -0.7852
11813TIP3   OH256929   6.060   4.890   2.790 -0.8335 -0.2066 -0.2736
11813TIP3    H156930   6.076   4.965   2.848  1.3001 -0.1221 -0.8719
11813TIP3    H256931   6.009   4.926   2.718 -2.6680 -0.0987  1.0038
11814TIP3   OH256932   3.807   3.187  14.253 -0.0433  0.8778 -0.4873
11814TIP3    H156933   3.809   3.279  14.277  0.3097  1.5380 -2.8555
11814TIP3    H256934   3.894   3.168  14.218  0.0881 -0.5394  0.5056
11815TIP3   OH256935   4.562   0.536   1.926  0.5633 -0.2170  0.3229
11815TIP3    H156936   4.546   0.510   1.836  1.1666  1.8815 -0.4565
11815TIP3    H256937   4.596   0.626   1.920 -3.6065  1.8556  2.8381
11816TIP3   OH256938   6.813   5.547  15.020  0.1773 -0.7540  0.3250
11816TIP3    H156939   6.763   5.468  14.998  0.4347 -1.1351  1.0556
11816TIP3    H256940   6.897   5.535  14.975 -0.5158  0.0966 -1.2678
11817TIP3   OH256941   6.235   4.092   4.687 -0.1731  0.0925  0.1117
11817TIP3    H156942   6.198   4.128   4.768  0.3230  1.2731 -0.1704
11817TIP3    H256943   6.224   4.162   4.622  1.5563  0.0576 -0.2516
11818TIP3   OH256944   4.749   1.660   1.591  0.0816  0.4414  0.5512
11818TIP3    H156945   4.796   1.637   1.671  1.2934  0.1408 -0.2299
11818TIP3    H256946   4.667   1.611   1.598  0.9276 -1.0143  0.7920
11819TIP3   OH256947   1.350   5.695   2.143  0.5745  0.5343 -0.2490
11819TIP3    H156948   1.394   5.617   2.176 -2.5424 -0.9092  0.8797
11819TIP3    H256949   1.294   5.662   2.072 -1.3898  1.4996  0.7678
11820TIP3   OH256950   5.018   5.635   2.598 -0.1916 -0.0081 -0.3673
11820TIP3    H156951   5.056   5.558   2.555  0.6552  0.3023 -0.2032
11820TIP3    H256952   4.928   5.640   2.565 -0.1775 -0.9239 -0.5620
11821TIP3   OH256953   6.557   6.104   5.702 -0.0018  0.0739 -0.0055
11821TIP3    H156954   6.475   6.056   5.686 -0.0942  0.7557 -1.8090
11821TIP3    H256955   6.610   6.088   5.624  0.9737  0.8571  0.4761
11822TIP3   OH256956   4.551   1.033  14.500 -0.0265  0.3180 -0.0061
11822TIP3    H156957   4.630   0.994  14.461 -0.2458  0.1809 -0.3225
11822TIP3    H256958   4.516   1.089  14.431 -1.0275 -0.7682 -0.4220
11823TIP3   OH256959   6.401   6.613   5.412  0.2009 -0.0545  0.2545
11823TIP3    H156960   6.483   6.566   5.429  0.8449  1.6001  2.0060
11823TIP3    H256961   6.333   6.545   5.421  1.3478 -1.7520 -2.5285
11824TIP3   OH256962   5.690   1.644  10.311  0.0145 -0.3958  0.0964
11824TIP3    H156963   5.682   1.665  10.218 -0.7079 -0.9537  0.0200
11824TIP3    H256964   5.654   1.721  10.356  2.5258  0.9275  0.0302
11825TIP3   OH256965   6.436   3.476  16.484 -0.4653  0.3484  0.1241
11825TIP3    H156966   6.365   3.532  16.518 -0.2974  1.1866 -0.8573
11825TIP3    H256967   6.514   3.507  16.530 -0.3364  1.0866 -0.5716
11826TIP3   OH256968   5.161   4.061   3.334  0.0583  0.1446 -0.8809
11826TIP3    H156969   5.222   4.116   3.384 -0.8533 -0.2583  0.7552
11826TIP3    H256970   5.114   4.122   3.277  0.2356  0.8155 -0.3245
11827TIP3   OH256971   3.224   2.184  13.304  0.4898  0.0277 -0.5296
11827TIP3    H156972   3.233   2.279  13.307 -0.6435  0.1708 -0.9591
11827TIP3    H256973   3.267   2.158  13.222  0.7959  0.1744 -0.4145
11828TIP3   OH256974   2.537   0.037  11.380  0.4797 -0.2570  0.3098
11828TIP3    H156975   2.446   0.024  11.406  0.7533 -1.6149  0.6471
11828TIP3    H256976   2.576   0.088  11.452 -0.2494  1.2817 -0.3400
11829TIP3   OH256977   3.474   5.577   4.184  0.3443  1.1469  0.4389
11829TIP3    H156978   3.540   5.636   4.148  2.8392 -2.2428 -0.9964
11829TIP3    H256979   3.522   5.519   4.243 -0.8871 -2.3228 -1.6631
11830TIP3   OH256980   3.852   5.181   6.037  0.2239 -0.0718  0.7272
11830TIP3    H156981   3.788   5.190   5.967 -0.2049 -1.6578  0.8737
11830TIP3    H256982   3.808   5.217   6.114 -0.9505 -2.0249  1.0449
11831TIP3   OH256983   1.973   1.115  16.013 -0.0901  0.3659 -0.0111
11831TIP3    H156984   1.978   1.168  15.934 -0.0022 -0.3609 -0.5032
11831TIP3    H256985   1.942   1.030  15.983 -0.8779  0.3315  0.8606
11832TIP3   OH256986   3.999   1.777  11.989  0.3472  0.0198 -0.3478
11832TIP3    H156987   4.075   1.755  12.042  0.1915 -2.2354 -0.9453
11832TIP3    H256988   4.028   1.848  11.932  2.2365 -1.1863 -0.9878
11833TIP3   OH256989   4.205   3.538   4.837  0.3999 -0.1748 -0.3290
11833TIP3    H156990   4.137   3.583   4.785 -0.9085 -0.0228  1.4003
11833TIP3    H256991   4.267   3.607   4.859 -1.9123  1.1179  2.8192
11834TIP3   OH256992   6.803   5.037   3.289 -0.5437 -0.4911 -0.1740
11834TIP3    H156993   6.733   5.004   3.233 -0.9359 -0.5243  0.3369
11834TIP3    H256994   6.771   5.121   3.320 -0.8415 -1.0155  0.9642
11835TIP3   OH256995   6.596   2.861  11.580  0.3374 -0.5892  0.7483
11835TIP3    H156996   6.688   2.857  11.607  0.5444  0.0713  0.1796
11835TIP3    H256997   6.593   2.933  11.517 -0.4707 -0.9500  0.3573
11836TIP3   OH256998   3.646   1.082  14.148 -0.0927 -0.4340  0.0413
11836TIP3    H156999   3.584   1.141  14.192  0.6986 -0.3306  1.0502
11836TIP3    H257000   3.648   1.113  14.058 -2.4870 -1.2371 -0.3725
11837TIP3   OH257001   6.473   6.509  14.670 -0.2074  0.6003  0.1547
11837TIP3    H157002   6.442   6.458  14.595  0.5020 -0.9372  0.8636
11837TIP3    H257003   6.392   6.542  14.711 -0.8350 -1.4046  0.6426
11838TIP3   OH257004   2.996   5.278   2.725  0.0011  0.1400 -0.0546
11838TIP3    H157005   2.941   5.230   2.663  1.8590  0.0859 -1.7386
11838TIP3    H257006   3.085   5.253   2.703  0.7773  0.8830  2.0398
11839TIP3   OH257007   1.107   6.450  13.721  0.0056 -0.5530 -0.8637
11839TIP3    H157008   1.184   6.496  13.753 -0.0223 -0.4606 -0.9311
11839TIP3    H257009   1.132   6.418  13.635 -1.0720  2.1861 -2.3146
11840TIP3   OH257010   3.780   0.382   6.425  0.1063  0.7668  0.1291
11840TIP3    H157011   3.875   0.372   6.417 -0.0124 -2.2726  1.3538
11840TIP3    H257012   3.764   0.386   6.519 -1.1843 -3.0043  0.2001
11841TIP3   OH257013   0.363   6.358   5.273  0.4085 -0.0733  0.4527
11841TIP3    H157014   0.395   6.338   5.361  0.7582 -1.3142  0.0706
11841TIP3    H257015   0.275   6.320   5.271 -0.3992  1.6951  0.8929
11842TIP3   OH257016   5.704   3.867   1.775  0.6993 -0.3246  0.4225
11842TIP3    H157017   5.714   3.773   1.762  0.5116 -0.2435 -0.3284
11842TIP3    H257018   5.612   3.878   1.799 -0.1089 -0.0438 -2.4641
11843TIP3   OH257019   4.993   2.870   3.863  0.0000  0.2009  0.3293
11843TIP3    H157020   4.922   2.814   3.892 -1.8375  2.7771  1.1441
11843TIP3    H257021   5.029   2.825   3.786 -3.0925 -0.7870 -0.6691
11844TIP3   OH257022   5.043   1.895  14.679 -0.1829 -0.2064 -0.0541
11844TIP3    H157023   5.047   1.983  14.718  0.8595 -0.5336  0.6158
11844TIP3    H257024   5.098   1.901  14.601  0.6040 -0.4789  0.4661
11845TIP3   OH257025   6.602   0.494   4.246  0.0804 -0.1741  0.1844
11845TIP3    H157026   6.675   0.516   4.187  0.2542 -0.0592  0.4412
11845TIP3    H257027   6.531   0.469   4.187 -0.0394  0.8209 -0.1152
11846TIP3   OH257028   2.086   4.214  12.650 -0.8963  0.1544  0.4623
11846TIP3    H157029   2.163   4.187  12.700  0.9313  4.6841  0.5952
11846TIP3    H257030   2.114   4.210  12.558  0.3203  3.3825  0.5747
11847TIP3   OH257031   6.226   6.603   0.275 -0.0820  0.5484 -0.2673
11847TIP3    H157032   6.315   6.612   0.243 -0.0151  0.5562 -0.0770
11847TIP3    H257033   6.225   6.649   0.359 -0.0223 -0.2505  0.1881
11848TIP3   OH257034   2.288   0.095   5.466 -0.1633 -0.5133 -0.1129
11848TIP3    H157035   2.325   0.046   5.540 -0.9293 -0.8450  0.0574
11848TIP3    H257036   2.270   0.182   5.502  0.5207 -0.3160 -0.2229
11849TIP3   OH257037   1.920   6.524  11.006 -0.3957  0.1250 -0.2787
11849TIP3    H157038   1.932   6.488  11.094 -0.7453 -0.6589 -0.5346
11849TIP3    H257039   1.986   6.480  10.953 -0.1039  0.6891 -0.3833
11850TIP3   OH257040   6.183   1.059  13.479 -0.7492 -0.3976  0.3271
11850TIP3    H157041   6.212   0.970  13.502  0.4858  0.5336  2.7017
11850TIP3    H257042   6.219   1.074  13.392 -0.6104 -2.0607  0.0626
11851TIP3   OH257043   5.728   6.496  10.913 -0.3484  0.4940 -0.2627
11851TIP3    H157044   5.655   6.450  10.954 -1.0999  0.4165 -1.6226
11851TIP3    H257045   5.699   6.587  10.908 -0.8992  0.2724 -1.8680
11852TIP3   OH257046   6.436   4.298   4.568  0.2215  0.1894 -0.3228
11852TIP3    H157047   6.353   4.302   4.522  0.0968 -1.8134 -0.3880
11852TIP3    H257048   6.414   4.315   4.660 -0.4266 -1.1097 -0.2128
11853TIP3   OH257049   4.366   2.534   5.582  0.2546 -0.2518  0.2248
11853TIP3    H157050   4.391   2.586   5.506 -0.5863 -1.2171 -0.7451
11853TIP3    H257051   4.297   2.584   5.624  0.4466  0.0951  0.1323
11854TIP3   OH257052   0.877   2.461   3.617  0.3106  0.3794  0.1753
11854TIP3    H157053   0.890   2.551   3.588  2.3481  0.4306  1.0788
11854TIP3    H257054   0.955   2.441   3.669 -0.8228 -1.3975  1.2990
11855TIP3   OH257055   5.113   4.261   1.314 -0.0313 -0.0320 -0.0437
11855TIP3    H157056   5.206   4.238   1.318 -0.1084 -0.5754 -1.0138
11855TIP3    H257057   5.105   4.340   1.367  0.5672 -1.2733  2.0346
11856TIP3   OH257058   4.137   1.249   5.453 -0.2145 -0.0756 -0.1073
11856TIP3    H157059   4.155   1.222   5.543 -0.9942  1.7061  0.6313
11856TIP3    H257060   4.187   1.330   5.442  0.0729 -0.4062 -1.3768
11857TIP3   OH257061   5.968   0.013  16.607  0.2761  0.3244 -0.2093
11857TIP3    H157062   5.974   0.015  16.703 -1.8511  0.3621 -0.0421
11857TIP3    H257063   6.013   0.092  16.579  0.1129  0.8003  0.8221
11858TIP3   OH257064   2.785   5.702  13.553  0.2272  0.1425  0.1244
11858TIP3    H157065   2.778   5.609  13.531  1.8250 -0.0514  0.2735
11858TIP3    H257066   2.759   5.708  13.645 -0.3624 -0.0704 -0.0264
11859TIP3   OH257067   4.172   5.566   3.043 -0.0223 -0.5785 -0.5673
11859TIP3    H157068   4.254   5.517   3.035 -0.3230 -0.9626 -1.4218
11859TIP3    H257069   4.190   5.632   3.110  1.1114 -0.4003 -1.0213
11860TIP3   OH257070   5.143   0.451  14.165 -0.4737  0.4431 -0.4317
11860TIP3    H157071   5.235   0.466  14.185  0.2372  1.2860 -3.7811
11860TIP3    H257072   5.141   0.366  14.121 -1.0812  0.9481 -1.4144
11861TIP3   OH257073   1.460   4.135   4.870 -0.4554 -0.5280  0.1111
11861TIP3    H157074   1.377   4.145   4.918  0.0644 -1.7493  1.3357
11861TIP3    H257075   1.447   4.058   4.815  0.7685 -2.5974  2.5074
11862TIP3   OH257076   0.312   0.387   4.654 -0.0557 -0.0116  0.3844
11862TIP3    H157077   0.348   0.362   4.569 -1.8630 -1.4485 -0.0216
11862TIP3    H257078   0.312   0.305   4.704 -3.6565 -0.3994 -0.0281
11863TIP3   OH257079   2.826   2.622   3.658 -0.4331 -0.9395 -0.2350
11863TIP3    H157080   2.777   2.646   3.737 -1.4432 -1.8761 -0.5444
11863TIP3    H257081   2.883   2.550   3.685  2.2583  1.3296  0.5810
11864TIP3   OH257082   3.161   3.890   1.912 -0.3034 -0.1592 -0.5300
11864TIP3    H157083   3.228   3.830   1.944  0.4233  1.5519  1.3525
11864TIP3    H257084   3.174   3.892   1.817  0.5759 -1.8510 -0.4672
11865TIP3   OH257085   4.967   5.505  13.582  0.2347  0.3179 -0.0994
11865TIP3    H157086   5.037   5.441  13.594 -0.9079 -1.0658 -0.4525
11865TIP3    H257087   4.985   5.546  13.498  0.7417  0.1331 -0.0805
11866TIP3   OH257088   0.788   0.266   0.406  0.0566  0.4539 -0.5134
11866TIP3    H157089   0.729   0.341   0.404 -1.5896 -0.7851 -2.5651
11866TIP3    H257090   0.745   0.203   0.463  0.2723  0.2035 -0.6235
11867TIP3   OH257091   1.907   4.548   0.470 -0.6186  0.5337  0.4768
11867TIP3    H157092   1.924   4.463   0.511 -1.1040 -0.2270 -0.8333
11867TIP3    H257093   1.947   4.612   0.529 -0.6356 -0.5648  1.7234
11868TIP3   OH257094   3.583   5.967  14.260  0.2568  0.6901  0.3227
11868TIP3    H157095   3.592   5.999  14.350 -0.0679 -0.5722  0.8313
11868TIP3    H257096   3.492   5.984  14.237  0.4989  1.5851 -0.0136
11869TIP3   OH257097   0.256   5.475  15.725  0.3255 -0.0246  0.3650
11869TIP3    H157098   0.229   5.500  15.813  1.7581  2.0674  0.2737
11869TIP3    H257099   0.174   5.475  15.674 -0.1320  2.0175  0.9910
11870TIP3   OH257100   5.232   0.014   4.209  0.3263 -0.5218  0.2723
11870TIP3    H157101   5.301  -0.041   4.245 -0.0577  0.0850  2.0549
11870TIP3    H257102   5.158   0.003   4.269  0.2076  1.8434  0.6770
11871TIP3   OH257103   3.339   6.261   2.446 -0.5622  0.1412  0.1899
11871TIP3    H157104   3.283   6.206   2.501 -0.0193 -1.0707 -0.4384
11871TIP3    H257105   3.425   6.258   2.488 -0.0222 -1.1740 -0.9104
11872TIP3   OH257106   4.300   0.799  16.506  0.5845 -0.3992 -0.4396
11872TIP3    H157107   4.354   0.777  16.582  0.4614 -1.4581 -0.6441
11872TIP3    H257108   4.250   0.720  16.489 -0.2400  0.2138 -0.9263
11873TIP3   OH257109   5.610   3.976  16.324 -0.0243  0.2455 -0.4933
11873TIP3    H157110   5.542   3.909  16.332  0.8616 -0.5850  0.3229
11873TIP3    H257111   5.630   4.000  16.415  0.7403  0.5078 -0.7232
11874TIP3   OH257112   1.059   4.102  10.668 -0.0840 -0.3996  0.0154
11874TIP3    H157113   1.054   4.162  10.742  0.0867  0.5979 -0.7619
11874TIP3    H257114   0.967   4.079  10.650 -0.4549  1.8908 -1.4423
11875TIP3   OH257115   5.497   2.554   0.987 -0.1813  0.0777 -0.5192
11875TIP3    H157116   5.497   2.477   0.931  0.2893 -0.7158  0.5232
11875TIP3    H257117   5.566   2.536   1.052 -1.2400  0.5710  0.7992
11876TIP3   OH257118   4.458   5.511  13.006  0.0236  0.5803 -0.0203
11876TIP3    H157119   4.435   5.490  12.915  0.1558  0.9208 -0.1333
11876TIP3    H257120   4.549   5.481  13.014 -0.5238 -1.0694  0.5212
11877TIP3   OH257121   4.098   1.418  11.822 -0.4338 -0.1407  0.3983
11877TIP3    H157122   4.128   1.440  11.734 -0.2729  0.5070  0.6113
11877TIP3    H257123   4.004   1.400  11.812 -0.3300 -0.4835  0.0292
11878TIP3   OH257124   5.915   6.503   2.213  0.0499  0.0563 -0.1304
11878TIP3    H157125   5.860   6.470   2.285 -0.7486  0.3609 -0.5855
11878TIP3    H257126   6.004   6.478   2.237 -0.0650  1.0568  1.4833
11879TIP3   OH257127   0.470   3.790  17.010 -0.1078  0.0227 -0.4836
11879TIP3    H157128   0.556   3.750  17.026  0.7516  1.8497 -0.3497
11879TIP3    H257129   0.481   3.839  16.929 -1.2208 -0.1987 -0.7884
11880TIP3   OH257130   1.799   2.529   2.432 -0.4377 -0.4628 -0.4129
11880TIP3    H157131   1.710   2.558   2.413  0.1574  1.6381 -0.2449
11880TIP3    H257132   1.799   2.435   2.411 -2.1458 -0.1017 -2.3238
11881TIP3   OH257133   0.075   5.672  16.103 -0.3617  0.0644 -0.0645
11881TIP3    H157134   0.131   5.748  16.118  0.2125 -0.9241  3.6823
11881TIP3    H257135   0.075   5.661  16.008  2.4927  2.5193 -0.4932
11882TIP3   OH257136   4.230   2.385   1.780  0.4835 -0.2853 -0.1201
11882TIP3    H157137   4.177   2.457   1.814  0.5532 -0.1718 -0.2473
11882TIP3    H257138   4.314   2.393   1.825  0.8133  0.2844 -0.8096
11883TIP3   OH257139   6.258   6.383   6.069 -0.1280  0.4305 -0.1090
11883TIP3    H157140   6.327   6.338   6.020 -0.3236 -0.2747  0.2374
11883TIP3    H257141   6.243   6.327   6.145 -0.5887  0.9441  0.1842
11884TIP3   OH257142   0.762   0.679  17.105 -0.2149  0.3969  0.1012
11884TIP3    H157143   0.819   0.649  17.176  0.5217  0.0239 -0.6333
11884TIP3    H257144   0.759   0.774  17.115  1.1212  0.4999 -0.2597
11885TIP3   OH257145   4.257   6.065   2.803  0.2871 -0.1937  0.3470
11885TIP3    H157146   4.293   6.070   2.714 -2.0823 -0.6645 -0.7154
11885TIP3    H257147   4.188   6.131   2.805  0.1199 -0.3799  1.7425
11886TIP3   OH257148   1.529   1.471  11.205 -0.2674  0.1058 -0.2516
11886TIP3    H157149   1.439   1.494  11.182  0.3194  1.1500 -1.6413
11886TIP3    H257150   1.574   1.467  11.122  0.9639 -0.4773  0.4278
11887TIP3   OH257151   3.948   6.477   3.447  0.0307 -0.5864 -0.3047
11887TIP3    H157152   3.904   6.439   3.523 -1.2647 -0.3008 -0.8900
11887TIP3    H257153   3.961   6.403   3.387 -1.6039 -0.3214 -1.0276
11888TIP3   OH257154   3.230   1.379   4.922  0.0465  0.1831  0.3249
11888TIP3    H157155   3.159   1.402   4.862  0.3301 -1.6308 -0.7760
11888TIP3    H257156   3.237   1.284   4.916  1.3847  0.1441  1.8019
11889TIP3   OH257157   3.530   0.524   3.442 -0.3887 -0.2689 -0.0707
11889TIP3    H157158   3.444   0.556   3.415  0.1380  0.3094 -1.1138
11889TIP3    H257159   3.591   0.591   3.412  0.6011 -1.5254 -0.9524
11890TIP3   OH257160   5.186   1.642   1.836  0.0413  0.6976 -0.1867
11890TIP3    H157161   5.279   1.627   1.854  0.3938  2.6885 -0.0927
11890TIP3    H257162   5.148   1.661   1.922 -0.2051  1.0231 -0.3651
11891TIP3   OH257163   6.332   3.875  13.488 -0.6980  0.3375  0.4234
11891TIP3    H157164   6.361   3.950  13.435 -0.7553 -0.2333 -0.4351
11891TIP3    H257165   6.331   3.908  13.578  0.4746  1.0069  0.2052
11892TIP3   OH257166   3.883   0.048   4.209  0.0043 -0.2521  0.9055
11892TIP3    H157167   3.794   0.079   4.190  0.8122  1.4631 -0.2722
11892TIP3    H257168   3.919   0.113   4.268  1.5120  0.8130 -1.0811
11893TIP3   OH257169   0.601   0.698   2.114  0.1163  0.4338 -0.0179
11893TIP3    H157170   0.606   0.774   2.056  2.0572  0.8843  0.6428
11893TIP3    H257171   0.558   0.731   2.193  1.1984  0.9603  0.3743
11894TIP3   OH257172   3.580   3.114  13.900 -0.5203  0.3950  0.0298
11894TIP3    H157173   3.586   3.070  13.985  0.2053 -0.1137 -0.2783
11894TIP3    H257174   3.664   3.096  13.858 -0.5537  1.3473 -0.4619
11895TIP3   OH257175   0.465   0.474   3.868  0.2391  0.0538  0.1355
11895TIP3    H157176   0.483   0.552   3.815  2.5635 -0.7499 -0.3971
11895TIP3    H257177   0.383   0.440   3.834 -0.6482  2.0603  0.1488
11896TIP3   OH257178   6.059   5.044   4.075 -0.9864  0.5852 -0.0458
11896TIP3    H157179   6.100   5.121   4.114 -0.3097  0.0431  0.3320
11896TIP3    H257180   6.063   5.061   3.980  2.5293 -0.5481 -0.2561
11897TIP3   OH257181   3.228   6.421   0.386 -0.2244  0.0608  0.3829
11897TIP3    H157182   3.138   6.429   0.356 -0.3709  0.4450  0.9150
11897TIP3    H257183   3.224   6.443   0.479  0.3317 -0.4314  0.5292
11898TIP3   OH257184   0.076   5.916  14.490  0.0758  0.0260 -0.2089
11898TIP3    H157185   0.145   5.976  14.462  1.9758 -1.0464  1.8406
11898TIP3    H257186   0.029   5.965  14.558 -0.0590  0.1131 -0.3638
11899TIP3   OH257187   0.265   5.053   1.245  0.3428 -0.0246 -0.0201
11899TIP3    H157188   0.330   4.994   1.283 -1.4809 -2.9520 -1.1335
11899TIP3    H257189   0.301   5.076   1.159  0.3782 -0.7769 -0.2109
11900TIP3   OH257190   2.755   4.640  15.418 -1.2894  0.0095 -0.4264
11900TIP3    H157191   2.682   4.656  15.359  0.3054  0.4537 -2.4081
11900TIP3    H257192   2.815   4.584  15.367 -0.4464 -0.7253  1.2931
11901TIP3   OH257193   4.732   1.543  13.482 -0.1368 -0.5685  0.5300
11901TIP3    H157194   4.662   1.607  13.494  0.3962  0.7094 -2.2774
11901TIP3    H257195   4.694   1.475  13.427  0.3326 -0.8061  0.4909
11902TIP3   OH257196   2.565   2.517   0.648 -0.0942 -0.3692 -0.2456
11902TIP3    H157197   2.593   2.496   0.559  2.4896  1.5777 -0.0130
11902TIP3    H257198   2.612   2.454   0.703  1.4544  0.8561 -0.0788
11903TIP3   OH257199   0.391   2.743  14.846  0.3065 -0.0651  0.0902
11903TIP3    H157200   0.476   2.754  14.803  1.2789 -0.8528  1.7226
11903TIP3    H257201   0.351   2.830  14.842  0.9597  0.2012 -1.1258
11904TIP3   OH257202   6.170   2.767  12.352 -0.1322  0.5722  0.0072
11904TIP3    H157203   6.181   2.712  12.429  0.9625 -1.0060 -1.1969
11904TIP3    H257204   6.096   2.824  12.373  1.1071  1.3176  2.8204
11905TIP3   OH257205   0.439   0.002   2.020 -0.0881  0.0148 -0.2253
11905TIP3    H157206   0.458   0.059   2.094 -0.6240 -1.4998  1.1605
11905TIP3    H257207   0.346  -0.020   2.030  0.1047 -1.0919 -0.7022
11906TIP3   OH257208   3.863   5.929   2.497  0.2673  0.5595  0.2700
11906TIP3    H157209   3.927   5.865   2.528 -0.5012 -0.5509 -0.4043
11906TIP3    H257210   3.902   5.964   2.416 -0.2144 -0.5614 -0.4782
11907TIP3   OH257211   0.626   3.527   1.420 -0.5357  0.9735  0.2355
11907TIP3    H157212   0.655   3.590   1.486  3.9921 -0.7517  0.2949
11907TIP3    H257213   0.674   3.552   1.340 -0.7924 -0.7084 -0.5063
11908TIP3   OH257214   2.383   4.801  14.033 -0.2326  0.4380  0.1194
11908TIP3    H157215   2.306   4.745  14.023  0.1927  0.2836 -5.3859
11908TIP3    H257216   2.456   4.746  14.003  1.0266  2.3627 -0.4997
11909TIP3   OH257217   0.046   3.476   1.767 -0.3242  0.2586  1.1106
11909TIP3    H157218   0.106   3.432   1.707  0.5653 -0.4032  2.4451
11909TIP3    H257219   0.022   3.409   1.830 -0.1943  1.2695  2.2648
11910TIP3   OH257220   3.349   3.242  14.837  0.0907 -0.0222  0.1657
11910TIP3    H157221   3.289   3.285  14.898 -1.7957 -0.6279 -1.1707
11910TIP3    H257222   3.339   3.148  14.856  1.4187 -0.1027  0.5918
11911TIP3   OH257223   1.303   0.556  12.014 -0.3140  0.2139 -0.0811
11911TIP3    H157224   1.395   0.560  11.987 -1.0256 -0.9665 -3.0393
11911TIP3    H257225   1.288   0.638  12.061  2.1329  0.5931  0.1502
11912TIP3   OH257226   5.104   4.279  12.045  0.1219  0.2523 -0.0665
11912TIP3    H157227   5.081   4.244  12.131  0.3462  0.7003  0.1850
11912TIP3    H257228   5.186   4.327  12.060 -0.1023  0.7601 -0.4219
11913TIP3   OH257229   5.351   3.160   6.367  0.3071 -0.3769  0.7039
11913TIP3    H157230   5.400   3.120   6.295  0.6892  2.2551 -0.6191
11913TIP3    H257231   5.262   3.126   6.357  0.9335 -2.1049  0.6706
11914TIP3   OH257232   1.248   5.855   3.934 -0.0342 -0.3062 -0.0945
11914TIP3    H157233   1.330   5.825   3.895  0.4326  1.1892 -0.3216
11914TIP3    H257234   1.231   5.940   3.892 -1.2524 -0.1912  0.5732
11915TIP3   OH257235   1.433   0.306  15.261  0.2845 -0.1185 -0.4165
11915TIP3    H157236   1.502   0.265  15.315  1.6985  2.3818 -0.1640
11915TIP3    H257237   1.377   0.350  15.324 -0.0612 -0.0260 -0.7877
11916TIP3   OH257238   1.645   6.117   5.132  0.3694  0.4080 -0.0861
11916TIP3    H157239   1.571   6.127   5.072  0.8422  0.5035 -0.6643
11916TIP3    H257240   1.719   6.096   5.075  0.8996  0.8640  0.4284
11917TIP3   OH257241   5.031   3.566   1.440  0.2745 -0.2250  0.0605
11917TIP3    H157242   5.024   3.507   1.515 -1.1367 -0.2073 -0.0364
11917TIP3    H257243   4.943   3.601   1.428  0.7340  0.6642 -0.8936
11918TIP3   OH257244   2.960   0.503  11.162  0.4851  0.0512  0.4302
11918TIP3    H157245   3.037   0.549  11.130  0.4812 -0.9637 -1.1659
11918TIP3    H257246   2.967   0.507  11.257  0.7699  2.8027  0.3790
11919TIP3   OH257247   3.571   6.179  15.854  0.6683 -0.5257 -0.2091
11919TIP3    H157248   3.639   6.221  15.907 -0.5513  0.1583  0.8620
11919TIP3    H257249   3.550   6.243  15.786  0.9682 -0.6741 -0.4446
11920TIP3   OH257250   1.196   4.012   1.788  0.4215 -0.0825  0.3829
11920TIP3    H157251   1.219   3.944   1.852  0.9121  0.4789  0.8167
11920TIP3    H257252   1.212   3.972   1.703  1.3467 -0.2981  0.6456
11921TIP3   OH257253   4.178   0.517  11.487 -0.5454 -0.0377  0.2885
11921TIP3    H157254   4.253   0.570  11.513 -0.1556 -1.2006  1.7158
11921TIP3    H257255   4.215   0.451  11.428 -0.4822 -0.4615  0.7971
11922TIP3   OH257256   1.442   4.326  12.428  0.0325  0.1201  0.2415
11922TIP3    H157257   1.490   4.409  12.424  0.2570 -0.0431 -1.2318
11922TIP3    H257258   1.377   4.334  12.358  2.1823 -2.1875 -2.2313
11923TIP3   OH257259   4.000   1.474   0.811 -0.1522 -0.0552 -0.3601
11923TIP3    H157260   4.093   1.491   0.801  0.1444 -0.9419  0.6349
11923TIP3    H257261   3.970   1.539   0.875 -0.0830 -0.1297 -0.2508
11924TIP3   OH257262   3.444   4.068   6.155  0.0394  0.1415 -0.0767
11924TIP3    H157263   3.495   4.122   6.215  0.7467  0.6306 -1.0969
11924TIP3    H257264   3.368   4.123   6.132 -0.1095  0.0457  0.1865
11925TIP3   OH257265   5.174   3.733  11.931 -0.0023 -0.0035  0.2533
11925TIP3    H157266   5.199   3.752  11.841 -0.4031 -1.6833 -0.2412
11925TIP3    H257267   5.106   3.798  11.952 -0.5610 -0.1783 -0.9711
11926TIP3   OH257268   6.697   5.213  12.906 -0.0453 -0.4547  0.1759
11926TIP3    H157269   6.614   5.253  12.933 -1.2054 -1.7637 -1.2453
11926TIP3    H257270   6.671   5.134  12.858  1.8512  0.9095 -3.4505
11927TIP3   OH257271   4.405   5.085  11.034  0.3368 -0.5687  0.6179
11927TIP3    H157272   4.317   5.049  11.040 -0.2290  0.5350 -0.5305
11927TIP3    H257273   4.416   5.136  11.115 -0.5161  0.1837  0.2743
11928TIP3   OH257274   4.658   0.797  12.349 -0.2749  0.7012 -0.3084
11928TIP3    H157275   4.645   0.857  12.423 -0.2114 -2.1866  2.2390
11928TIP3    H257276   4.588   0.733  12.358 -1.3834  1.2063 -3.9567
11929TIP3   OH257277   2.482   5.082  11.568 -0.4776  0.1009 -0.2255
11929TIP3    H157278   2.504   5.047  11.654  0.3204  0.3285 -0.3248
11929TIP3    H257279   2.392   5.113  11.576 -1.2465 -1.9961 -0.1518
11930TIP3   OH257280   3.413   1.149  12.466  0.0205  0.3035  0.5312
11930TIP3    H157281   3.320   1.165  12.480  0.2386  0.9193  1.3420
11930TIP3    H257282   3.453   1.236  12.468  0.6401  0.0248  0.4582
11931TIP3   OH257283   2.602   1.934  11.255 -0.3009 -0.0851 -0.2190
11931TIP3    H157284   2.588   1.940  11.161  2.6482  2.4826 -0.6742
11931TIP3    H257285   2.610   1.840  11.272  0.1075 -0.5803 -2.7261
11932TIP3   OH257286   1.440   3.487  16.664  0.1072 -0.1959 -0.4012
11932TIP3    H157287   1.395   3.437  16.596  1.3768 -1.4127 -0.4019
11932TIP3    H257288   1.470   3.421  16.726 -0.3263  0.8189  0.9510
11933TIP3   OH257289   2.157   0.998   3.390  0.6696  0.2195 -0.0369
11933TIP3    H157290   2.105   1.076   3.409  0.1926  0.2411 -1.3414
11933TIP3    H257291   2.181   1.007   3.297 -0.4209 -1.7595 -0.5494
11934TIP3   OH257292   1.027   3.748  14.367 -0.1562 -0.2794 -0.5184
11934TIP3    H157293   1.110   3.726  14.408  0.0432  3.4317  1.5060
11934TIP3    H257294   0.971   3.775  14.439 -1.1460  2.7364 -2.2284
11935TIP3   OH257295   3.993   3.312  14.712 -0.3285 -0.1912 -0.3052
11935TIP3    H157296   3.911   3.361  14.704 -2.4826 -3.1492  1.4889
11935TIP3    H257297   3.983   3.239  14.651  1.9416  0.4176 -1.5048
11936TIP3   OH257298   0.269   6.076   1.931 -0.0710  0.1099  0.0815
11936TIP3    H157299   0.300   5.986   1.936  0.3128  0.1620 -1.0183
11936TIP3    H257300   0.263   6.094   1.837  0.2355  1.3454  0.2793
11937TIP3   OH257301   3.312   1.656  14.309 -0.3859 -0.1502  0.5000
11937TIP3    H157302   3.323   1.602  14.388 -0.0169 -0.6578  0.1081
11937TIP3    H257303   3.327   1.595  14.236 -1.0106  0.2469  0.0287
11938TIP3   OH257304   5.773   1.774   0.924  0.4621  0.6882 -0.3640
11938TIP3    H157305   5.718   1.708   0.882 -0.2746  0.4643  0.9116
11938TIP3    H257306   5.781   1.844   0.859  1.2290 -0.6088 -1.7337
11939TIP3   OH257307   2.407   4.216   5.984 -0.5937  0.0816  0.0726
11939TIP3    H157308   2.362   4.298   6.003  0.8588  1.4118 -1.8873
11939TIP3    H257309   2.497   4.231   6.013 -0.0740 -0.4261 -1.2242
11940TIP3   OH257310   3.053   5.917   0.361 -0.4292  0.6266  0.1365
11940TIP3    H157311   3.111   5.993   0.365  1.9343 -1.0633  0.2190
11940TIP3    H257312   3.086   5.858   0.429 -0.3128 -1.6587 -1.7632
11941TIP3   OH257313   4.166   2.588   3.822 -0.3705 -0.1027 -0.4690
11941TIP3    H157314   4.178   2.635   3.739 -2.1200 -0.6583 -1.0980
11941TIP3    H257315   4.071   2.579   3.830 -0.2731  0.2967  1.8336
11942TIP3   OH257316   2.642   6.023  12.934 -0.3084 -0.2744 -0.4288
11942TIP3    H157317   2.580   6.070  12.878 -1.6783 -1.8007 -0.2652
11942TIP3    H257318   2.709   5.991  12.874  0.7967  2.0041 -0.5152
11943TIP3   OH257319   1.238   3.698   3.360 -0.0673  0.2289  0.0800
11943TIP3    H157320   1.248   3.787   3.325  0.1635  0.3588  0.4674
11943TIP3    H257321   1.328   3.667   3.371 -0.1446 -0.5348 -1.2500
11944TIP3   OH257322   6.437   0.185  12.965 -0.5494  0.1495  0.0741
11944TIP3    H157323   6.348   0.156  12.987 -0.6817  0.6222  0.1662
11944TIP3    H257324   6.463   0.128  12.892 -0.4394 -0.8463  0.8647
11945TIP3   OH257325   6.509   0.369  15.903 -0.5711 -0.4315 -0.3747
11945TIP3    H157326   6.522   0.348  15.810 -1.2185 -1.0916 -0.3205
11945TIP3    H257327   6.417   0.350  15.919 -0.5453  0.0128  0.3241
11946TIP3   OH257328   2.647   4.831  12.276 -0.2071 -0.4128  0.7147
11946TIP3    H157329   2.648   4.852  12.182  0.1701 -0.4514  0.7081
11946TIP3    H257330   2.647   4.916  12.320 -0.2654 -0.3955  0.6822
11947TIP3   OH257331   2.793   3.646  15.354 -0.4510  0.2111  0.2154
11947TIP3    H157332   2.699   3.628  15.359 -0.5308  0.8752  1.3876
11947TIP3    H257333   2.825   3.587  15.286 -1.5495 -0.7539  0.5075
11948TIP3   OH257334   2.322   3.906   5.303  0.2059 -0.0430 -0.3345
11948TIP3    H157335   2.415   3.917   5.323 -0.0021  0.9741  0.1365
11948TIP3    H257336   2.289   3.852   5.375  0.1697  0.6971  0.2123
11949TIP3   OH257337   5.253   0.920   0.728 -0.7541  0.0106 -0.0686
11949TIP3    H157338   5.248   0.824   0.731 -1.2734  0.0017 -0.9143
11949TIP3    H257339   5.193   0.949   0.796  0.0414 -0.2619  0.7709
11950TIP3   OH257340   6.790   2.932  16.457  0.0691 -0.2534  0.0749
11950TIP3    H157341   6.869   2.892  16.495 -0.1348 -0.6409  0.0953
11950TIP3    H257342   6.748   2.861  16.410 -0.6013 -0.2089  0.5952
11951TIP3   OH257343   5.315   4.834   4.307 -0.2596  0.3123  0.9003
11951TIP3    H157344   5.408   4.850   4.294 -0.4817  0.1490 -1.2532
11951TIP3    H257345   5.277   4.922   4.316 -0.0541  0.4587  0.3881
11952TIP3   OH257346   4.561   4.113   2.395  0.4239  0.2420  0.2406
11952TIP3    H157347   4.510   4.193   2.385 -0.9430 -0.4476  1.3981
11952TIP3    H257348   4.496   4.044   2.407  1.5514 -1.1270 -1.0495
11953TIP3   OH257349   2.443   0.438   0.714 -0.5331  0.3125  0.7178
11953TIP3    H157350   2.440   0.351   0.675  0.6904 -0.2211  1.7577
11953TIP3    H257351   2.441   0.497   0.638  0.6468 -0.6692 -0.1297
11954TIP3   OH257352   5.752   5.425  15.468 -0.0338 -0.0258 -0.2844
11954TIP3    H157353   5.846   5.414  15.462 -0.3052 -3.4339 -0.2359
11954TIP3    H257354   5.719   5.400  15.381 -0.9771 -0.1955  0.1103
11955TIP3   OH257355   2.071   5.281   3.528  0.5569 -0.3126 -0.1070
11955TIP3    H157356   2.019   5.204   3.505  0.6258 -0.3088 -0.2736
11955TIP3    H257357   2.007   5.351   3.539  0.5661 -0.2073 -0.7365
11956TIP3   OH257358   1.076   2.148  11.730 -0.3092 -0.2792 -0.1360
11956TIP3    H157359   1.072   2.185  11.818  0.8817  0.6269 -0.4236
11956TIP3    H257360   1.054   2.055  11.742 -3.0216  0.3830  0.6614
11957TIP3   OH257361   6.363   1.079  11.128  0.0434 -0.9687 -0.3021
11957TIP3    H157362   6.432   1.102  11.191 -1.4591 -0.8832  1.3915
11957TIP3    H257363   6.411   1.047  11.052  1.9747 -2.2833  1.3339
11958TIP3   OH257364   0.818   6.431   2.295  0.0707  0.1735  0.6211
11958TIP3    H157365   0.739   6.376   2.301  0.0408  0.1797  0.2859
11958TIP3    H257366   0.819   6.479   2.378 -1.9341  2.3993 -0.5167
11959TIP3   OH257367   2.888   1.253   3.321  0.2208  0.2857  0.3741
11959TIP3    H157368   2.811   1.234   3.267 -2.6336 -0.9082  4.3773
11959TIP3    H257369   2.897   1.348   3.318  0.4889  0.2462 -2.3873
11960TIP3   OH257370   0.520   1.645  12.173 -0.2465 -0.2648 -0.1420
11960TIP3    H157371   0.538   1.552  12.160 -0.4121 -0.5230  1.2930
11960TIP3    H257372   0.476   1.673  12.093  0.3847 -1.2612 -0.8522
11961TIP3   OH257373   6.326   4.428   5.418 -0.2986 -0.1125 -0.5544
11961TIP3    H157374   6.381   4.447   5.494 -1.0466 -1.8430  0.4623
11961TIP3    H257375   6.257   4.495   5.422 -0.5034 -0.3709  0.4730
11962TIP3   OH257376   1.097   5.624   6.107 -0.1597 -0.0264  0.2112
11962TIP3    H157377   1.042   5.637   6.030 -0.6740 -1.1904  0.3718
11962TIP3    H257378   1.139   5.710   6.121 -0.0515  0.2044 -1.3527
11963TIP3   OH257379   6.459   5.698  13.293 -0.3969 -0.4811 -1.0577
11963TIP3    H157380   6.462   5.663  13.204 -1.0893  0.2378 -1.3730
11963TIP3    H257381   6.402   5.775  13.287  1.0068  0.6566 -0.3738
11964TIP3   OH257382   3.583   5.741  12.499  0.1813 -0.0510  0.4072
11964TIP3    H157383   3.616   5.811  12.555 -2.3664 -0.3483  2.4493
11964TIP3    H257384   3.501   5.774  12.464 -0.0789 -1.2641 -0.1899
11965TIP3   OH257385   2.619   5.419  13.722 -0.1237  0.6172 -0.5798
11965TIP3    H157386   2.653   5.341  13.678 -1.9699 -0.5523 -0.0466
11965TIP3    H257387   2.567   5.385  13.795  0.9523  2.4380  1.1390
11966TIP3   OH257388   4.192   2.279   3.347  0.2587 -0.4570  0.3744
11966TIP3    H157389   4.193   2.375   3.357  0.3992 -0.4531  0.3232
11966TIP3    H257390   4.226   2.246   3.431 -0.4990 -0.4863  0.6813
11967TIP3   OH257391   5.545   6.751  12.248 -0.2601 -0.2934  0.4002
11967TIP3    H157392   5.481   6.758  12.319 -0.3390  0.5923  0.2594
11967TIP3    H257393   5.508   6.685  12.189 -1.3734  0.6184  0.0200
11968TIP3   OH257394   5.566   5.633  14.361 -0.2921  0.2857  0.3713
11968TIP3    H157395   5.609   5.556  14.324 -0.0562  0.5284  0.1375
11968TIP3    H257396   5.621   5.658  14.435  0.3980  1.0463 -0.3813
11969TIP3   OH257397   1.715   3.639   4.557  0.3019 -0.6247 -0.1096
11969TIP3    H157398   1.688   3.632   4.649 -0.0769  0.3945 -0.1287
11969TIP3    H257399   1.746   3.729   4.549  1.9687 -1.2148 -0.5641
11970TIP3   OH257400   2.188   3.703  13.526 -0.1113  0.2175  0.1481
11970TIP3    H157401   2.150   3.631  13.476  0.7081 -0.1904  0.0901
11970TIP3    H257402   2.145   3.698  13.611 -0.1705 -0.2575  0.0939
11971TIP3   OH257403   0.567   5.854  16.795 -0.2909 -0.4355 -0.6036
11971TIP3    H157404   0.635   5.826  16.735  0.1910  0.6786 -0.6115
11971TIP3    H257405   0.606   5.926  16.844 -1.4370  0.1823 -0.5554
11972TIP3   OH257406   5.364   4.204  15.885  0.4928  0.2431 -0.1358
11972TIP3    H157407   5.325   4.268  15.945 -0.6021  0.9101 -1.4994
11972TIP3    H257408   5.289   4.152  15.854  1.1464 -0.5915 -0.3554
11973TIP3   OH257409   0.528   0.663  15.352 -0.0164 -0.1365  0.2758
11973TIP3    H157410   0.611   0.661  15.305  0.8575 -1.9806  1.7559
11973TIP3    H257411   0.473   0.600  15.304  0.8249 -1.9061  1.5304
11974TIP3   OH257412   2.183   2.533  11.685  0.0431 -0.0671 -0.1926
11974TIP3    H157413   2.200   2.558  11.776  0.9047  1.2857 -0.6895
11974TIP3    H257414   2.090   2.551  11.672  0.0461  0.2891  0.2562
11975TIP3   OH257415   0.807   4.924  15.882  0.3162 -0.1219  0.0417
11975TIP3    H157416   0.720   4.963  15.879 -1.1175 -2.9796  0.7540
11975TIP3    H257417   0.799   4.854  15.948  2.5475 -1.7967 -1.3443
11976TIP3   OH257418   4.989   1.842  13.178 -0.4736  0.5491  0.0461
11976TIP3    H157419   4.906   1.856  13.132  0.0881 -0.1918 -1.2485
11976TIP3    H257420   4.970   1.772  13.240 -0.6122 -0.2689 -0.8893
11977TIP3   OH257421   4.508   4.313  16.003 -0.0340 -0.1945  0.1021
11977TIP3    H157422   4.431   4.277  16.048 -0.6704  0.2719 -0.5898
11977TIP3    H257423   4.512   4.266  15.920  0.7581 -0.6019  0.3638
11978TIP3   OH257424   3.051   5.676  14.204  0.1468  0.1668  0.0066
11978TIP3    H157425   3.091   5.748  14.253 -1.8419  1.1546  0.3049
11978TIP3    H257426   3.052   5.602  14.264  2.0653 -0.0572 -0.2404
11979TIP3   OH257427   3.696   1.070  15.768 -0.1892 -0.8368  0.5347
11979TIP3    H157428   3.772   1.055  15.824  0.9092  0.0389 -0.6700
11979TIP3    H257429   3.659   0.983  15.755  0.6189 -1.2876  1.1068
11980TIP3   OH257430   1.050   6.182   4.768  0.6462 -0.1849 -0.2301
11980TIP3    H157431   1.113   6.231   4.820 -0.1171  0.8090 -0.2078
11980TIP3    H257432   0.996   6.136   4.832 -0.2470  0.9815 -0.1045
11981TIP3   OH257433   3.914   3.814   1.873  0.1464 -0.0273  0.4681
11981TIP3    H157434   4.008   3.794   1.871  0.7049  2.3213  0.5251
11981TIP3    H257435   3.903   3.869   1.951 -0.8033  1.6731 -0.7992
11982TIP3   OH257436   1.591   1.839   0.190  0.4879 -0.1553  0.2500
11982TIP3    H157437   1.502   1.868   0.206  0.9447  2.1847 -0.9496
11982TIP3    H257438   1.629   1.826   0.277 -0.5345  0.4379  0.7926
11983TIP3   OH257439   2.283   0.767  10.429 -0.3168 -0.2090 -0.0816
11983TIP3    H157440   2.359   0.733  10.381 -0.5062 -1.3309  0.3668
11983TIP3    H257441   2.264   0.699  10.494 -0.9412  0.6251  0.6360
11984TIP3   OH257442   3.663   4.030  14.650 -0.0138  0.0604 -0.1753
11984TIP3    H157443   3.671   4.062  14.560  0.1915 -0.1233 -0.2260
11984TIP3    H257444   3.569   4.019  14.664 -0.1209  1.1475  0.0184
11985TIP3   OH257445   1.831   2.281   2.326  0.0909 -0.1450 -0.0269
11985TIP3    H157446   1.885   2.222   2.380  1.1286  0.3488 -0.4850
11985TIP3    H257447   1.760   2.226   2.294 -0.3057 -0.5614  1.4715
11986TIP3   OH257448   5.012   6.503   6.577  0.6115  0.0197  0.7439
11986TIP3    H157449   5.014   6.423   6.524 -0.0282 -0.4266  1.3748
11986TIP3    H257450   5.104   6.524   6.591  0.7999  0.1860 -0.5878
11987TIP3   OH257451   6.653   4.894  15.941  0.3320 -0.7636  0.2599
11987TIP3    H157452   6.661   4.947  15.862 -0.1042 -2.4618 -0.9787
11987TIP3    H257453   6.559   4.897  15.963  0.6295  0.7750  1.5500
11988TIP3   OH257454   6.804   4.580  15.450  0.0655  0.2750  0.7010
11988TIP3    H157455   6.743   4.647  15.421  2.5203  2.1955 -0.4556
11988TIP3    H257456   6.752   4.521  15.505 -2.6963  1.8572 -0.0451
11989TIP3   OH257457   4.181   2.827   1.092 -0.3340 -0.1432  0.7153
11989TIP3    H157458   4.189   2.769   1.016  1.3011  0.5597  0.3195
11989TIP3    H257459   4.246   2.794   1.155  1.1812  1.6518  0.1783
11990TIP3   OH257460   5.794   0.511   6.284  0.3718  0.2682 -0.3660
11990TIP3    H157461   5.815   0.598   6.250  0.6528 -0.0691 -1.0555
11990TIP3    H257462   5.865   0.492   6.346 -0.2258  0.9478  0.5633
11991TIP3   OH257463   1.419   2.811   5.702 -0.4024 -0.0459 -0.2523
11991TIP3    H157464   1.514   2.823   5.704 -0.3426 -0.1677 -1.4962
11991TIP3    H257465   1.397   2.781   5.791  0.3580  2.3976  0.8454
11992TIP3   OH257466   1.346   1.218  16.905 -0.3616 -0.1005  0.0562
11992TIP3    H157467   1.330   1.278  16.832  1.9614  1.3504  0.6560
11992TIP3    H257468   1.268   1.227  16.961 -1.2061  0.3825 -1.1525
11993TIP3   OH257469   5.500   5.305  15.356  0.2081  0.0079 -0.1285
11993TIP3    H157470   5.453   5.236  15.310  0.1786 -0.9470  1.2855
11993TIP3    H257471   5.512   5.374  15.290  0.9341 -1.6409 -1.8013
11994TIP3   OH257472   6.727   4.978   5.572  0.2000 -0.1521 -0.1953
11994TIP3    H157473   6.642   4.952   5.607  0.1927 -0.2441 -0.2805
11994TIP3    H257474   6.711   4.995   5.479  0.2002  0.1806 -0.1345
11995TIP3   OH257475   1.288   5.889  13.853 -0.1218  0.0455  0.3261
11995TIP3    H157476   1.379   5.863  13.868  0.8050  3.1927  0.7912
11995TIP3    H257477   1.246   5.881  13.939  0.0172 -0.2518  0.3681
11996TIP3   OH257478   3.274   1.779   5.860 -0.2415  0.5845  0.1375
11996TIP3    H157479   3.350   1.786   5.802 -0.2744 -0.0300  0.0160
11996TIP3    H257480   3.207   1.834   5.820  0.3398  1.6382  0.5766
11997TIP3   OH257481   5.189   6.730   3.959  0.2802  0.2550 -0.3188
11997TIP3    H157482   5.112   6.679   3.986 -0.8829  2.5575  1.0268
11997TIP3    H257483   5.214   6.780   4.037  1.9504  1.0024 -1.2779
11998TIP3   OH257484   4.716   3.997  12.150  0.2347  0.1683 -0.0023
11998TIP3    H157485   4.780   3.945  12.198 -0.2084 -0.9812 -0.6221
11998TIP3    H257486   4.652   3.933  12.117 -0.8931  1.2190  0.0785
11999TIP3   OH257487   3.531   2.780   5.111  0.2748  0.4828 -0.2042
11999TIP3    H157488   3.476   2.719   5.062 -0.6211  0.9496  0.1909
11999TIP3    H257489   3.507   2.767   5.203  2.3043 -0.7566  0.2161
12000TIP3   OH257490   6.747   1.330  17.073  0.5595  0.3731  0.0855
12000TIP3    H157491   6.800   1.328  17.152  0.2110  0.4751  0.3275
12000TIP3    H257492   6.707   1.418  17.073  0.3441  0.2774 -0.0557
12001TIP3   OH257493   1.605   6.613  13.667 -0.3360 -0.5566  0.3369
12001TIP3    H157494   1.674   6.621  13.602  0.0333  0.3536  0.8348
12001TIP3    H257495   1.647   6.632  13.751 -0.5412 -2.7703  1.0331
12002TIP3   OH257496   2.562   1.427  15.455 -0.0751 -0.0979 -0.4057
12002TIP3    H157497   2.604   1.344  15.432  0.5152  0.4279 -1.2347
12002TIP3    H257498   2.610   1.493  15.407 -0.4054  0.7670  0.4183
12003TIP3   OH257499   1.953   3.738   1.132 -0.1231 -0.4043  0.3353
12003TIP3    H157500   2.001   3.686   1.197 -0.8997 -2.5094 -0.6905
12003TIP3    H257501   1.907   3.674   1.079  0.6420  1.1930 -2.4794
12004TIP3   OH257502   3.750   2.843   1.038 -0.2655  0.1635  0.1265
12004TIP3    H157503   3.831   2.806   1.075  0.0031  0.0153 -0.5975
12004TIP3    H257504   3.727   2.913   1.098  1.2475  1.2128 -0.4574
12005TIP3   OH257505   1.266   2.952  15.580  0.5382  0.3795 -0.3663
12005TIP3    H157506   1.324   2.888  15.539 -1.7162 -0.9400 -1.6889
12005TIP3    H257507   1.262   2.926  15.672  0.5201 -0.7152 -0.6692
12006TIP3   OH257508   0.749   3.769  13.044  0.2756  0.0486 -0.0878
12006TIP3    H157509   0.839   3.743  13.025  0.3212  1.0433 -1.3956
12006TIP3    H257510   0.695   3.711  12.990 -0.0673 -1.9668  2.2114
12007TIP3   OH257511   2.284   5.791   6.581  0.2590  0.2300 -0.0490
12007TIP3    H157512   2.244   5.817   6.498  0.7474 -0.1152 -0.3931
12007TIP3    H257513   2.211   5.789   6.643  0.1615  2.3982  0.0082
12008TIP3   OH257514   2.075   3.065  16.282  0.0295  0.2346 -0.2412
12008TIP3    H157515   2.071   3.130  16.351  0.8606 -2.9231  3.1048
12008TIP3    H257516   2.024   3.102  16.210  0.0079  4.1992  1.5801
12009TIP3   OH257517   1.378   3.469  15.976 -0.0931 -1.0566 -0.0124
12009TIP3    H157518   1.319   3.435  15.909 -1.1732  0.0328  0.3293
12009TIP3    H257519   1.320   3.515  16.037  1.1315  0.2244  0.2370
12010TIP3   OH257520   0.603   0.779  14.768  0.0719 -0.0315  0.7134
12010TIP3    H157521   0.692   0.769  14.733  0.3490  0.1105  1.3613
12010TIP3    H257522   0.557   0.830  14.702  0.3562 -0.4637  0.1778
12011TIP3   OH257523   1.009   1.226  12.469  0.1077  0.1669 -0.1828
12011TIP3    H157524   1.079   1.223  12.404  0.1216 -1.4340 -0.1390
12011TIP3    H257525   1.022   1.147  12.522 -1.1239  0.3739  0.4741
12012TIP3   OH257526   4.040   2.617  11.232  0.3772  0.0376 -0.6580
12012TIP3    H157527   3.981   2.544  11.246 -0.2937  0.5840 -0.5609
12012TIP3    H257528   4.021   2.646  11.143 -0.2207  0.8275 -0.2936
12013TIP3   OH257529   0.934   6.636  14.880 -0.0358  0.2598  0.1346
12013TIP3    H157530   0.903   6.603  14.965 -1.6289  1.6787  0.1692
12013TIP3    H257531   0.877   6.711  14.862 -0.0800 -0.2966 -2.4371
12014TIP3   OH257532   0.346   3.730   5.004  0.1535 -0.0789 -0.8257
12014TIP3    H157533   0.272   3.789   5.015  0.1743 -0.3809  1.1496
12014TIP3    H257534   0.320   3.672   4.933 -0.9451  0.6325 -1.0263
12015TIP3   OH257535   1.470   2.003   3.424 -0.0832  0.1221  0.1034
12015TIP3    H157536   1.515   1.981   3.505  0.4463 -1.0007 -0.4752
12015TIP3    H257537   1.405   2.068   3.450 -0.2084 -0.5226  1.5058
12016TIP3   OH257538   0.315   4.608   5.839 -0.4646 -0.2221  0.1759
12016TIP3    H157539   0.405   4.586   5.862 -0.7732 -1.5819  0.1763
12016TIP3    H257540   0.277   4.642   5.920  0.3646  1.5456 -0.1308
12017TIP3   OH257541   2.934   5.514  16.445  0.0591 -0.0300 -0.0998
12017TIP3    H157542   3.011   5.570  16.436  0.6538 -0.6292  1.0308
12017TIP3    H257543   2.936   5.457  16.368  1.9997 -1.5077  0.9771
12018TIP3   OH257544   6.499   0.070   5.468  0.0412 -0.2644  0.1692
12018TIP3    H157545   6.435   0.004   5.439  0.8558 -1.4195  0.9048
12018TIP3    H257546   6.557   0.023   5.528  1.8817  0.6223 -0.8151
12019TIP3   OH257547   3.686   3.660   1.709  0.1808 -0.0101 -0.5405
12019TIP3    H157548   3.762   3.702   1.749 -0.1709 -0.9795  1.2791
12019TIP3    H257549   3.632   3.733   1.677  0.3777  0.8545  1.0140
12020TIP3   OH257550   1.253   6.272  11.020  0.1249  0.3460  0.0145
12020TIP3    H157551   1.221   6.266  10.930  2.1868  0.2357 -0.7870
12020TIP3    H257552   1.266   6.365  11.036  1.2594  0.2875 -0.4299
12021TIP3   OH257553   6.583   6.395   5.116 -0.2519  0.0459 -0.0815
12021TIP3    H157554   6.518   6.332   5.150  1.4949 -2.7998 -1.6178
12021TIP3    H257555   6.621   6.434   5.195  0.8588 -3.3345  1.2754
12022TIP3   OH257556   1.788   6.804  10.350  0.2682 -0.1780 -0.5639
12022TIP3    H157557   1.840   6.724  10.350  0.3588 -0.1370  0.3474
12022TIP3    H257558   1.699   6.775  10.370  0.4454  0.0022  0.6141
12023TIP3   OH257559   0.186   0.571   3.511 -0.0633 -0.0044 -0.7176
12023TIP3    H157560   0.252   0.546   3.446  1.1254 -0.7469  0.6905
12023TIP3    H257561   0.107   0.589   3.460  0.8100 -0.5621 -2.3450
12024TIP3   OH257562   5.106   6.807  16.793 -0.4769  0.0205 -0.3833
12024TIP3    H157563   5.159   6.804  16.713 -1.7128  1.4593 -1.3188
12024TIP3    H257564   5.018   6.781  16.764 -0.9618  0.6323  0.4797
12025TIP3   OH257565   5.277   0.166   4.537 -0.1238  0.0448  0.2720
12025TIP3    H157566   5.329   0.110   4.595 -0.0283 -1.4410 -1.1707
12025TIP3    H257567   5.187   0.136   4.549 -0.1488 -0.0228 -0.0737
12026TIP3   OH257568   2.605   4.449  12.045 -0.6703 -0.0635  0.2656
12026TIP3    H157569   2.679   4.387  12.041 -0.6073  0.0469 -0.9376
12026TIP3    H257570   2.560   4.428  12.126  2.0444  1.4495  2.3306
12027TIP3   OH257571   3.612   2.299   1.814 -0.1546 -0.5368  0.0922
12027TIP3    H157572   3.650   2.216   1.841  1.5368  0.6031  1.3982
12027TIP3    H257573   3.686   2.350   1.780 -1.1081  0.5415 -0.4431
12028TIP3   OH257574   6.517   2.750  15.711  0.6065  0.0597  0.0877
12028TIP3    H157575   6.452   2.685  15.737 -0.6342  0.5921 -1.4837
12028TIP3    H257576   6.486   2.832  15.751 -0.0110  0.4134 -1.0682
12029TIP3   OH257577   1.232   3.891   1.538 -0.1259  0.4519 -0.4293
12029TIP3    H157578   1.318   3.931   1.529  1.1091 -2.0291 -0.4570
12029TIP3    H257579   1.186   3.914   1.457  0.4912  1.7977 -0.4167
12030TIP3   OH257580   2.852   5.891  12.804  0.0763  0.5533 -0.3301
12030TIP3    H157581   2.923   5.909  12.866 -0.2796 -0.5430  0.4265
12030TIP3    H257582   2.878   5.937  12.724  1.5574  0.3395 -0.0133
12031TIP3   OH257583   3.158   6.333   4.438 -0.8103 -0.1985 -0.6047
12031TIP3    H157584   3.126   6.407   4.488 -0.1860 -0.1791 -0.2276
12031TIP3    H257585   3.099   6.261   4.460  0.8654 -0.8653  2.1056
12032TIP3   OH257586   0.359   3.905   5.388 -0.2243  0.3704  0.0638
12032TIP3    H157587   0.333   3.832   5.444 -0.6340  1.5600  1.4608
12032TIP3    H257588   0.281   3.924   5.335  0.5462 -1.6013 -1.9840
12033TIP3   OH257589   5.407   6.420   4.360  0.9535  0.4406 -0.1360
12033TIP3    H157590   5.437   6.330   4.377  0.4092  0.5011  1.2758
12033TIP3    H257591   5.386   6.420   4.266 -0.8482 -1.4830  0.1769
12034TIP3   OH257592   1.444   3.954   6.692 -0.4963 -0.0021 -0.3111
12034TIP3    H157593   1.449   3.923   6.601  1.2860 -1.9014  0.3557
12034TIP3    H257594   1.501   3.894   6.741 -0.7472  1.4758  1.9354
12035TIP3   OH257595   5.635   0.783   3.198  0.2116  0.5015  0.3045
12035TIP3    H157596   5.630   0.809   3.106 -1.9384  1.2569  0.5831
12035TIP3    H257597   5.660   0.691   3.195 -1.0827  0.1529 -1.1110
12036TIP3   OH257598   2.555   1.894  13.871 -0.2780 -0.2445 -0.5613
12036TIP3    H157599   2.479   1.851  13.830 -0.6881  0.0477 -0.1079
12036TIP3    H257600   2.610   1.921  13.797 -0.0880 -1.3981 -0.8695
12037TIP3   OH257601   3.911   2.260   0.710 -0.0367 -0.4561 -0.3801
12037TIP3    H157602   3.921   2.266   0.615  0.5036  1.1025 -0.2536
12037TIP3    H257603   3.982   2.314   0.745 -1.0705  0.1448  0.8704
12038TIP3   OH257604   5.716   3.350  11.505  0.1499  0.5535 -0.0447
12038TIP3    H157605   5.780   3.418  11.482 -0.1699  0.0550 -2.7608
12038TIP3    H257606   5.765   3.290  11.562  1.4946  1.2255 -0.4433
12039TIP3   OH257607   2.309   2.934  12.060  0.3484  0.3054  0.0183
12039TIP3    H157608   2.336   2.960  11.972  1.1951  2.4628  0.8529
12039TIP3    H257609   2.225   2.977  12.073 -0.5421 -1.2511 -0.2288
12040TIP3   OH257610   4.819   1.187  16.654  0.5812 -0.1030  0.2168
12040TIP3    H157611   4.783   1.171  16.567  2.8089  0.2841 -0.8360
12040TIP3    H257612   4.884   1.118  16.666  0.6889  0.1764  1.3658
12041TIP3   OH257613   1.030   4.594   4.672  0.6827  0.5066 -0.3795
12041TIP3    H157614   0.965   4.607   4.740  0.7388 -1.5706  0.1470
12041TIP3    H257615   1.070   4.680   4.659  0.2604  1.0701  1.7818
12042TIP3   OH257616   6.383   5.796   5.986  0.5655 -0.9508  0.5178
12042TIP3    H157617   6.386   5.701   5.999  1.3543 -1.1835 -1.1856
12042TIP3    H257618   6.468   5.827   6.016  0.7213 -0.9295  0.0607
12043TIP3   OH257619   2.722   4.548  16.076  0.0055 -0.3840  0.1737
12043TIP3    H157620   2.695   4.600  16.001  0.5404 -0.4610 -0.0766
12043TIP3    H257621   2.675   4.465  16.067  0.6743 -0.7014 -0.5199
12044TIP3   OH257622   4.175   4.540   4.165 -0.2367 -0.0785  0.3165
12044TIP3    H157623   4.097   4.595   4.155  0.4901  1.0481  0.7097
12044TIP3    H257624   4.163   4.498   4.251 -0.6846 -0.3789  0.1135
12045TIP3   OH257625   4.369   1.590  15.968 -0.3486  0.2440  0.0589
12045TIP3    H157626   4.337   1.626  15.886 -1.8004  0.5900  0.7479
12045TIP3    H257627   4.313   1.628  16.035 -0.6993 -1.7988  1.0048
12046TIP3   OH257628   0.552   2.115  10.475 -0.3094 -0.6704  0.3454
12046TIP3    H157629   0.557   2.187  10.412  1.0498  0.3197  1.4993
12046TIP3    H257630   0.473   2.134  10.527  0.2764  0.2719  0.9235
12047TIP3   OH257631   4.854   5.885   2.277 -0.0550 -0.4624 -0.6565
12047TIP3    H157632   4.922   5.822   2.300 -0.4013 -0.7855 -0.5032
12047TIP3    H257633   4.891   5.970   2.300  0.3262 -0.6266 -0.6503
12048TIP3   OH257634   2.497   5.387  12.821 -0.2766 -0.2207  0.5050
12048TIP3    H157635   2.519   5.374  12.729 -1.0662  0.0269  0.2675
12048TIP3    H257636   2.401   5.385  12.822 -0.2736 -0.0594  1.2990
12049TIP3   OH257637   1.717   4.483   0.836 -0.5916 -0.5014 -0.1634
12049TIP3    H157638   1.650   4.521   0.779  1.4721  0.8664 -1.8370
12049TIP3    H257639   1.730   4.395   0.801 -0.6661 -0.3368 -0.6115
12050TIP3   OH257640   4.676   4.986  14.377  0.0183 -0.4404 -0.4010
12050TIP3    H157641   4.610   4.917  14.367  0.4012 -0.6376 -1.8596
12050TIP3    H257642   4.647   5.055  14.317 -0.8269  1.0846  1.6566
12051TIP3   OH257643   2.230   2.455  13.528  0.0957 -0.0010  0.0688
12051TIP3    H157644   2.318   2.415  13.529  0.6403  1.1806  1.2569
12051TIP3    H257645   2.225   2.505  13.609 -1.5138  0.3449 -0.2159
12052TIP3   OH257646   0.714   3.566   1.171 -0.0732 -0.4795  0.8120
12052TIP3    H157647   0.645   3.597   1.112 -0.4153  0.7240  1.8094
12052TIP3    H257648   0.743   3.483   1.132 -1.4798 -0.5812 -0.0915
12053TIP3   OH257649   6.072   0.826  13.929  0.4065 -0.2535  0.8498
12053TIP3    H157650   6.001   0.872  13.975 -0.4605 -2.0972  1.4652
12053TIP3    H257651   6.092   0.752  13.985  1.5562 -0.7934 -0.2362
12054TIP3   OH257652   3.710   3.028   2.848 -0.3993 -0.2001 -0.4703
12054TIP3    H157653   3.735   3.056   2.936 -0.3735 -0.5772 -0.3548
12054TIP3    H257654   3.620   2.996   2.858 -0.2736 -0.5685 -0.5094
12055TIP3   OH257655   6.326   4.254  10.957  0.2737  0.1773 -0.1914
12055TIP3    H157656   6.247   4.199  10.958 -0.0154  0.5545 -1.0578
12055TIP3    H257657   6.374   4.228  11.036 -0.9139  0.2279  0.5803
12056TIP3   OH257658   6.811   6.532  11.487  0.6941  0.6035  0.4471
12056TIP3    H157659   6.809   6.449  11.535 -0.1097  0.0695 -0.4752
12056TIP3    H257660   6.862   6.513  11.409 -1.6580  0.1670 -1.1013
12057TIP3   OH257661   1.374   3.166   2.968 -0.0497  0.2926  0.2846
12057TIP3    H157662   1.322   3.118   3.032  1.2815 -1.7222 -0.0354
12057TIP3    H257663   1.311   3.222   2.922 -1.3711  0.2118  1.8893
12058TIP3   OH257664   0.902   0.727   2.819 -0.0681  0.3099 -0.4529
12058TIP3    H157665   0.887   0.783   2.743  1.1525 -1.7124 -2.3001
12058TIP3    H257666   0.994   0.739   2.841  0.1985 -0.8400 -0.8396
12059TIP3   OH257667   0.953   0.491  12.350  0.3256  0.3163 -0.2107
12059TIP3    H157668   0.947   0.404  12.310  2.3279 -0.0192  0.1208
12059TIP3    H257669   1.032   0.529  12.312  0.1170  1.5392  0.5305
12060TIP3   OH257670   2.500   2.352  12.062  0.0918 -0.7070 -0.4462
12060TIP3    H157671   2.582   2.343  12.014  1.9201 -3.2958  2.7537
12060TIP3    H257672   2.515   2.424  12.123 -0.9867  0.3594 -1.3761
12061TIP3   OH257673   1.752   5.359  16.980 -0.4165 -0.1364  0.0293
12061TIP3    H157674   1.704   5.277  16.992 -2.1708  0.1512 -3.7973
12061TIP3    H257675   1.821   5.338  16.917 -1.8637  1.5431 -2.2351
12062TIP3   OH257676   3.175   0.079   5.999 -0.1211 -0.0548  0.5494
12062TIP3    H157677   3.175  -0.011   6.032  0.3530  0.4832  2.1400
12062TIP3    H257678   3.096   0.118   6.036  0.2483  0.4830  0.7814
12063TIP3   OH257679   6.115   5.269   0.193 -0.2752 -0.8011 -0.2502
12063TIP3    H157680   6.108   5.282   0.287 -0.3018 -0.6179 -0.2767
12063TIP3    H257681   6.206   5.246   0.178  0.4544  1.8613 -0.4803
12064TIP3   OH257682   3.503   1.650  16.880 -0.1949 -0.5033 -0.3853
12064TIP3    H157683   3.503   1.659  16.975 -1.7185 -0.9664 -0.3269
12064TIP3    H257684   3.562   1.576  16.862  1.3202  0.5353  0.0542
12065TIP3   OH257685   3.440   5.040   4.923 -0.1094 -0.4018 -0.1617
12065TIP3    H157686   3.391   5.107   4.971 -1.2794 -1.4418  0.1608
12065TIP3    H257687   3.489   5.089   4.857  0.8908  0.9717  1.5340
12066TIP3   OH257688   2.395   4.955  11.132  0.0191  0.1560 -0.5567
12066TIP3    H157689   2.452   5.032  11.128  0.2105  0.0364 -0.1333
12066TIP3    H257690   2.346   4.958  11.049  1.0440 -0.0573 -1.1922
12067TIP3   OH257691   0.230   1.011   5.242  0.4002 -0.0162 -0.0660
12067TIP3    H157692   0.151   1.008   5.189  0.9203  0.6449 -0.9171
12067TIP3    H257693   0.300   0.980   5.183  0.9688  0.6309  0.2518
12068TIP3   OH257694   1.266   6.663  13.680 -0.0362  0.2567  0.7863
12068TIP3    H157695   1.312   6.670  13.596  0.5163 -1.5628  0.8949
12068TIP3    H257696   1.331   6.690  13.745  0.2078 -0.2994  0.7772
12069TIP3   OH257697   2.509   3.182   3.810  0.2976 -0.2817 -0.5329
12069TIP3    H157698   2.595   3.145   3.826  0.2246  0.5557  2.3772
12069TIP3    H257699   2.526   3.264   3.762  1.1262 -0.1455 -0.0135
12070TIP3   OH257700   2.505   2.818   3.376 -0.1567 -0.2103 -0.0834
12070TIP3    H157701   2.468   2.841   3.461 -0.0638  0.3639 -0.1972
12070TIP3    H257702   2.428   2.804   3.320 -0.2367  1.7404 -0.5238
12071TIP3   OH257703   0.522   5.211  13.758  0.1434 -0.0756 -0.3835
12071TIP3    H157704   0.461   5.145  13.790  0.1301  0.9539  1.8949
12071TIP3    H257705   0.549   5.259  13.836  1.1289  1.8118 -1.7992
12072TIP3   OH257706   5.472   5.121  13.659 -0.3245  0.5999 -0.7529
12072TIP3    H157707   5.456   5.168  13.740 -0.0952  1.6564 -1.3066
12072TIP3    H257708   5.502   5.034  13.687 -2.7784  0.0069  0.2771
12073TIP3   OH257709   0.116   3.733   3.316 -0.7653 -0.3237 -0.4639
12073TIP3    H157710   0.116   3.690   3.402 -0.0438 -0.1762 -0.3793
12073TIP3    H257711   0.177   3.806   3.326 -0.1871 -0.6809 -1.2780
12074TIP3   OH257712   4.199   5.995   5.785  0.1399  0.3303  1.1196
12074TIP3    H157713   4.113   5.973   5.748  0.3016 -0.1729  1.0414
12074TIP3    H257714   4.261   5.946   5.732  0.4223  0.0881  1.6688
12075TIP3   OH257715   5.640   1.428  15.669 -0.1652  0.7145  0.2313
12075TIP3    H157716   5.666   1.506  15.718 -0.7575  0.0533  1.6377
12075TIP3    H257717   5.698   1.359  15.700 -0.6119  0.2575  0.0712
12076TIP3   OH257718   1.696   0.187   4.970  0.4212  0.4341  0.2966
12076TIP3    H157719   1.766   0.175   5.034  2.2977 -1.2937 -1.9182
12076TIP3    H257720   1.636   0.115   4.985  1.1814 -0.3244 -0.2263
12077TIP3   OH257721   5.350   3.804   4.996 -0.2346  0.0733  0.2761
12077TIP3    H157722   5.416   3.821   4.929  0.6132 -1.5375  0.6400
12077TIP3    H257723   5.268   3.839   4.959  0.2038 -0.7514 -1.5961
12078TIP3   OH257724   0.164   1.356  12.748 -0.1780  0.7657 -0.0763
12078TIP3    H157725   0.213   1.364  12.830  1.5786 -0.8296 -0.9114
12078TIP3    H257726   0.196   1.428  12.694  1.0004 -0.0192 -0.4629
12079TIP3   OH257727   5.347   6.749  15.796 -0.0590 -0.0407  0.1278
12079TIP3    H157728   5.399   6.672  15.819  1.3728  1.0850  0.8253
12079TIP3    H257729   5.351   6.805  15.873  2.2059  2.4258 -1.5792
12080TIP3   OH257730   6.134   6.461   4.293 -0.4594  0.4727  0.3375
12080TIP3    H157731   6.088   6.456   4.376 -0.9659 -0.1261  0.0334
12080TIP3    H257732   6.202   6.527   4.306 -1.2528  1.1986  0.8718
12081TIP3   OH257733   6.488   3.543   0.422  0.2005 -0.4728 -0.1517
12081TIP3    H157734   6.498   3.471   0.360  2.2026 -1.0745  0.7937
12081TIP3    H257735   6.466   3.500   0.505 -3.5890  0.3860 -0.5435
12082TIP3   OH257736   2.491   5.615   5.240 -0.1211 -0.2521  0.0894
12082TIP3    H157737   2.464   5.687   5.183 -1.7672 -1.2300 -0.4179
12082TIP3    H257738   2.475   5.648   5.329 -0.8365  0.0284 -0.1399
12083TIP3   OH257739   0.176   4.419  15.317  0.1719  0.0481  0.1278
12083TIP3    H157740   0.198   4.510  15.334 -1.9506  0.4144  1.3705
12083TIP3    H257741   0.109   4.423  15.249 -1.3396 -0.3692  1.5229
12084TIP3   OH257742   0.436   2.174  13.253  0.0055 -0.7911  0.2895
12084TIP3    H157743   0.484   2.164  13.170 -0.1892 -0.2190  0.1035
12084TIP3    H257744   0.504   2.178  13.320  0.1901 -0.6395  0.0936
12085TIP3   OH257745   1.722   3.564  12.507 -0.4031 -0.3059 -0.5099
12085TIP3    H157746   1.628   3.551  12.494 -0.0711 -1.8439 -1.6907
12085TIP3    H257747   1.728   3.614  12.588 -2.1556 -2.4480  1.0776
12086TIP3   OH257748   0.175   6.354   0.150 -0.5138 -0.0037 -0.0778
12086TIP3    H157749   0.211   6.277   0.106 -1.0404  0.4324 -1.3270
12086TIP3    H257750   0.247   6.386   0.205 -0.0123 -0.8860 -0.1951
12087TIP3   OH257751   0.810   5.083   3.909 -0.0137  0.5041 -0.2767
12087TIP3    H157752   0.820   5.176   3.890  1.6638  0.3435 -0.3708
12087TIP3    H257753   0.851   5.072   3.995  0.7397 -0.2942 -0.7151
12088TIP3   OH257754   0.138   0.818   2.738  0.2552 -0.5556 -0.2273
12088TIP3    H157755   0.188   0.899   2.728 -1.5438  0.6874  0.4501
12088TIP3    H257756   0.183   0.772   2.809  0.6693  0.3448  0.1152
12089TIP3   OH257757   0.441   5.092  12.917  0.4489 -0.1735  0.8363
12089TIP3    H157758   0.451   5.126  13.006  0.5888  0.7627  0.4828
12089TIP3    H257759   0.452   4.998  12.925 -0.2189 -0.1687  1.9114
12090TIP3   OH257760   5.534   0.232  14.393 -0.1468 -0.0809 -0.6632
12090TIP3    H157761   5.537   0.229  14.489 -0.0846 -0.9580 -0.6808
12090TIP3    H257762   5.443   0.211  14.371 -0.4539  1.3073 -0.7731
12091TIP3   OH257763   2.771   4.392  16.696 -0.0238  0.1805  0.9395
12091TIP3    H157764   2.718   4.413  16.773 -0.3418  0.2789  0.7003
12091TIP3    H257765   2.707   4.376  16.627  0.2222  2.7665 -0.0274
12092TIP3   OH257766   5.861   5.845  16.908  0.1870  0.5287  0.1369
12092TIP3    H157767   5.944   5.846  16.955 -0.3912 -1.0761  1.2876
12092TIP3    H257768   5.806   5.910  16.953 -0.1884 -0.6266  1.4240
12093TIP3   OH257769   4.600   1.149  13.047 -0.0306  0.3011 -0.2473
12093TIP3    H157770   4.578   1.064  13.009 -1.2956  0.7577 -0.6077
12093TIP3    H257771   4.672   1.131  13.108 -1.4367 -1.3499  1.0333
12094TIP3   OH257772   5.305   3.441  16.871 -0.0977  0.0822 -0.2796
12094TIP3    H157773   5.254   3.362  16.886  0.7043 -0.3610  0.2192
12094TIP3    H257774   5.315   3.480  16.958  0.6384  0.0057 -0.3231
12095TIP3   OH257775   4.072   3.149  14.136  0.2081  0.0032  0.0045
12095TIP3    H157776   4.069   3.057  14.108  1.3896  0.1831 -0.8009
12095TIP3    H257777   4.151   3.155  14.190 -0.6270  0.2556  1.2303
12096TIP3   OH257778   3.369   6.346  11.865  0.7537 -0.6642 -0.1178
12096TIP3    H157779   3.445   6.395  11.897  0.0788  0.4160 -0.1149
12096TIP3    H257780   3.356   6.379  11.776  0.1486 -0.6724 -0.0358
12097TIP3   OH257781   1.883   4.577  15.792 -0.3165 -0.4125 -0.5093
12097TIP3    H157782   1.947   4.565  15.862  0.5963 -2.5920 -1.6048
12097TIP3    H257783   1.831   4.652  15.819  0.9707 -0.2483  1.7445
12098TIP3   OH257784   1.956   2.312   1.213 -0.6183 -0.5238  0.3708
12098TIP3    H157785   1.955   2.223   1.178 -1.8522 -0.4740  0.2042
12098TIP3    H257786   1.927   2.303   1.303 -2.1896 -0.1676 -0.0674
12099TIP3   OH257787   3.109   4.600   2.702 -0.0376  0.5348 -0.0066
12099TIP3    H157788   3.110   4.531   2.768  0.1254 -0.1411 -0.6966
12099TIP3    H257789   3.025   4.590   2.658  0.5804 -0.1865 -1.0736
12100TIP3   OH257790   0.583   6.085   1.182 -0.4798 -0.7491 -0.2714
12100TIP3    H157791   0.492   6.114   1.185 -0.7863 -1.7551  1.4136
12100TIP3    H257792   0.579   5.992   1.208  0.8847 -1.2029 -1.5401
12101TIP3   OH257793   2.687   6.644  12.157 -0.1610  0.2687 -0.0091
12101TIP3    H157794   2.663   6.724  12.109 -1.6414 -0.2086 -0.1262
12101TIP3    H257795   2.714   6.583  12.089  0.7729  0.5838  0.0632
12102TIP3   OH257796   2.964   5.241  16.061 -0.1593 -0.2572  0.3228
12102TIP3    H157797   2.973   5.150  16.088  1.4342  0.0960  1.1419
12102TIP3    H257798   2.879   5.246  16.018  0.3143 -2.4146 -0.9766
12103TIP3   OH257799   2.068   0.695   3.983  0.2656 -0.3637  0.1006
12103TIP3    H157800   2.061   0.608   4.021  0.2923 -0.0066  0.9462
12103TIP3    H257801   1.983   0.736   4.002  0.1066 -0.3346 -0.6401
12104TIP3   OH257802   2.952   0.737   3.744 -0.5009  0.2743  0.2005
12104TIP3    H157803   2.958   0.657   3.797  2.5460  0.8879  1.0094
12104TIP3    H257804   2.925   0.707   3.658 -0.1582 -1.5559  0.6805
12105TIP3   OH257805   6.531   0.000  14.627  0.6149  1.0824 -0.0326
12105TIP3    H157806   6.600   0.046  14.675  0.6057 -1.0858  2.2140
12105TIP3    H257807   6.462  -0.016  14.692  0.2750 -1.3599 -0.8802
12106TIP3   OH257808   0.120   2.988   5.147 -0.2920  0.1770 -0.7472
12106TIP3    H157809   0.031   2.986   5.112 -0.0724  0.0546 -1.3148
12106TIP3    H257810   0.173   2.947   5.079  0.0676 -0.6036 -0.0045
12107TIP3   OH257811   5.435   2.505  14.344  0.2360 -0.6698  0.3755
12107TIP3    H157812   5.435   2.436  14.278  0.5833  0.2525 -0.6108
12107TIP3    H257813   5.392   2.466  14.420 -1.2129 -1.3936 -0.7822
12108TIP3   OH257814   6.727   1.014   2.048  0.5926 -0.0870 -0.1857
12108TIP3    H157815   6.679   0.955   2.106  1.3039 -0.2155  0.2842
12108TIP3    H257816   6.662   1.076   2.017 -0.5406 -2.0181 -1.9318
12109TIP3   OH257817   4.627   3.298   0.561 -0.0503  0.3549 -0.4430
12109TIP3    H157818   4.633   3.239   0.486  0.9457  1.5449 -1.3426
12109TIP3    H257819   4.703   3.356   0.553  0.2458  0.3534  1.6557
12110TIP3   OH257820   6.730   3.678  12.308 -0.8174  0.0266  0.1120
12110TIP3    H157821   6.741   3.727  12.227  1.0846  0.1394  0.3915
12110TIP3    H257822   6.686   3.739  12.368  0.4095  0.9760  0.0661
12111TIP3   OH257823   5.612   2.745   4.720  0.2100  0.6489  0.0898
12111TIP3    H157824   5.518   2.730   4.706 -0.0000  1.9942 -0.0197
12111TIP3    H257825   5.631   2.696   4.800  0.0069 -1.7424 -1.2312
12112TIP3   OH257826   6.653   6.542   0.656 -0.2131  0.6817 -0.4725
12112TIP3    H157827   6.742   6.557   0.626  0.4754 -0.6189  0.7699
12112TIP3    H257828   6.608   6.504   0.581  0.2106  1.5347 -1.1714
12113TIP3   OH257829   4.413   4.556   4.076 -0.4429 -0.4256 -0.0228
12113TIP3    H157830   4.335   4.557   4.131 -0.1035 -0.7104  0.4653
12113TIP3    H257831   4.484   4.535   4.135  0.0847  0.3261 -0.3670
12114TIP3   OH257832   6.643   6.751  13.676  0.1256  0.1080  0.1166
12114TIP3    H157833   6.677   6.753  13.765 -0.8892 -1.2326  0.5638
12114TIP3    H257834   6.707   6.700  13.627  1.4407  2.0661 -0.3018
12115TIP3   OH257835   5.555   5.897   3.063 -0.6848 -0.3559  0.3694
12115TIP3    H157836   5.492   5.860   3.001 -0.0764 -1.1542  0.2108
12115TIP3    H257837   5.637   5.853   3.043  0.8045  2.9371 -1.6420
12116TIP3   OH257838   1.435   6.191  11.408 -0.6187  0.5170 -0.1916
12116TIP3    H157839   1.521   6.193  11.365 -1.9457  0.3644 -3.1033
12116TIP3    H257840   1.388   6.266  11.372 -1.6225  0.8144  1.6222
12117TIP3   OH257841   3.584   2.072  12.059  0.0065  0.4023  0.2347
12117TIP3    H157842   3.652   2.109  12.002  1.2975 -1.7476  0.2679
12117TIP3    H257843   3.566   2.140  12.123  0.4900  1.8667 -1.1289
12118TIP3   OH257844   6.682   4.777   1.835  0.7382 -0.3679 -0.1716
12118TIP3    H157845   6.629   4.737   1.905  0.0999  0.3892 -0.2043
12118TIP3    H257846   6.751   4.713   1.818  0.0035 -1.2653  0.0823
12119TIP3   OH257847   2.188   2.756   5.721  0.1601 -0.0188  0.0530
12119TIP3    H157848   2.258   2.806   5.678  0.7777 -0.7831  0.1512
12119TIP3    H257849   2.170   2.804   5.801 -0.3492  0.9072 -0.5959
12120TIP3   OH257850   6.039   6.304  14.600 -0.2116  0.2180 -0.1479
12120TIP3    H157851   6.039   6.400  14.591 -0.9393  0.1696 -0.7073
12120TIP3    H257852   5.956   6.284  14.643 -0.7686 -0.2825 -1.4308
12121TIP3   OH257853   6.151   0.868   1.449 -0.0999 -0.3238  0.3214
12121TIP3    H157854   6.126   0.808   1.380  0.8520 -1.0774  0.6043
12121TIP3    H257855   6.080   0.862   1.513  0.2690 -1.6319  0.6378
12122TIP3   OH257856   2.051   0.799  16.287  0.5096 -0.2266 -0.1139
12122TIP3    H157857   2.120   0.733  16.301  0.2139 -0.4818  0.1383
12122TIP3    H257858   2.014   0.777  16.201  1.1976  0.3261 -0.5659
12123TIP3   OH257859   0.958   0.467  12.999 -0.3102  0.8142 -0.3180
12123TIP3    H157860   0.942   0.376  12.975  1.0392  0.6324 -0.6177
12123TIP3    H257861   1.034   0.493  12.947  3.0122  0.3166  3.7554
12124TIP3   OH257862   1.018   6.554  10.695  0.0775  0.0011 -0.4753
12124TIP3    H157863   1.048   6.483  10.639  1.8689  1.4061 -1.4114
12124TIP3    H257864   1.098   6.595  10.728 -0.7349  2.8960 -1.7229
12125TIP3   OH257865   0.117   3.170   1.958  0.2900 -0.1744  0.5176
12125TIP3    H157866   0.185   3.104   1.970 -0.2131 -0.7250  0.3741
12125TIP3    H257867   0.158   3.252   1.988  0.4393 -0.7874  2.0819
12126TIP3   OH257868   2.479   4.546   5.731  0.1591 -0.0468 -0.2321
12126TIP3    H157869   2.430   4.629   5.733 -0.4212 -0.3290 -1.4460
12126TIP3    H257870   2.413   4.480   5.749  0.4460 -0.3133 -0.1600
12127TIP3   OH257871   0.143   5.048   1.629  0.2925 -0.2023 -0.0884
12127TIP3    H157872   0.131   5.067   1.536 -0.1645  0.2327  0.0556
12127TIP3    H257873   0.102   5.122   1.674 -0.1974 -0.7976  0.4668
12128TIP3   OH257874   6.088   3.823  13.346 -0.6061  0.0428  0.2799
12128TIP3    H157875   6.183   3.809  13.348 -0.4851  0.8351  0.3234
12128TIP3    H257876   6.060   3.784  13.263 -0.3546 -0.8570  0.6132
12129TIP3   OH257877   6.140   4.029   5.653  0.8000  0.1293  0.3163
12129TIP3    H157878   6.115   4.119   5.675 -0.3857 -0.1867  0.3673
12129TIP3    H257879   6.147   4.028   5.558 -0.2063  0.0483  0.2326
12130TIP3   OH257880   5.162   1.588   2.340  0.6328  0.5366 -0.0619
12130TIP3    H157881   5.170   1.643   2.418  2.0358  1.1808 -0.6267
12130TIP3    H257882   5.249   1.551   2.328 -0.2706 -1.8880  0.2989
12131TIP3   OH257883   4.242   5.250   2.423 -0.0269 -0.1735 -0.3115
12131TIP3    H157884   4.245   5.211   2.510  2.4570  1.9277  0.6551
12131TIP3    H257885   4.273   5.181   2.364 -1.3811 -1.4928  0.4508
12132TIP3   OH257886   1.000   3.394   2.215 -0.1670 -0.3015  0.0688
12132TIP3    H157887   1.090   3.381   2.184 -0.5330 -1.4652 -0.5743
12132TIP3    H257888   1.007   3.394   2.311  0.6565  0.8253  0.0288
12133TIP3   OH257889   0.653   1.527   0.105  0.2074  0.4384  0.0246
12133TIP3    H157890   0.712   1.532   0.030 -0.9153 -1.8298 -1.1164
12133TIP3    H257891   0.677   1.445   0.149 -0.9100  0.3772  0.5588
12134TIP3   OH257892   6.550   1.039  15.283 -0.1336 -0.4555 -0.2434
12134TIP3    H157893   6.479   1.047  15.347  1.5874  0.1680  1.7134
12134TIP3    H257894   6.548   0.947  15.258 -1.1668 -0.6184  0.3401
12135TIP3   OH257895   4.120   3.192  11.566 -0.6751 -0.1089 -0.0875
12135TIP3    H157896   4.067   3.230  11.495  0.6985 -0.3640 -1.2954
12135TIP3    H257897   4.206   3.233  11.556  0.9359 -3.4310 -1.4973
12136TIP3   OH257898   3.503   4.898   2.604  1.0516 -0.0788 -0.1229
12136TIP3    H157899   3.595   4.880   2.626  1.1801  0.1839 -0.4246
12136TIP3    H257900   3.487   4.986   2.638  0.7010 -0.3921  0.5415
12137TIP3   OH257901   0.074   0.427   0.679 -0.1959 -0.8724  0.3163
12137TIP3    H157902   0.112   0.342   0.659 -0.4211 -1.3591  1.8471
12137TIP3    H257903   0.015   0.445   0.605  2.3945 -0.3943 -1.7696
12138TIP3   OH257904   0.759   0.655  12.488 -0.3817  0.4642 -0.0592
12138TIP3    H157905   0.817   0.619  12.422 -0.3509  1.7141 -0.7452
12138TIP3    H257906   0.763   0.750  12.475  1.7330  1.0296  3.4741
12139TIP3   OH257907   2.612   4.536  10.861  0.4828  0.4121  0.1327
12139TIP3    H157908   2.588   4.607  10.801 -1.9133 -0.7522 -0.3818
12139TIP3    H257909   2.682   4.489  10.816  0.8683  1.3916 -0.3148
12140TIP3   OH257910   1.471   2.098  10.642 -0.7136 -0.0291 -0.2220
12140TIP3    H157911   1.404   2.074  10.707  0.0622  1.6331  1.2595
12140TIP3    H257912   1.528   2.021  10.638 -2.5352 -1.4420 -1.4323
12141TIP3   OH257913   2.675   5.553   1.904 -0.3316 -0.1713 -0.1122
12141TIP3    H157914   2.662   5.492   1.831  1.6085 -1.4979  0.5796
12141TIP3    H257915   2.605   5.532   1.966 -0.2635 -1.0601 -0.3184
12142TIP3   OH257916   4.970   0.756  15.062  0.0138  0.1905  0.2154
12142TIP3    H157917   4.887   0.768  15.108 -1.2096 -2.4623 -1.1048
12142TIP3    H257918   4.984   0.839  15.016 -0.9082  1.3469  1.8971
12143TIP3   OH257919   4.080   1.821   4.211 -0.5095 -0.1247  0.4741
12143TIP3    H157920   4.154   1.798   4.267 -0.7952 -1.1059  0.4582
12143TIP3    H257921   4.114   1.891   4.154  0.6389 -1.0534 -0.0307
12144TIP3   OH257922   2.561   1.874  16.557 -0.8191  0.8968 -0.8157
12144TIP3    H157923   2.595   1.960  16.581  0.5197  0.2219 -0.1862
12144TIP3    H257924   2.466   1.885  16.555 -0.6394  2.4901 -1.1978
12145TIP3   OH257925   1.314   2.889  16.525  0.2675  0.1810  0.2917
12145TIP3    H157926   1.310   2.813  16.584 -0.7855  0.8915  1.1694
12145TIP3    H257927   1.236   2.881  16.470  0.3509  0.4281  0.1351
12146TIP3   OH257928   0.556   6.826   5.794 -0.1711  0.3655  0.2593
12146TIP3    H157929   0.557   6.825   5.890 -1.0544  1.7445  0.3019
12146TIP3    H257930   0.464   6.810   5.771 -0.3056  1.7958 -0.2988
12147TIP3   OH257931   4.936   3.157  14.319 -0.3078 -0.7212  0.3486
12147TIP3    H157932   4.992   3.080  14.326  0.1424 -0.3870  0.5094
12147TIP3    H257933   4.956   3.192  14.232  1.0687  0.3956  1.0742
12148TIP3   OH257934   6.549   6.674  12.174 -0.2571 -0.1320 -0.6152
12148TIP3    H157935   6.631   6.661  12.222 -0.5499 -0.4733 -0.1982
12148TIP3    H257936   6.534   6.592  12.128 -0.7845 -0.3665 -0.0355
12149TIP3   OH257937   2.153   6.640   0.747  0.6412 -0.4701  0.2501
12149TIP3    H157938   2.193   6.640   0.834 -2.5001  0.9957  1.8303
12149TIP3    H257939   2.070   6.595   0.759  0.1873 -0.3642 -2.0727
12150TIP3   OH257940   2.335   2.472   2.036 -0.8044 -0.3292  0.3055
12150TIP3    H157941   2.384   2.546   2.000  1.4661 -0.8418  2.1035
12150TIP3    H257942   2.386   2.445   2.113 -3.5705 -1.3987  1.8974
12151TIP3   OH257943   2.380   4.142  12.762  0.0081 -0.3379  0.3182
12151TIP3    H157944   2.401   4.054  12.794  1.7859  1.3085  4.4007
12151TIP3    H257945   2.460   4.192  12.777 -0.8464  1.9928 -2.1911
12152TIP3   OH257946   4.289   1.617   4.794  0.3022  0.0669 -0.2077
12152TIP3    H157947   4.355   1.683   4.772 -0.2272  0.9668  0.8292
12152TIP3    H257948   4.252   1.646   4.877 -1.7975 -0.1082 -1.0180
12153TIP3   OH257949   4.608   0.129  13.748  0.2368  0.3893 -0.2298
12153TIP3    H157950   4.702   0.123  13.766  0.5495 -0.5281 -1.8817
12153TIP3    H257951   4.599   0.205  13.691 -0.3671  1.7493  1.5908
12154TIP3   OH257952   4.741   3.572   3.258  0.1920  0.2572  0.6397
12154TIP3    H157953   4.740   3.499   3.196 -0.4145  0.5417  0.3048
12154TIP3    H257954   4.666   3.556   3.316 -0.2265  0.8420  0.2796
12155TIP3   OH257955   4.398   6.547  16.445 -0.1121 -0.6790 -0.4621
12155TIP3    H157956   4.396   6.540  16.350  0.4324  0.3193 -0.5644
12155TIP3    H257957   4.432   6.635  16.462 -2.5838  0.1502  0.6372
12156TIP3   OH257958   1.777   3.143   4.562  0.1946  0.0150  0.1008
12156TIP3    H157959   1.777   3.155   4.657 -0.1296  0.1965  0.0770
12156TIP3    H257960   1.688   3.163   4.535  0.4682  0.6952 -0.3347
12157TIP3   OH257961   3.625   3.749   0.298 -0.4758 -0.1028 -0.1851
12157TIP3    H157962   3.624   3.785   0.386 -0.9498  1.0043 -0.6254
12157TIP3    H257963   3.690   3.801   0.251 -1.3708  0.4110 -0.9073
12158TIP3   OH257964   6.568   3.040   0.580  0.9237  0.0215  0.3508
12158TIP3    H157965   6.627   3.085   0.519  0.5924 -2.3193 -1.8815
12158TIP3    H257966   6.627   2.999   0.644  1.5104  0.2223 -0.0548
12159TIP3   OH257967   4.675   2.345   1.591  0.2213  0.5223 -0.0635
12159TIP3    H157968   4.640   2.349   1.680  0.3869  0.9887 -0.0191
12159TIP3    H257969   4.767   2.320   1.603 -0.0552 -0.6165 -0.1754
12160TIP3   OH257970   2.744   6.539  14.483 -0.1474 -0.6269 -0.2511
12160TIP3    H157971   2.673   6.540  14.418 -0.5085  0.7562  0.1400
12160TIP3    H257972   2.700   6.521  14.566  0.0719 -0.6012 -0.1295
12161TIP3   OH257973   4.043   3.669   5.047 -1.5694  0.1088  0.4388
12161TIP3    H157974   4.035   3.628   5.133 -1.2678  0.8579  0.8297
12161TIP3    H257975   4.111   3.618   5.002 -0.7117  0.5868  1.1655
12162TIP3   OH257976   3.619   3.173  14.478  0.3644 -0.4073 -0.1275
12162TIP3    H157977   3.588   3.174  14.387  0.6015 -1.4294 -0.2325
12162TIP3    H257978   3.553   3.223  14.526  1.1834  1.7861 -1.1240
12163TIP3   OH257979   3.999   4.482   0.657 -0.0907 -0.0977  0.8973
12163TIP3    H157980   4.093   4.486   0.639  0.5027  0.9926  3.6837
12163TIP3    H257981   3.980   4.389   0.666  0.6693 -0.3406  0.0892
12164TIP3   OH257982   4.467   1.670  14.044 -0.4183 -0.0320  0.3575
12164TIP3    H157983   4.511   1.754  14.032 -0.9420  0.1142 -0.6397
12164TIP3    H257984   4.376   1.686  14.020 -0.9253 -0.4784  1.8232
12165TIP3   OH257985   5.156   2.959  12.789  0.1643 -0.3357 -0.2108
12165TIP3    H157986   5.236   2.983  12.741  0.8874 -0.5878  0.8315
12165TIP3    H257987   5.098   2.924  12.721  0.6136  0.6239 -1.1155
12166TIP3   OH257988   0.538   2.906  11.889 -0.2013 -0.4683 -0.0636
12166TIP3    H157989   0.459   2.869  11.928 -0.5576 -0.4862 -0.7888
12166TIP3    H257990   0.506   2.974  11.829  0.3810  0.1242  0.2919
12167TIP3   OH257991   2.875   6.250  11.860 -0.3226 -0.0654  0.4123
12167TIP3    H157992   2.833   6.178  11.813  0.2669  0.1801 -0.5186
12167TIP3    H257993   2.854   6.328  11.807 -0.8814  0.4506  1.3549
12168TIP3   OH257994   1.907   2.693   3.840 -0.0542  0.6061  0.3328
12168TIP3    H157995   1.939   2.603   3.833 -0.0891  0.3876  2.4188
12168TIP3    H257996   1.976   2.739   3.888 -0.5715  1.4204  0.3209
12169TIP3   OH257997   1.079   3.135  11.907 -0.1219  0.4172  0.4550
12169TIP3    H157998   1.100   3.168  11.819  0.6761 -0.5045  0.2755
12169TIP3    H257999   0.984   3.128  11.908 -0.0634 -1.9553 -1.2962
12170TIP3   OH258000   0.405   1.428  14.737  0.2090  0.3436  0.2227
12170TIP3    H158001   0.482   1.483  14.747 -0.4466  1.6502 -1.4795
12170TIP3    H258002   0.438   1.348  14.695  0.8654  0.1762  1.0234
12171TIP3   OH258003   3.508   6.161   2.696  0.5012 -0.1815  0.9731
12171TIP3    H158004   3.576   6.112   2.743 -0.6818 -0.5066  2.4060
12171TIP3    H258005   3.457   6.203   2.764 -0.5671  0.3166 -0.0967
12172TIP3   OH258006   5.335   1.116  16.390  0.0040  0.1755  0.2299
12172TIP3    H158007   5.376   1.122  16.476 -1.0735 -0.4641  0.7969
12172TIP3    H258008   5.244   1.095  16.407 -0.6134  1.5968 -1.0123
12173TIP3   OH258009   3.557   6.581   4.051  0.2023  0.5358  0.2010
12173TIP3    H158010   3.488   6.647   4.061  0.5454  0.7488  1.3015
12173TIP3    H258011   3.518   6.514   3.995 -0.3364  1.4147 -0.4993
12174TIP3   OH258012   3.120   6.490   6.749 -0.2005 -0.1974 -0.3630
12174TIP3    H158013   3.114   6.445   6.664  2.4937 -0.1899 -0.6400
12174TIP3    H258014   3.129   6.419   6.813 -1.0756 -0.1679 -0.1970
12175TIP3   OH258015   3.835   2.893  11.536  0.3248  0.6071 -0.3561
12175TIP3    H158016   3.904   2.880  11.471 -0.0263 -1.0964 -0.4506
12175TIP3    H258017   3.797   2.978  11.514  1.8435  1.2102 -0.8054
12176TIP3   OH258018   2.030   2.883   5.314  0.2439  0.3042  0.3276
12176TIP3    H158019   1.967   2.877   5.386 -1.3980 -0.2590 -1.0825
12176TIP3    H258020   2.099   2.821   5.336 -0.4342 -0.1528  1.2137
12177TIP3   OH258021   5.643   6.023   5.346  0.3854  0.0387  0.3037
12177TIP3    H158022   5.727   6.052   5.311  0.4509 -1.1263 -0.6082
12177TIP3    H258023   5.665   5.977   5.427  0.1332  3.6883  2.6391
12178TIP3   OH258024   4.488   3.488   2.236 -0.0238  0.2922  0.5874
12178TIP3    H158025   4.412   3.448   2.195 -2.1353  2.4404  2.1027
12178TIP3    H258026   4.513   3.427   2.305 -0.5377 -0.3123  0.2469
12179TIP3   OH258027   3.057   4.064  15.089  0.4150  0.2779 -0.2340
12179TIP3    H158028   3.112   4.138  15.113  0.1924  1.1496 -2.2240
12179TIP3    H258029   2.978   4.104  15.051 -1.8248 -0.9092  2.8068
12180TIP3   OH258030   4.010   1.249  11.551  0.4132  0.0806 -0.5373
12180TIP3    H158031   3.948   1.285  11.615 -0.0471 -2.0259  0.2609
12180TIP3    H258032   4.082   1.312  11.551 -0.1442  0.7844  1.1366
12181TIP3   OH258033   6.168   4.503  10.857  0.7664  0.1031  0.3230
12181TIP3    H158034   6.180   4.464  10.944 -0.5385 -2.5638 -0.5909
12181TIP3    H258035   6.092   4.559  10.866 -0.4752 -1.5488  0.5555
12182TIP3   OH258036   2.410   6.681   2.112  0.0608  0.0561  0.0209
12182TIP3    H158037   2.385   6.617   2.180 -0.9783  1.3255  0.8776
12182TIP3    H258038   2.387   6.638   2.030 -1.7960 -0.2162  0.6403
12183TIP3   OH258039   3.333   3.768   5.531  0.1005 -0.1819  0.3261
12183TIP3    H158040   3.336   3.860   5.557  0.2464  0.6504 -2.3599
12183TIP3    H258041   3.423   3.748   5.506 -0.4920  0.0084 -2.2225
12184TIP3   OH258042   1.289   1.350  13.169 -0.5283  0.1203  0.0229
12184TIP3    H158043   1.282   1.312  13.256  1.0895 -1.7061 -0.5642
12184TIP3    H258044   1.361   1.413  13.177 -0.7609  0.3708  0.1411
12185TIP3   OH258045   2.642   6.348  13.283 -0.5177 -0.2237  0.4000
12185TIP3    H158046   2.593   6.310  13.355  2.0356 -1.3633  1.6856
12185TIP3    H258047   2.734   6.336  13.308  0.4612  2.4636 -1.4624
12186TIP3   OH258048   2.523   1.455   4.263 -0.4530  0.4872 -0.2678
12186TIP3    H158049   2.484   1.496   4.340  0.4955  0.9927 -0.0560
12186TIP3    H258050   2.448   1.437   4.206 -1.1578  0.1691  0.7226
12187TIP3   OH258051   6.025   5.232   0.516 -0.3089  0.2099 -0.0675
12187TIP3    H158052   5.970   5.156   0.537  0.6882 -0.3021  0.7952
12187TIP3    H258053   6.111   5.195   0.497 -0.8359  0.7066 -4.3926
12188TIP3   OH258054   2.701   0.548  13.915  0.6581  0.1152 -0.3482
12188TIP3    H158055   2.760   0.523  13.986  0.1677  0.3411  0.1485
12188TIP3    H258056   2.622   0.580  13.960 -0.3322 -1.3033 -0.9825
12189TIP3   OH258057   1.997   5.390  16.473  0.2694 -0.8098 -0.2583
12189TIP3    H158058   2.037   5.477  16.471 -0.9075 -0.2590 -2.0637
12189TIP3    H258059   2.071   5.329  16.473  1.2239  0.1599 -3.4616
12190TIP3   OH258060   6.582   2.865  17.145  0.2042  0.1331 -0.1654
12190TIP3    H158061   6.636   2.944  17.148  1.7078 -0.6995 -2.5488
12190TIP3    H258062   6.599   2.827  17.059 -0.6795 -2.6771  0.7812
12191TIP3   OH258063   2.636   0.742  16.796  0.3458 -0.2081 -0.1480
12191TIP3    H158064   2.566   0.679  16.777  1.1830 -0.7045 -1.8160
12191TIP3    H258065   2.701   0.727  16.726  0.2089  3.0416 -1.1173
12192TIP3   OH258066   0.147   3.150  14.128 -0.7229  0.1637 -0.2610
12192TIP3    H158067   0.182   3.208  14.061  1.0744  1.0227  1.3377
12192TIP3    H258068   0.119   3.208  14.198 -1.2743 -0.7778  0.3209
12193TIP3   OH258069   1.626   1.476   4.176  0.2666  0.1344 -0.4772
12193TIP3    H158070   1.693   1.544   4.166 -1.0478  1.7765  1.0528
12193TIP3    H258071   1.587   1.495   4.262 -2.8954 -0.0044 -1.7601
12194TIP3   OH258072   6.246   3.303   1.109 -0.4031 -0.5192 -0.0104
12194TIP3    H158073   6.255   3.273   1.019  1.0845  1.2505 -0.5069
12194TIP3    H258074   6.330   3.283   1.150  0.2263  1.7757 -0.0515
12195TIP3   OH258075   6.736   0.877   4.755 -0.2014  0.1826 -0.0258
12195TIP3    H158076   6.828   0.902   4.744 -0.5571  1.2423 -0.7747
12195TIP3    H258077   6.697   0.890   4.668 -0.8413 -1.2307  0.0291
12196TIP3   OH258078   3.547   2.402   3.508 -0.1676  0.1019 -0.3514
12196TIP3    H158079   3.628   2.360   3.536 -0.8919 -0.6694  0.6523
12196TIP3    H258080   3.555   2.407   3.412  1.2798  0.5516 -0.2466
12197TIP3   OH258081   0.478   0.595  11.476  0.1553  0.4369 -0.0360
12197TIP3    H158082   0.527   0.677  11.481 -0.4967  0.8094  0.3709
12197TIP3    H258083   0.386   0.621  11.479 -0.0654 -0.2852 -0.2493
12198TIP3   OH258084   6.491   5.761   1.539  0.5135 -0.0668  0.2117
12198TIP3    H158085   6.484   5.769   1.634 -0.7538 -0.2098  0.1383
12198TIP3    H258086   6.560   5.696   1.525  0.5521 -0.2074  1.0325
12199TIP3   OH258087   4.836   4.179  15.727 -0.2299 -0.2305  0.6702
12199TIP3    H158088   4.757   4.220  15.694  0.7747  0.6171 -0.7663
12199TIP3    H258089   4.809   4.089  15.747 -1.1612 -0.4614 -1.4196
12200TIP3   OH258090   5.456   3.077  13.123 -0.0889 -0.2092  0.5410
12200TIP3    H158091   5.549   3.083  13.147 -0.3272 -2.0088  2.1747
12200TIP3    H258092   5.420   3.013  13.184 -2.2433 -0.1794 -0.6096
12201TIP3   OH258093   1.217   5.831  15.106 -0.3024 -0.2732  0.1416
12201TIP3    H158094   1.138   5.875  15.137 -1.2937 -1.2978 -0.8344
12201TIP3    H258095   1.216   5.843  15.011  0.8056 -0.1654  0.1287
12202TIP3   OH258096   1.026   3.186   0.538  0.3110  0.1545 -0.3858
12202TIP3    H158097   1.017   3.185   0.443  0.6685 -0.8785 -0.4165
12202TIP3    H258098   1.061   3.272   0.558  3.3417 -0.7181 -1.4959
12203TIP3   OH258099   3.714   6.548  13.619  0.0173 -0.4086 -0.0569
12203TIP3    H158100   3.697   6.489  13.693  1.5929 -0.6179  0.1614
12203TIP3    H258101   3.694   6.495  13.542 -0.6819 -0.5076  0.1841
12204TIP3   OH258102   5.056   1.148   2.446 -0.7296  0.0408  0.6411
12204TIP3    H158103   4.982   1.205   2.428 -0.4301 -0.2678 -1.9154
12204TIP3    H258104   5.132   1.206   2.449 -0.4647 -0.1185 -1.6683
12205TIP3   OH258105   3.691   1.146   4.988  1.3699  0.3990  0.8031
12205TIP3    H158106   3.732   1.081   4.930 -1.8787 -0.9380 -0.2492
12205TIP3    H258107   3.662   1.095   5.063 -0.4373  0.7510  0.3794
12206TIP3   OH258108   3.662   5.483  15.770  0.4316  0.1438 -0.3659
12206TIP3    H158109   3.603   5.468  15.696 -1.3283 -0.8075  1.1290
12206TIP3    H258110   3.631   5.422  15.838  0.3472  2.6699  2.0403
12207TIP3   OH258111   4.046   3.457  12.515 -0.1699  0.1225 -0.1444
12207TIP3    H158112   4.102   3.419  12.582  0.6532  1.1466 -0.2361
12207TIP3    H258113   3.963   3.474  12.560  0.4536  1.0224  0.6740
12208TIP3   OH258114   3.651   2.889  12.897  0.1079  0.0194  0.4379
12208TIP3    H158115   3.596   2.968  12.904  1.2016  0.7639  0.9413
12208TIP3    H258116   3.710   2.909  12.824 -0.0898 -0.6603  0.0844
12209TIP3   OH258117   2.221   4.341   6.319  0.5858 -0.0821 -0.2289
12209TIP3    H158118   2.305   4.382   6.339  1.3289 -1.0011 -1.3472
12209TIP3    H258119   2.233   4.248   6.341  0.6882 -0.6855 -2.5666
12210TIP3   OH258120   2.608   4.532   4.040  0.0583  0.4418 -0.2357
12210TIP3    H158121   2.645   4.603   3.987 -0.7389  0.3941 -0.8795
12210TIP3    H258122   2.516   4.557   4.051  0.1788  0.3961  1.0436
12211TIP3   OH258123   2.824   0.011  12.589 -0.1164  0.4435 -0.5327
12211TIP3    H158124   2.730   0.023  12.579 -0.0479 -0.1575 -2.4457
12211TIP3    H258125   2.838  -0.081  12.567  1.0682  0.8882 -1.7490
12212TIP3   OH258126   2.320   5.705   3.273  0.6168 -0.2396 -0.3076
12212TIP3    H158127   2.301   5.709   3.367 -0.5872  0.4255 -0.5608
12212TIP3    H258128   2.290   5.618   3.247 -1.7137  0.5820 -0.5853
12213TIP3   OH258129   6.287   3.624  16.827 -0.8334  0.2795 -0.5916
12213TIP3    H158130   6.244   3.682  16.889  1.7992  0.1840  1.5035
12213TIP3    H258131   6.229   3.548  16.821 -2.4833  1.4912 -0.4382
12214TIP3   OH258132   0.013   6.096  15.491 -0.1014 -0.0200  0.0539
12214TIP3    H158133  -0.006   6.004  15.506 -2.9775  0.2008 -1.6570
12214TIP3    H258134   0.024   6.104  15.397 -0.9066  1.5207  0.0515
12215TIP3   OH258135   3.096   6.465   3.007 -0.2595  0.3402 -0.6069
12215TIP3    H158136   3.062   6.379   3.030  0.0861  0.2901 -0.2725
12215TIP3    H258137   3.174   6.476   3.061 -0.0448  0.6765 -0.9745
12216TIP3   OH258138   2.503   3.319   2.998 -0.6693  0.3491  0.6509
12216TIP3    H158139   2.446   3.252   2.962 -1.3455 -0.1606  2.5699
12216TIP3    H258140   2.463   3.402   2.972  0.2229  0.1003 -1.8127
12217TIP3   OH258141   1.472   1.388   6.322 -0.0541 -0.3918  0.4890
12217TIP3    H158142   1.384   1.372   6.356  0.6094 -0.5834  2.2009
12217TIP3    H258143   1.529   1.384   6.398  1.2337  1.6103 -0.2665
12218TIP3   OH258144   4.236   3.389  11.209  0.2853  0.3029  0.7386
12218TIP3    H158145   4.260   3.426  11.124 -1.0502  0.0164  0.2225
12218TIP3    H258146   4.192   3.306  11.188  0.0343  0.1739  1.7140
12219TIP3   OH258147   4.289   4.280  12.234 -0.1760  0.0964  0.8520
12219TIP3    H158148   4.328   4.357  12.274 -0.2369 -0.3053  1.7100
12219TIP3    H258149   4.265   4.308  12.145  0.7260  0.7578  0.8093
12220TIP3   OH258150   5.920   5.404  14.670  0.0215 -0.3434 -0.3827
12220TIP3    H158151   5.864   5.330  14.646 -0.1659  0.0684 -1.2379
12220TIP3    H258152   5.925   5.457  14.591  0.8875  0.0999 -0.0433
12221TIP3   OH258153   5.871   1.134  16.273  0.2881 -0.1790  0.2619
12221TIP3    H158154   5.788   1.142  16.319 -0.5442 -0.3253 -1.1620
12221TIP3    H258155   5.866   1.049  16.229  1.2358 -0.2313  0.2362
12222TIP3   OH258156   2.040   0.301  11.582 -0.1135  0.0806 -0.3425
12222TIP3    H158157   2.007   0.232  11.524  2.1897 -1.3515 -0.1300
12222TIP3    H258158   2.112   0.341  11.533  1.1423 -0.3955  1.0176
12223TIP3   OH258159   0.026   4.436   4.992 -0.0614 -0.1630 -0.4183
12223TIP3    H158160   0.102   4.383   4.968  0.3695  0.7626 -1.1790
12223TIP3    H258161   0.063   4.519   5.022 -0.7288 -0.1765  0.4924
12224TIP3   OH258162   0.542   0.197  11.519  0.2510 -0.1137 -0.3916
12224TIP3    H158163   0.588   0.165  11.443 -0.3635 -1.2797 -0.2961
12224TIP3    H258164   0.609   0.240  11.573  1.0099 -0.8667 -0.7332
12225TIP3   OH258165   0.075   6.047  11.624  0.2844 -0.3356  0.5374
12225TIP3    H158166   0.160   6.016  11.656  0.4648 -0.4734 -0.0735
12225TIP3    H258167   0.058   5.994  11.546 -0.5513 -0.5854  0.8863
12226TIP3   OH258168   3.467   3.662  12.678 -0.0791  0.7730  0.1192
12226TIP3    H158169   3.422   3.714  12.745 -1.2661 -0.8355  0.6420
12226TIP3    H258170   3.396   3.626  12.625  0.5551 -1.5432  0.7434
12227TIP3   OH258171   4.835   4.690  15.448 -0.5194 -0.4604 -0.2590
12227TIP3    H158172   4.837   4.622  15.515 -1.4298 -0.7199 -0.4841
12227TIP3    H258173   4.742   4.706  15.432 -0.3146  0.4725 -0.5786
12228TIP3   OH258174   0.664   6.820  14.575 -0.2755  0.2120  0.8246
12228TIP3    H158175   0.667   6.911  14.547  1.0072 -0.2588 -0.7176
12228TIP3    H258176   0.706   6.819  14.661 -3.4286  1.5505  2.5439
12229TIP3   OH258177   2.681   1.907   1.438 -0.1423 -0.0682 -0.1901
12229TIP3    H158178   2.711   1.997   1.427  0.6856 -0.3874 -0.6410
12229TIP3    H258179   2.696   1.888   1.531  0.3175  0.0407 -0.2386
12230TIP3   OH258180   3.437   6.348   3.445 -0.5713  0.7839 -0.5587
12230TIP3    H158181   3.488   6.267   3.445  0.3187  1.2842 -3.0675
12230TIP3    H258182   3.461   6.391   3.527 -0.9416 -1.3621  0.7509
12231TIP3   OH258183   5.587   1.101   5.137 -0.4361  0.0134 -0.0206
12231TIP3    H158184   5.523   1.055   5.083  1.8651 -2.8874 -0.6154
12231TIP3    H258185   5.611   1.178   5.086 -1.9369  0.0356 -0.7328
12232TIP3   OH258186   6.448   0.205  11.164 -0.1748  0.2931 -0.1899
12232TIP3    H158187   6.456   0.134  11.101  1.0793  0.2645 -0.0303
12232TIP3    H258188   6.439   0.284  11.111 -2.8624 -0.0530 -0.3759
12233TIP3   OH258189   1.741   1.994  15.185 -0.3865 -0.5764  0.9688
12233TIP3    H158190   1.818   1.998  15.129 -1.0903  1.6668  0.0528
12233TIP3    H258191   1.687   1.925  15.146 -0.2290 -0.0161 -0.2850
12234TIP3   OH258192   6.794   6.638  12.328  0.2193  0.0820 -0.0617
12234TIP3    H158193   6.857   6.573  12.298  0.3561 -0.3673  1.1638
12234TIP3    H258194   6.806   6.642  12.423 -1.7851 -0.2496  0.2531
12235TIP3   OH258195   5.384   0.826  11.545 -0.6130  0.2407  0.3577
12235TIP3    H158196   5.405   0.794  11.457 -2.1220  0.2643 -0.0420
12235TIP3    H258197   5.377   0.921  11.534 -0.0319  0.3302  0.6917
12236TIP3   OH258198   2.122   2.520   0.516 -0.2072  0.1605  0.3180
12236TIP3    H158199   2.032   2.532   0.484 -1.4903 -0.7379  3.1931
12236TIP3    H258200   2.163   2.464   0.451 -1.3108  1.5605 -1.6926
12237TIP3   OH258201   0.761   1.132  15.034  0.3301  0.0080 -0.6368
12237TIP3    H158202   0.758   1.210  15.089 -0.6470 -1.1699  1.0621
12237TIP3    H258203   0.693   1.075  15.069  2.1251 -2.3296 -0.7465
12238TIP3   OH258204   1.966   6.330  13.111  0.1309  0.2031 -0.0925
12238TIP3    H158205   1.890   6.367  13.066  0.4017  0.7132 -0.1403
12238TIP3    H258206   2.025   6.404  13.123  0.3236 -0.0497  0.5634
12239TIP3   OH258207   2.545   4.297   4.694  0.0882 -0.6252 -0.2391
12239TIP3    H158208   2.598   4.377   4.689  1.5916 -1.5760  0.1154
12239TIP3    H258209   2.472   4.314   4.633 -0.2548  1.4391  0.6362
12240TIP3   OH258210   4.129   0.494  12.005  0.1459  0.2000 -0.1587
12240TIP3    H158211   4.172   0.512  12.088 -0.2967 -0.1335  0.1427
12240TIP3    H258212   4.140   0.400  11.992 -0.0427  0.2018 -0.3321
12241TIP3   OH258213   4.799   4.713  16.644  0.0071 -0.0604  0.5593
12241TIP3    H158214   4.707   4.739  16.643  0.0109 -0.0356  0.8096
12241TIP3    H258215   4.798   4.620  16.622 -0.3292 -0.7897  3.3808
12242TIP3   OH258216   0.700   2.707   5.298  0.0790  0.1396  1.1071
12242TIP3    H158217   0.778   2.748   5.336 -1.4508  2.9647  1.5102
12242TIP3    H258218   0.631   2.722   5.362 -1.1181 -1.0425  0.1550
12243TIP3   OH258219   1.005   3.212   4.634  0.2800 -0.3111 -0.0962
12243TIP3    H158220   1.094   3.210   4.597 -0.3190  1.2136 -1.7524
12243TIP3    H258221   1.008   3.283   4.698 -0.3464  1.5766 -2.0343
12244TIP3   OH258222   2.386   0.010   5.700  0.1761  0.1142 -0.2081
12244TIP3    H158223   2.392  -0.056   5.770  0.6195  0.2835 -0.0841
12244TIP3    H258224   2.457   0.071   5.719  1.1583 -0.5557 -1.5435
12245TIP3   OH258225   2.004   0.564   5.716 -0.2241 -0.1251  0.0204
12245TIP3    H158226   2.092   0.591   5.691 -0.2025 -0.8929 -0.8017
12245TIP3    H258227   1.967   0.640   5.761  1.6183 -0.5376  2.3738
12246TIP3   OH258228   2.576   0.791  11.686 -0.2072 -0.0113  0.5733
12246TIP3    H158229   2.611   0.761  11.602  0.3971  0.9578  0.4745
12246TIP3    H258230   2.489   0.750  11.691 -0.4141  0.2230 -0.7064
12247TIP3   OH258231   3.020   4.374  15.941 -0.6286  0.6277 -0.0619
12247TIP3    H158232   2.950   4.311  15.926 -0.0119  0.2599 -1.5173
12247TIP3    H258233   3.029   4.422  15.859  0.4037  1.0945  0.2945
12248TIP3   OH258234   4.955   5.457  10.924  0.4469 -0.3426  0.4116
12248TIP3    H158235   5.011   5.466  10.847  1.0829  2.8934  1.1075
12248TIP3    H258236   4.894   5.530  10.918 -0.1284 -0.5880  2.4778
12249TIP3   OH258237   0.845   0.278  10.956  0.5528  0.5712 -0.0069
12249TIP3    H158238   0.927   0.323  10.937  1.4526 -0.2803  1.6842
12249TIP3    H258239   0.848   0.260  11.050 -0.7124 -1.1118 -0.2363
12250TIP3   OH258240   4.597   0.846   4.497  0.0794 -0.2505  0.3951
12250TIP3    H158241   4.573   0.926   4.450  2.6367 -0.9354 -2.3794
12250TIP3    H258242   4.513   0.804   4.516 -1.3519  2.9148  1.8520
12251TIP3   OH258243   5.336   3.470  14.842 -0.0634  0.2676 -0.3154
12251TIP3    H158244   5.318   3.560  14.870 -1.1432 -0.6774  2.2813
12251TIP3    H258245   5.286   3.461  14.760 -0.5306  1.7930 -0.2382
12252TIP3   OH258246   5.214   6.527   4.509  0.4450  0.5713  0.6568
12252TIP3    H158247   5.287   6.496   4.454  0.9447  0.5153  1.3361
12252TIP3    H258248   5.211   6.465   4.582 -1.4969 -0.5375 -0.2764
12253TIP3   OH258249   0.085   6.555   2.701  0.1490 -0.3310  0.4976
12253TIP3    H158250   0.055   6.471   2.735  1.6526 -1.1622 -0.1052
12253TIP3    H258251   0.080   6.614   2.776  0.3482 -1.3059  1.3058
12254TIP3   OH258252   5.719   6.772   2.712 -0.1439 -0.3802 -0.3378
12254TIP3    H158253   5.677   6.697   2.752  0.8754 -0.5739  0.3983
12254TIP3    H258254   5.656   6.843   2.721 -0.9211 -1.0192 -0.6207
12255TIP3   OH258255   4.327   5.843  13.466 -0.0114 -0.0480 -0.2978
12255TIP3    H158256   4.333   5.804  13.379 -1.2617  0.4619 -0.6416
12255TIP3    H258257   4.269   5.918  13.454 -1.2327 -0.6862  1.2024
12256TIP3   OH258258   3.816   3.905   0.837  0.0127 -0.1853  0.3033
12256TIP3    H158259   3.754   3.976   0.817 -0.5016 -0.9059 -0.7650
12256TIP3    H258260   3.900   3.937   0.804 -0.2507 -0.1177 -0.3335
12257TIP3   OH258261   5.688   6.016  15.918  0.4251 -0.1209 -0.0483
12257TIP3    H158262   5.706   6.097  15.964 -1.2837  1.2262 -1.6028
12257TIP3    H258263   5.772   5.969  15.919  1.0066  0.8388  2.3568
12258TIP3   OH258264   5.975   4.981   6.488 -0.1881  0.0698  0.6184
12258TIP3    H158265   5.900   5.036   6.512 -0.6126 -0.2748  0.1012
12258TIP3    H258266   5.986   4.922   6.562 -1.9509 -1.4755 -0.2627
12259TIP3   OH258267   0.308   1.377   4.495 -0.1813  0.5167 -0.0865
12259TIP3    H158268   0.393   1.389   4.453  0.0130 -0.1463  0.1108
12259TIP3    H258269   0.321   1.411   4.583  0.1854 -0.4928  0.2683
12260TIP3   OH258270   5.082   4.613   0.549  0.0238 -0.4097 -0.5082
12260TIP3    H158271   5.153   4.650   0.497  1.9089 -1.7648  0.9760
12260TIP3    H258272   5.031   4.689   0.578  0.9652  0.6085 -1.4227
12261TIP3   OH258273   2.741   5.024   1.796  0.0362 -0.4044  0.6068
12261TIP3    H158274   2.696   4.977   1.866 -0.9822 -0.7888 -0.2717
12261TIP3    H258275   2.819   4.971   1.779 -1.2556 -2.0422 -0.5944
12262TIP3   OH258276   3.616   1.109   0.321 -0.5109  0.6242  0.0511
12262TIP3    H158277   3.616   1.029   0.269 -2.7763 -1.0115  2.3237
12262TIP3    H258278   3.530   1.148   0.307 -0.7688  0.7119  1.6790
12263TIP3   OH258279   6.736   2.953   0.795  0.0393 -0.0763 -1.0592
12263TIP3    H158280   6.793   3.029   0.808  0.9646 -0.9623  0.3125
12263TIP3    H258281   6.701   2.934   0.882 -0.4225 -1.0204 -1.4414
12264TIP3   OH258282   4.806   2.383  13.263  0.2200 -0.1987 -0.2938
12264TIP3    H158283   4.797   2.314  13.198  3.1402 -1.0567  0.0303
12264TIP3    H258284   4.828   2.462  13.213 -0.0335 -0.2530 -0.4889
12265TIP3   OH258285   1.698   1.648  10.520 -0.1388 -0.0894 -0.0902
12265TIP3    H158286   1.662   1.598  10.447  1.6750 -0.5489 -0.7080
12265TIP3    H258287   1.769   1.594  10.555  0.1418  0.8847  0.9248
12266TIP3   OH258288   4.399   6.422   0.229 -0.6763  0.0329 -0.0665
12266TIP3    H158289   4.344   6.360   0.182  0.6891 -1.1121 -0.1919
12266TIP3    H258290   4.336   6.480   0.273 -1.9688  0.0120 -1.7946
12267TIP3   OH258291   2.188   5.281   4.284  0.0695  0.0127  0.1941
12267TIP3    H158292   2.117   5.236   4.240  0.1862  0.3464 -0.3502
12267TIP3    H258293   2.267   5.252   4.237 -0.0679  2.9499 -2.1478
12268TIP3   OH258294   5.662   4.228   1.331 -0.3961 -0.2068  0.0660
12268TIP3    H158295   5.648   4.134   1.328 -1.6442 -0.0910  1.2386
12268TIP3    H258296   5.656   4.256   1.239  1.5226 -1.4150 -0.4997
12269TIP3   OH258297   4.649   6.479  12.422 -0.2429  0.5304 -0.1328
12269TIP3    H158298   4.565   6.482  12.468  0.0867 -1.7170  0.7553
12269TIP3    H258299   4.704   6.422  12.476  0.9973 -0.1418 -2.0008
12270TIP3   OH258300   6.652   2.971   1.034  0.6119  0.0170 -0.0233
12270TIP3    H158301   6.692   2.988   1.119 -1.4903 -1.1474  1.2549
12270TIP3    H258302   6.588   3.041   1.023 -1.2192 -1.4776  0.7742
12271TIP3   OH258303   2.324   0.355  10.945  0.0229  0.4083  0.1317
12271TIP3    H158304   2.392   0.380  10.882  0.1869 -0.9671 -0.2548
12271TIP3    H258305   2.336   0.261  10.958 -2.0148  0.0481 -0.2133
12272TIP3   OH258306   1.074   3.533  12.276 -0.0984 -0.1565  0.3436
12272TIP3    H158307   1.074   3.628  12.288  0.7316 -0.0365 -0.4905
12272TIP3    H258308   1.149   3.516  12.218 -0.4172 -1.2900  0.2388
12273TIP3   OH258309   3.900   3.184  16.340 -0.6049 -0.5173  0.2184
12273TIP3    H158310   3.827   3.212  16.395 -0.4092 -0.0844  0.2687
12273TIP3    H258311   3.863   3.177  16.252 -0.6163  0.1312  0.1634
12274TIP3   OH258312   0.972   3.113  16.907 -0.2050  0.0213 -0.5125
12274TIP3    H158313   0.997   3.193  16.952 -0.7182  0.3714 -0.8336
12274TIP3    H258314   0.902   3.140  16.847 -1.0954 -0.8389  0.0969
12275TIP3   OH258315   4.781   0.753  16.436 -0.0899  0.0776  0.8740
12275TIP3    H158316   4.708   0.721  16.490 -0.0511 -0.2705  0.7186
12275TIP3    H258317   4.831   0.675  16.414 -1.2039 -0.0917 -1.3294
12276TIP3   OH258318   2.843   1.887  15.559  0.1629  0.1940 -0.2269
12276TIP3    H158319   2.812   1.933  15.481 -0.7404 -0.4484 -0.2644
12276TIP3    H258320   2.789   1.922  15.630  0.6560  0.4335  0.0342
12277TIP3   OH258321   2.495   5.460   0.688  0.2379 -0.1210  0.3345
12277TIP3    H158322   2.400   5.457   0.675  0.0145  1.5926  1.2797
12277TIP3    H258323   2.505   5.486   0.780  1.6473 -1.2023  0.5198
12278TIP3   OH258324   6.301   6.714  17.062  0.0749 -0.0196 -0.2108
12278TIP3    H158325   6.391   6.729  17.089 -0.5825  1.3190  1.3712
12278TIP3    H258326   6.307   6.644  16.997  2.3066  0.5096 -0.6464
12279TIP3   OH258327   6.777   6.515   5.299  0.1456 -0.2520 -0.0092
12279TIP3    H158328   6.792   6.477   5.385  1.2440 -2.7372 -1.2076
12279TIP3    H258329   6.814   6.603   5.305 -0.7618  0.0536  2.3171
12280TIP3   OH258330   1.076   0.626   5.094 -0.7041  0.4400  0.0869
12280TIP3    H158331   1.087   0.531   5.091  0.4322  0.5855 -1.0030
12280TIP3    H258332   0.999   0.639   5.150 -0.7889 -1.1042  0.3787
12281TIP3   OH258333   1.604   2.560  11.161  0.5163 -0.5875 -0.2157
12281TIP3    H158334   1.609   2.585  11.069  1.0092 -0.1407 -0.0682
12281TIP3    H258335   1.647   2.474  11.165  3.1178  0.6274  0.0555
12282TIP3   OH258336   3.092   4.209  11.599 -1.1229 -0.4447  0.1737
12282TIP3    H158337   3.044   4.273  11.652  0.2531  0.8812 -0.0909
12282TIP3    H258338   3.055   4.217  11.511 -1.7897 -0.9132  0.4105
12283TIP3   OH258339   2.828   1.004  11.149 -0.2187  0.1161  0.3950
12283TIP3    H158340   2.883   1.058  11.092  0.5914  1.1402  2.0577
12283TIP3    H258341   2.754   0.979  11.094  0.3852  1.2739 -1.0174
12284TIP3   OH258342   5.886   0.405   0.146 -0.2603  0.1660 -1.0430
12284TIP3    H158343   5.846   0.349   0.213 -0.3391  1.1021 -0.2852
12284TIP3    H258344   5.828   0.398   0.070 -0.8317  0.0350 -0.6013
12285TIP3   OH258345   4.534   2.866  12.680  0.0360 -0.2774 -0.2208
12285TIP3    H158346   4.523   2.919  12.759 -2.5425  1.2191 -1.4467
12285TIP3    H258347   4.584   2.790  12.709  0.5288  0.9487  2.4829
12286TIP3   OH258348   5.691   1.027  12.266  0.5164 -0.1554  0.2463
12286TIP3    H158349   5.738   1.045  12.347  0.4676  3.4007 -0.3203
12286TIP3    H258350   5.731   1.085  12.202 -0.9985 -1.1071 -1.6866
12287TIP3   OH258351   4.771   0.125   4.444  0.7226 -0.1067  0.2575
12287TIP3    H158352   4.709   0.139   4.516  0.5693  2.9950 -0.3192
12287TIP3    H258353   4.850   0.092   4.487  0.0171 -0.1082  1.5997
12288TIP3   OH258354   5.241   6.720   3.325 -0.4736 -0.0509  0.2192
12288TIP3    H158355   5.270   6.674   3.403 -0.2777  0.9159  0.7337
12288TIP3    H258356   5.304   6.791   3.313 -1.3149  0.6857  0.0240
12289TIP3   OH258357   0.374   3.587   5.231  0.2039  0.0855 -0.3890
12289TIP3    H158358   0.421   3.653   5.180  1.4943 -1.0759 -0.7803
12289TIP3    H258359   0.417   3.587   5.316 -0.2133  0.1972 -0.1781
12290TIP3   OH258360   5.840   2.046  15.491 -0.2006 -0.1470  0.4450
12290TIP3    H158361   5.853   2.140  15.505 -0.7981  0.2346 -1.2741
12290TIP3    H258362   5.747   2.031  15.511 -0.3837 -0.1209 -0.3191
12291TIP3   OH258363   5.601   4.678  11.957  0.1986 -0.0845  0.1505
12291TIP3    H158364   5.690   4.647  11.973  0.4897  0.1393 -1.0133
12291TIP3    H258365   5.611   4.756  11.903 -0.7782 -1.6747 -2.5021
12292TIP3   OH258366   1.809   1.186   1.505  0.2265 -0.3667  0.0444
12292TIP3    H158367   1.846   1.275   1.506 -0.1128 -0.2269  1.1520
12292TIP3    H258368   1.874   1.133   1.550  0.0456 -0.5262  0.1156
12293TIP3   OH258369   6.565   1.025  10.958  0.4507  0.4312 -0.5077
12293TIP3    H158370   6.535   1.047  10.870 -0.5441  0.3595 -0.1963
12293TIP3    H258371   6.581   0.931  10.955  2.2440  0.7140 -1.1206
12294TIP3   OH258372   1.746   6.584   2.655 -0.3362 -0.5020 -0.3547
12294TIP3    H158373   1.806   6.512   2.636  0.5775  0.6073 -1.8162
12294TIP3    H258374   1.723   6.620   2.569 -0.9356  0.8187  0.3254
12295TIP3   OH258375   6.810   4.858  16.337 -0.2469 -0.1365 -0.2269
12295TIP3    H158376   6.822   4.770  16.301 -0.8359 -0.3502  0.0936
12295TIP3    H258377   6.727   4.853  16.385 -0.1494  0.5211  0.0093
12296TIP3   OH258378   4.881   1.640   3.661  0.4091 -0.1223  0.4523
12296TIP3    H158379   4.818   1.712   3.653  0.5946 -0.0653 -0.7030
12296TIP3    H258380   4.861   1.583   3.587  0.2690 -1.2745  1.3494
12297TIP3   OH258381   1.661   4.682   0.440  0.3135  0.1118 -0.0313
12297TIP3    H158382   1.592   4.638   0.489  2.2266  0.5376  3.3609
12297TIP3    H258383   1.725   4.613   0.421 -0.2817  0.0021 -1.8956
12298TIP3   OH258384   5.572   0.314   2.420  0.0589  0.2761  0.7878
12298TIP3    H158385   5.539   0.396   2.383  0.4150 -0.5351 -1.5256
12298TIP3    H258386   5.657   0.302   2.378 -0.7452 -2.1210 -0.3307
12299TIP3   OH258387   0.359   2.275   4.291  0.3216 -0.1873 -0.5624
12299TIP3    H158388   0.429   2.326   4.250  0.1413  1.3458  0.9181
12299TIP3    H258389   0.290   2.272   4.226  0.4154  1.3445 -0.7726
12300TIP3   OH258390   1.593   5.889  15.639 -0.4614 -0.1654  0.0501
12300TIP3    H158391   1.602   5.931  15.725  0.7183 -0.7553  0.2414
12300TIP3    H258392   1.634   5.951  15.578 -4.2340  1.8845 -0.7127
12301TIP3   OH258393   5.895   6.838   0.210  0.3354 -0.0796  0.1912
12301TIP3    H158394   5.989   6.858   0.209  0.6207 -1.3850  0.0272
12301TIP3    H258395   5.883   6.774   0.140 -1.0497  1.6026 -1.2001
12302TIP3   OH258396   3.920   6.561  16.257 -0.0312  0.0903 -0.0441
12302TIP3    H158397   3.835   6.564  16.302  0.2222 -0.3660  0.4806
12302TIP3    H258398   3.938   6.652  16.234 -0.1785  0.3277  0.7595
12303TIP3   OH258399   4.106   3.847   1.243  0.0723  0.1994 -0.1769
12303TIP3    H158400   4.067   3.886   1.321 -1.6810 -2.6503  0.5336
12303TIP3    H258401   4.033   3.833   1.184  0.1919 -3.2254  0.2558
12304TIP3   OH258402   0.881   4.750   1.990 -0.6540  0.6983 -0.2863
12304TIP3    H158403   0.906   4.690   2.060  1.4377  0.3830 -1.2237
12304TIP3    H258404   0.794   4.781   2.015 -0.7913 -0.8808  1.4363
12305TIP3   OH258405   5.019   0.448  10.774 -0.1034 -0.1075 -0.3434
12305TIP3    H158406   4.960   0.374  10.765 -0.4694  0.1352  0.0226
12305TIP3    H258407   4.973   0.509  10.831  0.0082  0.5937 -0.9800
12306TIP3   OH258408   1.292   4.454  12.854 -0.4723  0.3735 -0.3390
12306TIP3    H158409   1.352   4.528  12.865  0.7642 -0.0264 -3.3135
12306TIP3    H258410   1.213   4.492  12.816  0.1206  0.2710 -1.7603
12307TIP3   OH258411   6.585   3.645   5.733 -0.1959  0.1368  0.5146
12307TIP3    H158412   6.637   3.583   5.784  0.9965  0.0286 -0.7859
12307TIP3    H258413   6.640   3.723   5.726 -0.7676  0.5221  0.2628
12308TIP3   OH258414   0.106   1.569   0.239  0.2608 -0.5247 -0.7405
12308TIP3    H158415   0.081   1.650   0.282  0.6318 -0.2851 -0.9695
12308TIP3    H258416   0.047   1.562   0.164  0.1883 -0.4964 -0.6859
12309TIP3   OH258417   3.406   3.545  16.648 -0.1018  0.0200  0.1583
12309TIP3    H158418   3.442   3.511  16.730  0.4211  2.9057  1.2383
12309TIP3    H258419   3.318   3.508  16.643  0.4317 -1.5017  1.1351
12310TIP3   OH258420   3.710   2.006  15.984  0.4052 -0.1127 -0.2423
12310TIP3    H158421   3.659   1.940  16.031  0.6940  1.8765  3.2290
12310TIP3    H258422   3.707   1.979  15.892 -4.9217 -1.3892 -0.0030
12311TIP3   OH258423   3.339   0.583  16.439  0.5379  0.3819  0.6635
12311TIP3    H158424   3.281   0.591  16.363  0.5822 -0.2821  0.5526
12311TIP3    H258425   3.301   0.513  16.492  2.3225 -1.5674 -0.4519
12312TIP3   OH258426   6.511   4.990   2.003  0.1526 -0.2966 -0.4810
12312TIP3    H158427   6.541   4.920   2.061 -0.7671 -1.0992 -0.9466
12312TIP3    H258428   6.582   5.001   1.940  1.1269  0.5251  0.6918
12313TIP3   OH258429   6.698   2.543  11.528  0.4165 -0.0359 -0.0256
12313TIP3    H158430   6.614   2.565  11.568  1.0514  0.8821  0.8439
12313TIP3    H258431   6.755   2.617  11.548  1.4905 -0.7107 -0.4489
12314TIP3   OH258432   3.111   6.678   0.128  0.5024 -0.1787 -0.3065
12314TIP3    H158433   3.103   6.586   0.104  1.2103 -0.8173  1.6545
12314TIP3    H258434   3.026   6.700   0.166  0.3077  0.0098 -0.8443
12315TIP3   OH258435   2.375   4.871  17.058 -0.3785  0.6765 -0.1090
12315TIP3    H158436   2.323   4.950  17.041 -0.1040  0.9733  0.4225
12315TIP3    H258437   2.319   4.817  17.113 -0.8396  0.1856 -1.0261
12316TIP3   OH258438   0.406   5.951  11.051  0.0077 -0.1938  0.2215
12316TIP3    H158439   0.477   5.984  10.995  1.2755 -0.3928  1.6338
12316TIP3    H258440   0.451   5.914  11.127 -1.6382  0.3210  1.5130
12317TIP3   OH258441   3.409   5.134  16.198 -0.1231  0.2530 -0.1363
12317TIP3    H158442   3.411   5.088  16.283  1.6186 -0.2183 -0.3865
12317TIP3    H258443   3.341   5.200  16.208 -0.4186 -0.2445  1.4054
12318TIP3   OH258444   4.180   3.572   5.760  0.3976  0.0337 -0.1913
12318TIP3    H158445   4.196   3.645   5.820  1.7305 -0.6405  0.3208
12318TIP3    H258446   4.191   3.494   5.814 -2.2842 -0.6025 -0.4092
12319TIP3   OH258447   2.061   2.358  13.258 -0.5954 -0.2497  0.6640
12319TIP3    H158448   1.987   2.397  13.213 -1.2251 -1.9861  0.1078
12319TIP3    H258449   2.123   2.430  13.271 -2.1466  1.1225  0.6888
12320TIP3   OH258450   5.962   1.059  15.384  0.1520 -0.0476  0.4709
12320TIP3    H158451   6.008   1.130  15.339  0.7406 -0.9227 -0.3503
12320TIP3    H258452   5.974   0.983  15.327  0.4916 -1.0719  1.8722
12321TIP3   OH258453   2.312   2.975   1.280  0.3371  0.2952  0.1718
12321TIP3    H158454   2.221   3.005   1.284 -0.1138 -0.8427 -0.8500
12321TIP3    H258455   2.357   3.028   1.346 -1.5468 -0.7631  2.4788
12322TIP3   OH258456   6.044   2.844  14.724  0.4607  0.4123 -0.3515
12322TIP3    H158457   6.058   2.843  14.629  0.3606  0.5741 -0.3661
12322TIP3    H258458   6.111   2.783  14.758 -0.3942 -0.7270 -0.6422
12323TIP3   OH258459   0.254   2.230  14.742 -0.5563 -0.4176  0.0135
12323TIP3    H158460   0.335   2.180  14.754 -0.7053 -0.2815  1.8416
12323TIP3    H258461   0.283   2.311  14.701  0.2943 -0.2572  0.8868
12324TIP3   OH258462   5.826   2.930   4.644 -0.0205  0.3184  0.2083
12324TIP3    H158463   5.860   2.930   4.734  0.9611  1.2399 -0.1402
12324TIP3    H258464   5.740   2.888   4.650 -0.5890  1.6343  1.8037
12325TIP3   OH258465   5.099   2.936  14.275  0.4153  0.0530 -0.4022
12325TIP3    H158466   5.060   2.873  14.214 -0.5461 -0.9449  1.1661
12325TIP3    H258467   5.180   2.894  14.305  0.8987  0.5510 -0.9960
12326TIP3   OH258468   0.503   2.075   1.211 -0.9939 -0.1122  0.1631
12326TIP3    H158469   0.498   2.169   1.228  0.1072  0.0496 -0.3689
12326TIP3    H258470   0.517   2.036   1.298  0.3001  0.3692  0.1933
12327TIP3   OH258471   1.111   4.317   5.404  0.1562 -0.9093 -0.2553
12327TIP3    H158472   1.102   4.406   5.438 -1.4065 -1.5630  1.2239
12327TIP3    H258473   1.130   4.328   5.311 -1.3211  0.9734 -0.3945
12328TIP3   OH258474   3.310   5.280  11.551  0.1450 -0.5800  0.3664
12328TIP3    H158475   3.221   5.313  11.553 -0.3413 -1.8332  0.4388
12328TIP3    H258476   3.365   5.357  11.539 -0.9687  0.1675  0.0151
12329TIP3   OH258477   5.034   4.428  12.716 -0.7385 -0.0055 -0.3380
12329TIP3    H158478   4.987   4.494  12.766 -1.1986  0.1854 -1.0197
12329TIP3    H258479   4.992   4.345  12.740  0.8164 -0.2998  1.7051
12330TIP3   OH258480   3.673   2.295   4.753 -0.0123 -0.6168 -0.0130
12330TIP3    H158481   3.759   2.316   4.789 -0.0832  0.0850 -0.2360
12330TIP3    H258482   3.670   2.199   4.753 -0.0724 -0.6560  1.9708
12331TIP3   OH258483   0.676   2.665   0.588  0.2389  0.2901 -0.2932
12331TIP3    H158484   0.658   2.596   0.524  1.8829 -0.0562 -0.4415
12331TIP3    H258485   0.625   2.641   0.665 -0.6396 -0.0833 -0.9763
12332TIP3   OH258486   1.845   2.070  16.546  0.0997 -0.3042 -0.0936
12332TIP3    H158487   1.861   1.980  16.574 -0.3137 -0.4205 -0.2205
12332TIP3    H258488   1.792   2.061  16.467 -0.7415  0.0712  0.4223
12333TIP3   OH258489   5.639   5.737   1.017 -0.2861 -0.3646  0.1784
12333TIP3    H158490   5.597   5.817   1.050  0.0795  0.9700 -2.3750
12333TIP3    H258491   5.731   5.749   1.039  0.2747  1.3967 -2.6569
12334TIP3   OH258492   1.593   1.824   0.498  0.3877  0.1476  0.1772
12334TIP3    H158493   1.599   1.729   0.513  1.3004 -0.0918 -1.4736
12334TIP3    H258494   1.641   1.863   0.571  0.2414 -0.6691  0.7263
12335TIP3   OH258495   4.422   6.399   2.109 -0.3511 -0.2539  0.1066
12335TIP3    H158496   4.453   6.363   2.192  0.2672  2.2133  1.0680
12335TIP3    H258497   4.490   6.376   2.046 -1.0745 -2.5919  0.1134
12336TIP3   OH258498   5.146   5.908   1.834  0.9290 -0.2352 -0.0583
12336TIP3    H158499   5.162   5.817   1.857  3.9986  0.2881  0.3009
12336TIP3    H258500   5.205   5.958   1.891  0.1662  1.8979 -1.0241
12337TIP3   OH258501   5.295   2.761   5.353 -0.8483  0.2406  0.0399
12337TIP3    H158502   5.216   2.720   5.388 -0.5701 -0.4093 -0.0771
12337TIP3    H258503   5.304   2.724   5.265  0.5230 -1.0261  0.6662
12338TIP3   OH258504   2.527   5.819  10.583  0.2985  0.0764  0.4128
12338TIP3    H158505   2.621   5.832  10.595  0.5031 -0.5134 -0.3945
12338TIP3    H258506   2.521   5.766  10.503 -0.7977  1.5640 -0.5493
12339TIP3   OH258507   6.157   2.802  12.732  0.3183 -0.0053  0.5659
12339TIP3    H158508   6.199   2.823  12.815  1.0444  0.7917  0.0111
12339TIP3    H258509   6.226   2.760  12.680 -0.4814 -1.7342  0.8191
12340TIP3   OH258510   4.881   2.898   0.215 -0.6629 -0.4596 -0.1260
12340TIP3    H158511   4.966   2.856   0.201  0.6129  1.8117  0.2407
12340TIP3    H258512   4.834   2.884   0.133  0.8952 -0.0741 -1.1439
12341TIP3   OH258513   4.316   3.331   2.069 -0.5039 -0.1677 -0.0744
12341TIP3    H158514   4.299   3.390   1.996  0.1006  1.0574  0.7599
12341TIP3    H258515   4.234   3.281   2.078 -1.0238  0.5292 -0.7843
12342TIP3   OH258516   3.333   2.305  15.275 -0.3654 -0.2263  0.4036
12342TIP3    H158517   3.342   2.389  15.231  0.7633 -0.9368 -0.7810
12342TIP3    H258518   3.418   2.290  15.317 -0.2713 -1.1193 -0.0658
12343TIP3   OH258519   1.644   2.351   5.627  0.0412  0.7006  0.2755
12343TIP3    H158520   1.549   2.358   5.636  0.0509  0.8780  0.2381
12343TIP3    H258521   1.669   2.422   5.568  0.2023  0.6785  0.3143
12344TIP3   OH258522   4.578   2.682  11.864 -0.7081  0.5514 -0.1302
12344TIP3    H158523   4.525   2.747  11.909 -1.0901  1.0023 -1.2097
12344TIP3    H258524   4.531   2.600  11.875 -1.5609  0.9216 -0.9512
12345TIP3   OH258525   2.107   6.676  14.500  0.2151 -0.2624 -0.0484
12345TIP3    H158526   2.150   6.759  14.480 -1.5995  0.4970 -1.1250
12345TIP3    H258527   2.078   6.686  14.591  1.5515 -0.4535  0.4063
12346TIP3   OH258528   3.262   4.288   6.093  0.0244  0.2745 -0.1116
12346TIP3    H158529   3.167   4.294   6.087  0.0579  0.2955 -0.6886
12346TIP3    H258530   3.285   4.347   6.165 -0.4979 -0.7184  0.9036
12347TIP3   OH258531   5.111   6.483   3.252  1.0180  0.0606 -0.9183
12347TIP3    H158532   5.142   6.568   3.282  1.4085  0.6713 -2.9180
12347TIP3    H258533   5.191   6.432   3.237  1.0023  0.6527 -3.3012
12348TIP3   OH258534   5.938   0.330  12.338  0.1984  0.0863  0.6842
12348TIP3    H158535   5.985   0.247  12.343 -0.8166 -0.5517 -0.0238
12348TIP3    H258536   5.857   0.309  12.292 -1.1962  0.9648  2.6114
12349TIP3   OH258537   3.731   0.187  12.554  0.0890  0.0925 -0.6238
12349TIP3    H158538   3.756   0.237  12.632  0.5750 -1.3629  0.1791
12349TIP3    H258539   3.800   0.207  12.491 -0.6892  1.8591 -0.9992
12350TIP3   OH258540   6.624   0.455   2.339 -0.0243 -0.1951 -0.4069
12350TIP3    H158541   6.594   0.538   2.303 -0.0515  0.8034  1.7604
12350TIP3    H258542   6.719   0.460   2.334  0.0106  0.4501  0.6796
12351TIP3   OH258543   3.442   1.498   5.418 -0.4940 -0.4427 -0.4101
12351TIP3    H158544   3.474   1.578   5.378  1.3559 -1.3866 -0.9456
12351TIP3    H258545   3.519   1.441   5.423 -1.1779 -1.2672  2.2824
12352TIP3   OH258546   4.540   5.574   3.553 -0.4195  0.1766  0.2121
12352TIP3    H158547   4.592   5.620   3.619  1.5389 -0.8097 -0.5658
12352TIP3    H258548   4.531   5.486   3.588 -1.0015  0.1631  0.0211
12353TIP3   OH258549   4.553   5.420  13.481 -0.5976  1.0005 -0.6641
12353TIP3    H158550   4.543   5.507  13.444  0.8968  1.2523 -0.5397
12353TIP3    H258551   4.547   5.361  13.406 -0.7462  1.2782 -0.8726
12354TIP3   OH258552   0.292   4.967   5.264  0.4327  0.2595  0.4472
12354TIP3    H158553   0.233   4.895   5.286  0.2955  0.8596  2.2239
12354TIP3    H258554   0.333   4.989   5.347  2.3056  0.6366 -0.5265
12355TIP3   OH258555   0.411   3.757  13.633 -0.4125  0.4978  0.2245
12355TIP3    H158556   0.333   3.718  13.673  0.3343 -2.2652 -0.7525
12355TIP3    H258557   0.469   3.777  13.706 -1.0879  0.3128  0.8183
12356TIP3   OH258558   0.544   3.476   4.885  0.1729  0.9184 -0.6210
12356TIP3    H158559   0.632   3.445   4.861 -0.3872 -0.7376 -0.7171
12356TIP3    H258560   0.559   3.557   4.933  1.7896  0.4567 -0.2750
12357TIP3   OH258561   6.213   5.892   1.110 -0.3758 -0.3366 -1.0177
12357TIP3    H158562   6.262   5.843   1.176  1.5589  1.9676 -0.5686
12357TIP3    H258563   6.123   5.861   1.118 -0.2957 -0.0338  2.8728
12358TIP3   OH258564   3.623   1.471  16.309 -0.7713 -0.0674 -0.3360
12358TIP3    H158565   3.550   1.430  16.355 -0.3451 -1.2606 -0.6919
12358TIP3    H258566   3.623   1.429  16.223  2.4067 -2.6854  0.7480
12359TIP3   OH258567   1.652   1.347  10.630 -0.5018  0.5108  0.0122
12359TIP3    H158568   1.605   1.349  10.547 -1.5203  2.0159  0.5890
12359TIP3    H258569   1.731   1.399  10.613  0.3732 -0.9562 -0.5886
12360TIP3   OH258570   3.814   1.765  13.060  0.0925  0.3630 -0.7410
12360TIP3    H158571   3.828   1.719  13.142 -2.4609 -0.0305 -0.4434
12360TIP3    H258572   3.869   1.843  13.067  1.2933 -0.5447  0.5364
12361TIP3   OH258573   3.361   2.670  14.298  0.0323 -0.3435  0.2282
12361TIP3    H158574   3.354   2.595  14.240 -1.3407 -0.3513  0.3683
12361TIP3    H258575   3.425   2.644  14.364  1.4003 -0.4365 -1.0843
12362TIP3   OH258576   0.088   2.351   0.381  0.0408  0.3190 -0.4359
12362TIP3    H158577   0.153   2.293   0.420 -1.4396 -0.8726  0.3770
12362TIP3    H258578   0.062   2.410   0.452 -0.6410 -0.0279 -0.3832
12363TIP3   OH258579   0.299   4.915   3.560 -0.2932  0.5762 -0.0047
12363TIP3    H158580   0.282   4.837   3.507 -0.5811  0.5077  0.1844
12363TIP3    H258581   0.261   4.894   3.646  0.0665  0.7308  0.1927
12364TIP3   OH258582   4.625   5.605   3.899 -0.6162  0.5335  0.4754
12364TIP3    H158583   4.702   5.557   3.867 -0.3916  0.7572  0.6745
12364TIP3    H258584   4.657   5.650   3.978 -0.6210  1.6138 -0.1288
12365TIP3   OH258585   1.019   5.306   1.539 -0.2218 -0.2090 -0.0373
12365TIP3    H158586   1.068   5.229   1.569 -1.4785 -0.2235  2.1561
12365TIP3    H258587   0.996   5.285   1.448  0.1358 -2.0958  0.2581
12366TIP3   OH258588   6.309   6.701  16.491  0.2045  0.5269  0.2116
12366TIP3    H158589   6.319   6.780  16.545 -1.7546  0.8797  0.1101
12366TIP3    H258590   6.265   6.732  16.412 -3.6758 -1.0886  1.5115
12367TIP3   OH258591   0.364   0.040   2.862  0.1730 -0.2629  0.5899
12367TIP3    H158592   0.334   0.009   2.777 -1.4450  0.3899  0.8915
12367TIP3    H258593   0.391   0.130   2.847  3.1969 -1.1415  0.0902
12368TIP3   OH258594   1.842   5.563   5.598  0.2123 -0.5295 -0.1074
12368TIP3    H158595   1.898   5.546   5.522  2.1402  1.3099  0.7926
12368TIP3    H258596   1.775   5.624   5.567  1.3074  0.6319 -0.2617
12369TIP3   OH258597   6.461   1.783  11.646  0.0369 -0.1307 -0.4957
12369TIP3    H158598   6.367   1.784  11.665 -0.0668  3.3792 -0.5843
12369TIP3    H258599   6.469   1.833  11.565  2.2094  2.5418  1.2364
12370TIP3   OH258600   5.555   1.449  14.408 -0.0869 -0.0559  0.0669
12370TIP3    H158601   5.555   1.540  14.438  2.8170 -0.5719  2.0621
12370TIP3    H258602   5.610   1.450  14.329  0.3230 -0.1025  0.3448
12371TIP3   OH258603   4.859   1.621   0.691  0.5157 -0.3413  0.1579
12371TIP3    H158604   4.773   1.617   0.732 -0.4182  1.4414 -1.4908
12371TIP3    H258605   4.919   1.640   0.763 -0.4188 -1.6572  1.3389
12372TIP3   OH258606   2.138   1.074  17.030 -0.4606  0.5011  0.9750
12372TIP3    H158607   2.169   1.141  16.969 -1.4029 -0.1274 -0.2436
12372TIP3    H258608   2.098   1.123  17.101 -0.6111  1.2516  0.3857
12373TIP3   OH258609   3.921   2.480   5.645  0.2461  0.0292 -0.2026
12373TIP3    H158610   3.898   2.505   5.555  1.0370 -1.9452 -1.0185
12373TIP3    H258611   3.864   2.405   5.664  2.5421 -1.9479 -0.5181
12374TIP3   OH258612   2.020   1.399   3.714 -0.2958  0.7496 -0.1763
12374TIP3    H158613   2.109   1.432   3.720  0.2594 -0.5173 -1.0015
12374TIP3    H258614   2.024   1.312   3.755 -0.9671  0.3614 -0.9048
12375TIP3   OH258615   6.309   3.591  13.532  0.1945  0.4792 -0.3214
12375TIP3    H158616   6.395   3.551  13.520  0.1069  0.4926 -1.0873
12375TIP3    H258617   6.324   3.684  13.514 -0.1683  0.3274 -1.4921
12376TIP3   OH258618   0.009   1.409   3.863 -0.2307 -0.5391 -0.6449
12376TIP3    H158619  -0.012   1.502   3.872 -0.9419 -0.7570  0.0992
12376TIP3    H258620   0.012   1.394   3.768 -0.6816  0.1172 -0.7700
12377TIP3   OH258621   6.325   0.483  10.552  0.3973 -0.1346  0.6354
12377TIP3    H158622   6.233   0.457  10.561 -0.3109  1.5691 -0.9737
12377TIP3    H258623   6.373   0.401  10.541 -1.3858 -0.9573 -1.8786
12378TIP3   OH258624   5.613   3.342  12.951  0.2665 -0.5557 -0.3273
12378TIP3    H158625   5.690   3.369  13.002  2.0919 -2.5815 -1.7747
12378TIP3    H258626   5.542   3.398  12.982  1.4157 -1.0178  3.7484
12379TIP3   OH258627   0.760   3.171  11.409 -0.2336 -0.2603 -0.7894
12379TIP3    H158628   0.668   3.154  11.386 -0.9520  1.4992  0.5626
12379TIP3    H258629   0.774   3.119  11.488 -0.7329  1.0465  0.1853
12380TIP3   OH258630   3.041   4.292   3.800  0.6425  0.4583  0.1001
12380TIP3    H158631   3.085   4.376   3.785 -0.0725  0.7319 -0.5540
12380TIP3    H258632   3.112   4.230   3.817  1.1336  1.4947  2.2933
12381TIP3   OH258633   5.038   1.109  11.905  0.6842  0.3307 -0.5694
12381TIP3    H158634   4.983   1.169  11.854 -0.0001 -1.0569 -1.5281
12381TIP3    H258635   5.091   1.166  11.961 -0.8754  1.7751 -0.4899
12382TIP3   OH258636   5.476   2.265   1.573  0.1119  0.1672 -0.3521
12382TIP3    H158637   5.508   2.273   1.483  0.1176 -0.3242 -0.3946
12382TIP3    H258638   5.446   2.174   1.580 -0.5638  0.3997 -0.0821
12383TIP3   OH258639   1.753   2.774   2.863 -0.2354 -0.0635 -0.0881
12383TIP3    H158640   1.671   2.761   2.817 -0.4909  2.7162 -0.6262
12383TIP3    H258641   1.727   2.790   2.954 -0.5873  2.6699 -0.5768
12384TIP3   OH258642   3.826   0.246  13.276 -0.5692 -0.5232 -0.0097
12384TIP3    H158643   3.876   0.238  13.195  0.1635  1.2614  0.2197
12384TIP3    H258644   3.740   0.279  13.248  0.2007  1.6594  0.0131
12385TIP3   OH258645   6.346   4.150   5.986 -0.1852  0.2574  0.0343
12385TIP3    H158646   6.407   4.210   5.944  2.2712 -1.7307  0.5102
12385TIP3    H258647   6.397   4.109   6.056 -2.0468 -1.5998  0.4046
12386TIP3   OH258648   3.505   3.088   1.836 -0.2114 -0.0034 -0.0313
12386TIP3    H158649   3.416   3.107   1.806 -0.2017  1.0949  0.5799
12386TIP3    H258650   3.505   3.110   1.929  0.5299 -0.6160  0.1275
12387TIP3   OH258651   5.314   3.680   4.194  0.0910 -0.3958  0.1295
12387TIP3    H158652   5.395   3.629   4.199  0.7842  0.1933 -3.2542
12387TIP3    H258653   5.295   3.686   4.101 -2.5129  1.6346  0.6920
12388TIP3   OH258654   3.791   3.350  11.728 -0.2435  0.5525  0.0613
12388TIP3    H158655   3.724   3.292  11.762  1.1469  0.2496  2.5135
12388TIP3    H258656   3.865   3.293  11.706  0.4970  1.1928  0.8092
12389TIP3   OH258657   6.773   3.587   5.054  0.0711 -0.2184 -0.1122
12389TIP3    H158658   6.706   3.609   4.989 -1.4511 -0.8948  1.1371
12389TIP3    H258659   6.817   3.669   5.072 -0.8368  0.3848 -0.5489
12390TIP3   OH258660   2.134   0.885  11.222 -0.7990  0.1240 -0.1296
12390TIP3    H158661   2.102   0.866  11.310 -0.4070 -0.0453 -0.0208
12390TIP3    H258662   2.116   0.978  11.209  0.5934  0.5423  0.7511
12391TIP3   OH258663   3.397   6.019  11.454 -0.4470  0.4521 -0.4307
12391TIP3    H158664   3.378   5.990  11.365 -0.2335  1.8036 -0.9381
12391TIP3    H258665   3.325   6.076  11.477 -0.7370 -0.2484  0.4607
12392TIP3   OH258666   0.694   1.518  14.776 -0.4061  0.0643 -0.5726
12392TIP3    H158667   0.662   1.608  14.783  1.4095  0.7685 -0.7827
12392TIP3    H258668   0.758   1.510  14.847 -0.2939 -0.9657 -0.7748
12393TIP3   OH258669   0.587   5.800   0.936  0.0033  0.1513 -0.1036
12393TIP3    H158670   0.673   5.843   0.933  0.0863 -0.0042  0.0199
12393TIP3    H258671   0.577   5.761   0.850  0.2596 -0.2187  0.0328
12394TIP3   OH258672   4.929   1.162   4.281  0.1228  0.6065  0.2525
12394TIP3    H158673   5.006   1.132   4.330 -0.5557 -0.6767  0.5832
12394TIP3    H258674   4.937   1.257   4.279  0.4744  0.6655  2.3981
12395TIP3   OH258675   6.819   3.916  13.257  0.1959  0.6114 -0.6841
12395TIP3    H158676   6.869   3.957  13.186 -0.7065  1.9545 -0.5649
12395TIP3    H258677   6.737   3.887  13.214 -0.1541  1.0122 -0.2892
12396TIP3   OH258678   3.816   0.481   4.589  0.0563  0.5380  0.4804
12396TIP3    H158679   3.745   0.431   4.630 -0.6779 -0.7188 -2.0718
12396TIP3    H258680   3.790   0.487   4.497  2.9368  0.6677 -0.4109
12397TIP3   OH258681   0.106   0.059  12.176 -0.5009 -0.3202 -0.2707
12397TIP3    H158682   0.028   0.092  12.131  0.6765  0.0571 -2.1558
12397TIP3    H258683   0.079  -0.025  12.212 -1.5362 -0.6580 -1.7151
12398TIP3   OH258684   0.983   5.530   5.039  0.1995  0.3750 -0.0845
12398TIP3    H158685   0.923   5.583   5.092 -0.1435 -0.4721  0.4041
12398TIP3    H258686   1.063   5.582   5.034  0.2683  0.4621  1.3279
12399TIP3   OH258687   5.243   2.415   5.800  0.2029  0.4682  0.1712
12399TIP3    H158688   5.202   2.483   5.854  2.4986  1.0745  1.2687
12399TIP3    H258689   5.192   2.336   5.819 -1.3108  1.4371  0.3566
12400TIP3   OH258690   5.308   4.013   5.237  0.0980  0.1982  0.0293
12400TIP3    H158691   5.314   3.945   5.305  0.2585  0.6533  0.4731
12400TIP3    H258692   5.236   3.983   5.181 -0.2256 -0.0403  0.5622
12401TIP3   OH258693   4.135   2.111  15.249 -0.3585 -0.0724 -0.4719
12401TIP3    H158694   4.093   2.029  15.274 -0.4311 -0.8073 -2.7223
12401TIP3    H258695   4.206   2.084  15.190 -0.4044  1.4583 -1.2805
12402TIP3   OH258696   1.870   4.876   0.095 -0.2373 -0.3371  0.3831
12402TIP3    H158697   1.842   4.786   0.113  1.4604 -0.7360  1.3385
12402TIP3    H258698   1.844   4.925   0.173 -0.4732 -0.1688  0.1993
12403TIP3   OH258699   1.268   5.167  12.710  0.2595  0.1997 -0.2136
12403TIP3    H158700   1.337   5.230  12.730  0.6169 -0.2112 -0.1357
12403TIP3    H258701   1.274   5.101  12.779  0.0219 -0.0227 -0.4004
12404TIP3   OH258702   5.294   4.995  13.431  0.1017  0.5994 -0.5518
12404TIP3    H158703   5.316   4.980  13.523  0.7535  0.9435 -0.6471
12404TIP3    H258704   5.326   5.083  13.412  0.8372  0.1715 -1.3618
12405TIP3   OH258705   5.475   0.654  14.046  0.0820  0.0922 -0.0081
12405TIP3    H158706   5.405   0.716  14.027 -1.2195 -1.3946 -0.2531
12405TIP3    H258707   5.465   0.634  14.139 -0.9935 -1.4540 -0.4182
12406TIP3   OH258708   2.134   4.249  13.146  0.8911  0.1771 -0.0907
12406TIP3    H158709   2.051   4.289  13.171  0.2626 -0.7006 -0.7438
12406TIP3    H258710   2.121   4.155  13.158  2.3143  0.1167  1.2948
12407TIP3   OH258711   3.087   2.025   0.214  0.2066 -0.2831  0.5495
12407TIP3    H158712   3.149   2.009   0.143 -0.8755 -2.4039  0.0095
12407TIP3    H258713   3.126   1.981   0.290  0.2295 -0.0466  0.6762
12408TIP3   OH258714   2.296   5.405   3.507 -0.1047  0.0619  0.2227
12408TIP3    H158715   2.365   5.339   3.511 -0.4361 -0.3212 -0.3714
12408TIP3    H258716   2.214   5.355   3.504 -0.4308  0.5127  1.0669
12409TIP3   OH258717   2.430   5.713   5.491  0.2434  0.1633 -0.4386
12409TIP3    H158718   2.485   5.716   5.569  0.5590  3.1354 -0.6611
12409TIP3    H258719   2.346   5.749   5.519 -0.2804 -0.5764 -1.0229
12410TIP3   OH258720   0.602   5.090   1.614  0.2239 -0.2290  0.1969
12410TIP3    H158721   0.676   5.146   1.639  0.3974 -1.1122  1.8520
12410TIP3    H258722   0.550   5.144   1.554  0.6277  1.5582  1.3428
12411TIP3   OH258723   4.773   4.227  16.845  0.2237 -0.4460 -0.2412
12411TIP3    H158724   4.678   4.219  16.849  0.0816  1.0497 -0.0713
12411TIP3    H258725   4.805   4.174  16.918 -0.5712  0.2413  0.6266
12412TIP3   OH258726   5.279   2.089   3.317 -0.1642 -0.7999 -0.4689
12412TIP3    H158727   5.312   2.077   3.406 -3.0019 -2.1009  0.5307
12412TIP3    H258728   5.184   2.095   3.327 -0.4029  3.0925 -3.0705
12413TIP3   OH258729   4.478   5.841  12.866 -0.2890 -0.0434  0.3788
12413TIP3    H158730   4.507   5.921  12.910  1.3270  0.2409 -1.0616
12413TIP3    H258731   4.543   5.775  12.890 -0.7480 -0.5165  0.3390
12414TIP3   OH258732   5.228   0.336  15.993 -0.1935 -0.5408  0.3109
12414TIP3    H158733   5.211   0.366  15.904 -0.4436 -2.0185 -0.1692
12414TIP3    H258734   5.145   0.299  16.022 -0.2525  0.3782  1.3621
12415TIP3   OH258735   6.502   3.889  11.814 -0.1285  0.5796 -0.2263
12415TIP3    H158736   6.450   3.838  11.876  0.2524  0.5741  0.0886
12415TIP3    H258737   6.467   3.864  11.728 -0.7649  0.7152 -0.0094
12416TIP3   OH258738   5.848   3.038  13.096  0.0553  0.2032  0.0953
12416TIP3    H158739   5.899   2.994  13.029 -1.2328 -0.3194 -0.5728
12416TIP3    H258740   5.806   2.968  13.145  0.5787  0.5967  1.1474
12417TIP3   OH258741   3.212   1.313   6.109  0.0302 -0.1015  0.3077
12417TIP3    H158742   3.286   1.258   6.080 -0.5753 -0.7178 -0.0969
12417TIP3    H258743   3.223   1.394   6.060  0.5314 -0.1241  0.3696
12418TIP3   OH258744   3.531   0.867   0.175  0.3701 -0.0793 -0.2468
12418TIP3    H158745   3.495   0.903   0.094  0.4977  0.3189 -0.1321
12418TIP3    H258746   3.463   0.883   0.241  0.1394 -0.6797 -0.3368
12419TIP3   OH258747   1.710   2.268  12.930  0.0829 -0.7486  0.6670
12419TIP3    H158748   1.787   2.260  12.874 -0.6196 -3.3027 -0.1002
12419TIP3    H258749   1.647   2.317  12.878 -0.2269 -2.2786 -0.4809
12420TIP3   OH258750   1.890   1.892   1.316  0.0293  0.0839  0.9047
12420TIP3    H158751   1.816   1.932   1.361 -0.5868 -0.9869  0.8656
12420TIP3    H258752   1.871   1.905   1.223  1.8791  3.3659  0.8215
12421TIP3   OH258753   0.077   2.875   0.372 -1.1051  0.4187  0.3167
12421TIP3    H158754   0.036   2.862   0.286 -0.4699  0.0721  0.0597
12421TIP3    H258755   0.147   2.938   0.356  0.9842 -1.8395 -0.0755
12422TIP3   OH258756   1.285   5.841  11.035  0.0625 -0.3760 -0.4138
12422TIP3    H158757   1.250   5.895  11.106 -0.2142  1.0956 -1.6231
12422TIP3    H258758   1.208   5.818  10.983  0.2343 -1.6228 -0.1452
12423TIP3   OH258759   1.519   0.553  16.863 -0.1459  0.1007 -0.4007
12423TIP3    H158760   1.580   0.605  16.915  0.3558 -0.0892 -0.7901
12423TIP3    H258761   1.561   0.467  16.856  0.2784  0.4121 -1.9688
12424TIP3   OH258762   0.302   5.168   0.382 -0.4464 -0.5097  0.3621
12424TIP3    H158763   0.353   5.238   0.341  0.8899 -1.5294  0.2240
12424TIP3    H258764   0.213   5.180   0.348 -0.3814  1.4180  0.7476
12425TIP3   OH258765   0.614   3.560   4.266  0.5063 -0.6121  0.3213
12425TIP3    H158766   0.573   3.538   4.350 -0.9164  2.0953  0.4395
12425TIP3    H258767   0.671   3.635   4.285  0.8142 -0.4829 -0.9893
12426TIP3   OH258768   3.222   5.542   4.077  0.1413 -0.8447 -0.1791
12426TIP3    H158769   3.205   5.566   3.986 -0.1424 -2.0494 -0.4523
12426TIP3    H258770   3.307   5.583   4.097 -0.0433 -0.1481 -0.8171
12427TIP3   OH258771   3.527   1.383   1.484 -0.3837 -0.0243 -0.0198
12427TIP3    H158772   3.469   1.457   1.502 -0.4614 -0.1869  0.4137
12427TIP3    H258773   3.489   1.341   1.406  0.0185  0.7491 -0.6447
12428TIP3   OH258774   0.303   4.831  14.793 -0.0453  0.3366 -0.0025
12428TIP3    H158775   0.228   4.855  14.739 -0.4640 -2.3411 -0.7595
12428TIP3    H258776   0.267   4.774  14.861  1.0263  0.7380  0.9513
12429TIP3   OH258777   1.821   4.145   3.022  0.2981  0.2712  0.3885
12429TIP3    H158778   1.838   4.071   3.080  1.5218  1.2215  1.3137
12429TIP3    H258779   1.746   4.190   3.062  0.1491  0.0545  0.3521
12430TIP3   OH258780   2.249   4.878  11.378  0.0810  0.1784  0.1901
12430TIP3    H158781   2.259   4.935  11.303  1.2441 -0.2513 -0.0124
12430TIP3    H258782   2.292   4.925  11.450  0.6806 -0.2431  0.1181
12431TIP3   OH258783   4.564   6.583  12.102 -0.1063 -0.2839 -0.1182
12431TIP3    H158784   4.526   6.632  12.029 -0.0087  0.1622  0.1287
12431TIP3    H258785   4.582   6.649  12.168 -1.3546 -0.8299  0.8135
12432TIP3   OH258786   2.423   3.487  16.869 -0.2368 -0.3338  0.0391
12432TIP3    H158787   2.467   3.510  16.787 -0.5423  0.1640  0.0163
12432TIP3    H258788   2.367   3.562  16.889  0.5728 -0.0110  1.2179
12433TIP3   OH258789   1.432   3.753   4.998  0.0444  0.4066 -0.0772
12433TIP3    H158790   1.389   3.812   4.937 -0.4345 -0.0877 -0.2268
12433TIP3    H258791   1.378   3.674   4.997  0.5044  0.0799  0.3460
12434TIP3   OH258792   5.652   0.203  12.776  0.3815  0.2964 -0.6172
12434TIP3    H158793   5.705   0.271  12.818  0.3962  0.0334 -0.2119
12434TIP3    H258794   5.578   0.189  12.835  1.7710 -1.9791  0.7320
12435TIP3   OH258795   2.386   0.567  15.395  0.0595 -0.2814  0.1044
12435TIP3    H158796   2.370   0.473  15.386 -1.3310 -0.0179 -0.4252
12435TIP3    H258797   2.369   0.586  15.487  0.5371 -0.5796  0.2558
12436TIP3   OH258798   5.901   0.044  16.037  0.3863 -0.1302 -0.4631
12436TIP3    H158799   5.921  -0.048  16.054 -2.5614 -0.8565 -0.4943
12436TIP3    H258800   5.854   0.043  15.954  0.0185  1.3774 -0.2885
12437TIP3   OH258801   4.739   0.343  14.095  0.2307  1.1265  0.0825
12437TIP3    H158802   4.677   0.401  14.052  0.0463  1.1397  0.3665
12437TIP3    H258803   4.815   0.399  14.113  0.0347  1.2901  0.3980
12438TIP3   OH258804   3.243   3.252   2.330 -0.2799  0.3393 -0.2746
12438TIP3    H158805   3.329   3.239   2.370  0.4315  0.6455 -1.6198
12438TIP3    H258806   3.224   3.345   2.343 -0.6367  0.1687  0.4442
12439TIP3   OH258807   3.358   3.723   0.408 -0.3481  0.3372  0.0096
12439TIP3    H158808   3.319   3.694   0.325 -1.9008  1.3478  0.3452
12439TIP3    H258809   3.442   3.761   0.382 -0.4964  0.0115 -1.0166
12440TIP3   OH258810   0.084   5.850  13.581  0.2377  0.0765 -0.1572
12440TIP3    H158811   0.166   5.805  13.602 -0.1927 -1.9074 -2.2997
12440TIP3    H258812   0.017   5.801  13.628 -0.1643 -1.3307 -2.0468
12441TIP3   OH258813   1.031   6.224   5.700  0.2146  0.2402 -0.0941
12441TIP3    H158814   1.114   6.242   5.745  0.8106 -0.1903 -0.9889
12441TIP3    H258815   0.965   6.225   5.770  0.9741  0.5508  0.6381
12442TIP3   OH258816   1.184   4.081  15.245  0.6532  0.3486 -0.2151
12442TIP3    H158817   1.110   4.087  15.185 -0.5981  0.2121  1.2491
12442TIP3    H258818   1.213   3.990  15.239 -2.6572 -1.1628  2.8754
12443TIP3   OH258819   3.689   0.686   0.312  0.5062  0.4916  0.1330
12443TIP3    H158820   3.607   0.730   0.287  0.8728  0.0046 -2.1956
12443TIP3    H258821   3.737   0.753   0.360 -1.0216  0.9641  1.0863
12444TIP3   OH258822   1.602   6.640   0.456  0.0106  0.0372 -0.1502
12444TIP3    H158823   1.597   6.578   0.529  1.1201 -0.5223 -0.5333
12444TIP3    H258824   1.543   6.604   0.390 -0.2891  0.0503  0.1094
12445TIP3   OH258825   3.972   3.457   4.006 -0.5564  0.3881 -0.2447
12445TIP3    H158826   3.974   3.367   3.975 -1.0862  0.1064  0.5223
12445TIP3    H258827   4.006   3.508   3.932  0.2049 -0.4785 -0.5149
12446TIP3   OH258828   1.307   6.393   2.943 -0.7402 -0.2347  0.3152
12446TIP3    H158829   1.298   6.449   2.866  1.9317  0.9187  0.7163
12446TIP3    H258830   1.230   6.412   2.996 -0.8562  1.6559 -0.4566
12447TIP3   OH258831   6.521   5.723   0.647  0.3453 -0.4840  0.0341
12447TIP3    H158832   6.448   5.676   0.688 -0.4012  1.7598  1.4334
12447TIP3    H258833   6.545   5.668   0.572 -2.1317 -1.8117  0.0998
12448TIP3   OH258834   4.643   4.456   3.607  0.4890  0.0381 -0.0237
12448TIP3    H158835   4.579   4.387   3.623  1.8716 -1.1368  0.7670
12448TIP3    H258836   4.631   4.480   3.516 -0.5070 -0.7421 -0.1171
12449TIP3   OH258837   6.494   6.720   1.892 -0.0026  0.6680 -0.0472
12449TIP3    H158838   6.543   6.685   1.967  1.7019  2.8839 -0.0274
12449TIP3    H258839   6.545   6.693   1.815  0.0826  1.1655 -0.1698
12450TIP3   OH258840   1.603   2.134   6.443 -0.1558  0.7348 -0.4329
12450TIP3    H158841   1.518   2.141   6.487 -0.1512  1.8716 -0.5704
12450TIP3    H258842   1.615   2.219   6.401  0.3261  0.0432 -1.7533
12451TIP3   OH258843   1.088   4.979   0.608 -0.1278  0.6108  0.3135
12451TIP3    H158844   1.017   4.961   0.547 -0.3361  0.5367  0.5749
12451TIP3    H258845   1.092   5.075   0.613 -0.0866  0.6178  0.1594
12452TIP3   OH258846   2.800   4.192   5.736  0.3938  0.4479 -0.5012
12452TIP3    H158847   2.880   4.141   5.735  0.0338 -0.1953  0.9104
12452TIP3    H258848   2.754   4.163   5.814 -1.9137 -0.2486 -2.0214
12453TIP3   OH258849   3.716   2.619   5.340 -0.1875  0.2349  0.0968
12453TIP3    H158850   3.629   2.584   5.358 -0.1276  1.5360  4.0905
12453TIP3    H258851   3.776   2.547   5.363 -0.1777  0.2602  0.1511
12454TIP3   OH258852   0.366   6.071  12.230  0.3503 -0.2157  0.2389
12454TIP3    H158853   0.355   5.996  12.289 -1.7645  1.5627  2.2652
12454TIP3    H258854   0.439   6.120  12.268  0.4471 -0.2221  0.0597
12455TIP3   OH258855   0.167   1.084  14.663 -0.3755 -0.4849 -0.1492
12455TIP3    H158856   0.101   1.090  14.593 -1.2340  1.6195  0.7477
12455TIP3    H258857   0.239   1.139  14.632  0.8376 -2.3845 -0.9011
12456TIP3   OH258858   4.068   4.672  14.188  0.0883  0.2925  0.0105
12456TIP3    H158859   4.028   4.586  14.173 -0.6240  0.5673  0.3133
12456TIP3    H258860   4.017   4.710  14.259  1.5946  0.1951  1.2056
12457TIP3   OH258861   5.987   3.272  17.030  0.4114 -0.2315  0.0604
12457TIP3    H158862   6.012   3.181  17.013  0.3602 -0.1895 -0.2535
12457TIP3    H258863   5.926   3.293  16.959 -0.0498 -0.1466  0.4815
12458TIP3   OH258864   3.866   0.250   0.617 -0.4850 -0.1046  0.1103
12458TIP3    H158865   3.947   0.271   0.570  0.0962  0.6041  1.3864
12458TIP3    H258866   3.812   0.207   0.552  0.5478  0.2634 -1.0381
12459TIP3   OH258867   4.099   1.541   0.421  0.3031  0.0645 -0.1263
12459TIP3    H158868   4.100   1.519   0.328  0.4993  1.5947 -0.5050
12459TIP3    H258869   4.026   1.490   0.457  0.7483 -1.1840 -0.9364
12460TIP3   OH258870   4.432   4.528   0.964 -0.2090  0.3652  0.3713
12460TIP3    H158871   4.486   4.545   0.887  0.2816  1.8203  1.0087
12460TIP3    H258872   4.484   4.466   1.016 -0.4725 -0.4975 -0.3618
12461TIP3   OH258873   3.940   4.509  12.651 -0.0336 -0.0654 -0.4068
12461TIP3    H158874   3.956   4.416  12.634  0.3846 -0.2438  0.8745
12461TIP3    H258875   4.027   4.547  12.662 -0.1755  0.6115 -1.5257
12462TIP3   OH258876   0.457   5.824   0.610  0.8135  0.1520 -0.4718
12462TIP3    H158877   0.374   5.867   0.591  0.5022 -0.0532  0.3612
12462TIP3    H258878   0.436   5.759   0.677  1.2953 -1.2240 -1.6004
12463TIP3   OH258879   4.783   1.508   2.922 -0.8335 -0.1872 -0.2163
12463TIP3    H158880   4.708   1.456   2.949 -1.9377  1.8475  0.8938
12463TIP3    H258881   4.831   1.525   3.003 -0.0898 -0.1030 -0.6628
12464TIP3   OH258882   1.557   0.827   1.561 -0.2299  0.1489 -0.1994
12464TIP3    H158883   1.554   0.913   1.519 -0.8056  1.5816  2.5487
12464TIP3    H258884   1.641   0.827   1.608 -0.0729 -0.9646 -0.4606
12465TIP3   OH258885   3.559   6.366  16.942  0.1978 -0.0418  0.7208
12465TIP3    H158886   3.498   6.334  16.876  0.9779 -0.1679  0.0384
12465TIP3    H258887   3.530   6.455  16.962  0.3818  0.2735 -0.3545
12466TIP3   OH258888   5.374   6.249  13.124 -0.1425 -0.8380  0.3475
12466TIP3    H158889   5.350   6.156  13.122 -0.3560 -0.8326  1.8206
12466TIP3    H258890   5.369   6.274  13.216  1.5020  0.2445  0.1900
12467TIP3   OH258891   3.810   5.066  17.153  0.6484 -0.3556 -1.2750
12467TIP3    H158892   3.879   5.072  17.219 -0.8735  3.1126  0.2564
12467TIP3    H258893   3.822   5.143  17.098 -1.7403  0.2013 -1.1487
12468TIP3   OH258894   0.937   5.109   4.837 -0.2565 -0.1241  0.4083
12468TIP3    H158895   0.926   5.194   4.795 -2.4380 -0.1222  0.8555
12468TIP3    H258896   1.030   5.089   4.826 -0.0920  1.3512 -1.4968
12469TIP3   OH258897   0.565   3.024  15.619 -0.3635  0.2948  0.0860
12469TIP3    H158898   0.609   2.940  15.618 -0.2230  0.3706 -0.7912
12469TIP3    H258899   0.562   3.048  15.711  0.9658  0.0464  0.2175
12470TIP3   OH258900   4.999   5.394  16.499 -0.4794 -0.6072 -0.0353
12470TIP3    H158901   5.044   5.310  16.497  0.1872 -0.2424 -0.9666
12470TIP3    H258902   4.940   5.387  16.574  1.5589 -0.8878  1.6630
12471TIP3   OH258903   5.577   3.067   1.416  0.1335  0.0161 -0.5172
12471TIP3    H158904   5.512   3.029   1.357 -1.1645  0.6077  0.4796
12471TIP3    H258905   5.648   3.095   1.359 -0.9295  0.2723 -1.7693
12472TIP3   OH258906   0.159   3.778  16.729 -0.5056  0.0478  0.0245
12472TIP3    H158907   0.093   3.749  16.666  0.6555  0.2531 -1.3554
12472TIP3    H258908   0.210   3.699  16.747  1.7947  0.7312 -2.6640
12473TIP3   OH258909   5.483   2.166   1.062 -0.5053  0.2658  0.3830
12473TIP3    H158910   5.388   2.174   1.062 -0.5373 -0.0991  0.2138
12473TIP3    H258911   5.510   2.200   0.977 -0.6042 -0.9738 -0.1499
12474TIP3   OH258912   5.973   3.279  13.010  0.0311 -0.5412  0.0602
12474TIP3    H158913   5.938   3.190  13.009  1.3014 -1.1072  1.2389
12474TIP3    H258914   6.049   3.275  12.951 -0.3277 -0.0418 -0.4385
12475TIP3   OH258915   3.919   6.389   1.833  0.4482 -0.3155 -0.2395
12475TIP3    H158916   3.838   6.398   1.782 -0.2813 -2.6143  0.3870
12475TIP3    H258917   3.955   6.477   1.837 -0.2086  0.2411 -3.4775
12476TIP3   OH258918   4.347   6.528   3.618 -0.2282 -0.3262 -0.0725
12476TIP3    H158919   4.290   6.474   3.563 -2.2110  1.1198  0.4295
12476TIP3    H258920   4.356   6.479   3.700  1.5739 -1.8285 -1.0958
12477TIP3   OH258921   6.414   5.968   5.485  0.2684 -0.0268 -0.0370
12477TIP3    H158922   6.355   5.962   5.560  0.1602 -0.8068 -0.1793
12477TIP3    H258923   6.360   5.949   5.409  0.1324  1.8273 -0.4563
12478TIP3   OH258924   5.214   5.330   4.176  1.7405 -0.2671  0.1820
12478TIP3    H158925   5.173   5.389   4.239  3.3553 -0.8532  1.8736
12478TIP3    H258926   5.160   5.338   4.097  0.6288  1.7649  1.0656
12479TIP3   OH258927   3.221   2.681   2.448 -0.0186 -0.2483 -0.2324
12479TIP3    H158928   3.316   2.688   2.439  0.0833 -1.2864 -0.1748
12479TIP3    H258929   3.188   2.678   2.358  0.2777 -2.6236 -0.3332
12480TIP3   OH258930   4.971   2.749  15.820  0.3394  0.3387  0.2102
12480TIP3    H158931   4.958   2.697  15.899 -1.3746  0.8459  0.3203
12480TIP3    H258932   4.902   2.815  15.824  0.0864  0.2674 -1.7867
12481TIP3   OH258933   1.949   0.278  13.862 -0.1381  0.6823  0.9972
12481TIP3    H158934   1.857   0.301  13.872  0.1103  1.0210  2.9022
12481TIP3    H258935   1.977   0.251  13.949  1.0765 -1.3887  0.0557
12482TIP3   OH258936   4.468   0.122  14.537  0.1059  0.5189  0.3824
12482TIP3    H158937   4.546   0.119  14.593 -0.4021  0.0567  1.0800
12482TIP3    H258938   4.497   0.169  14.458  0.8695  1.0576  0.9677
12483TIP3   OH258939   1.190   2.525  11.712 -0.0932 -0.0736  0.2585
12483TIP3    H158940   1.151   2.597  11.762  1.1165 -0.9961  2.6338
12483TIP3    H258941   1.248   2.569  11.650 -0.0970  1.0473  1.0154
12484TIP3   OH258942   0.625   1.945  11.154  0.4058 -0.1924 -0.4206
12484TIP3    H158943   0.679   1.964  11.077  2.6689 -0.6590  0.9542
12484TIP3    H258944   0.654   2.009  11.219 -1.1946 -0.0628  0.2175
12485TIP3   OH258945   5.580   2.097   3.281 -0.6456 -0.1291 -0.5992
12485TIP3    H158946   5.493   2.110   3.318 -1.0872 -0.1555 -1.5962
12485TIP3    H258947   5.635   2.077   3.357 -0.9234  2.5397  0.4380
12486TIP3   OH258948   3.873   2.301   2.305 -0.5725  0.4251 -0.9729
12486TIP3    H158949   3.935   2.363   2.343 -1.0790  0.5045 -0.2635
12486TIP3    H258950   3.897   2.296   2.212  1.2249 -0.4127 -0.5039
12487TIP3   OH258951   4.771   2.018   5.376  0.2096 -0.0549 -0.0660
12487TIP3    H158952   4.770   2.097   5.322  2.1228 -0.6529 -1.0741
12487TIP3    H258953   4.799   1.948   5.316 -0.5955 -1.3576  0.9969
12488TIP3   OH258954   5.337   1.087   2.665 -0.0744  0.0503  0.1735
12488TIP3    H158955   5.247   1.086   2.631 -0.8244  4.4305  1.3994
12488TIP3    H258956   5.331   1.047   2.751 -1.0757  0.9577  0.5498
12489TIP3   OH258957   3.236   2.627  15.674 -0.0829 -0.0920  0.1251
12489TIP3    H158958   3.214   2.719  15.694  0.0984  0.1078 -0.5738
12489TIP3    H258959   3.332   2.626  15.669 -0.0605 -0.4176  0.5817
12490TIP3   OH258960   5.881   4.871  15.506 -0.1726 -0.4967  0.0708
12490TIP3    H158961   5.814   4.835  15.565 -0.5053  2.2296  1.5605
12490TIP3    H258962   5.851   4.961  15.489  2.0525  0.1162 -0.9676
12491TIP3   OH258963   6.524   0.358   5.565 -0.1518  0.4753  0.2433
12491TIP3    H158964   6.447   0.359   5.622  0.3014 -0.2209  0.8929
12491TIP3    H258965   6.535   0.265   5.541 -0.2724  0.7412 -0.9042
12492TIP3   OH258966   3.531   5.678   5.525 -0.0373 -0.2085 -0.1647
12492TIP3    H158967   3.513   5.648   5.615  0.7386 -1.9842 -0.5548
12492TIP3    H258968   3.456   5.733   5.503 -0.2507  0.2730  1.5648
12493TIP3   OH258969   2.448   1.308   5.850 -0.2304 -0.0824  0.3071
12493TIP3    H158970   2.539   1.325   5.825 -0.3189 -0.1129 -0.0388
12493TIP3    H258971   2.406   1.394   5.845 -0.5463 -0.2936 -0.8961
12494TIP3   OH258972   4.563   2.623  14.535 -1.0094  0.1586  0.0181
12494TIP3    H158973   4.564   2.549  14.473 -1.1065  0.2296 -0.0693
12494TIP3    H258974   4.611   2.591  14.611 -0.1987  0.3481 -0.4025
12495TIP3   OH258975   1.368   0.881  15.838  0.1305 -0.0722 -0.1726
12495TIP3    H158976   1.367   0.963  15.788  2.7359  0.6897  0.8448
12495TIP3    H258977   1.358   0.909  15.930  3.4599 -0.5324  0.4355
12496TIP3   OH258978   3.021   4.996  11.114 -0.6178  0.2551 -0.1247
12496TIP3    H158979   3.006   4.917  11.062 -0.6451  1.0484 -1.3328
12496TIP3    H258980   2.989   5.068  11.060 -0.1783  1.1486  0.7705
12497TIP3   OH258981   0.573   5.185   5.300  0.4281 -0.1566 -0.0478
12497TIP3    H158982   0.644   5.234   5.343  0.1714  1.9818 -1.9147
12497TIP3    H258983   0.514   5.162   5.372  0.3742  2.6484  0.9128
12498TIP3   OH258984   2.719   4.032  13.055  0.3815 -0.2071 -0.3847
12498TIP3    H158985   2.750   4.083  13.130  1.1384 -0.6499 -0.3791
12498TIP3    H258986   2.750   4.081  12.979  1.3362 -0.7744 -0.3767
12499TIP3   OH258987   3.522   3.180   6.014  0.3163 -0.3867  0.0179
12499TIP3    H158988   3.587   3.132   5.963 -0.1693  0.0001 -1.0046
12499TIP3    H258989   3.438   3.142   5.987 -0.0704  0.9409 -0.7402
12500TIP3   OH258990   6.234   1.451  16.657  0.2084 -0.1960 -0.2571
12500TIP3    H158991   6.311   1.506  16.675 -0.4816  0.3165  1.3810
12500TIP3    H258992   6.163   1.494  16.704 -0.9754 -0.9712 -1.2770
12501TIP3   OH258993   6.364   4.933   4.309  0.8301 -0.6603 -0.0510
12501TIP3    H158994   6.316   5.010   4.338  2.1069 -0.0438  0.5394
12501TIP3    H258995   6.406   4.900   4.389 -0.4287 -2.5411 -0.0972
12502TIP3   OH258996   0.831   4.550  11.781  0.3888 -0.7914 -0.0490
12502TIP3    H158997   0.791   4.472  11.743  0.3710 -0.6355 -0.3493
12502TIP3    H258998   0.760   4.589  11.833  0.1340 -0.4929 -0.6140
12503TIP3   OH258999   3.704   5.382   4.874 -0.2058 -0.5010  0.2751
12503TIP3    H159000   3.639   5.411   4.938  0.3889  2.0444 -0.1297
12503TIP3    H259001   3.754   5.462   4.854  0.7585 -1.6023 -2.0298
12504TIP3   OH259002   0.049   4.987  15.826  0.3304 -0.2037  0.1541
12504TIP3    H159003  -0.007   4.910  15.833 -0.6468  0.5887  1.7402
12504TIP3    H259004   0.064   4.999  15.732 -1.5832 -0.8615 -0.2731
12505TIP3   OH259005   3.580   5.990   3.865 -0.1393  0.0350  0.1244
12505TIP3    H159006   3.501   6.022   3.909 -0.7469 -0.4470 -0.6020
12505TIP3    H259007   3.639   6.065   3.867 -0.6034  0.3981  0.6933
12506TIP3   OH259008   1.261   4.032   4.197  0.5406 -0.4370 -0.2798
12506TIP3    H159009   1.172   3.998   4.209  0.4866 -0.1216  0.2525
12506TIP3    H259010   1.275   4.031   4.102  0.2069 -1.0851 -0.3265
12507TIP3   OH259011   1.270   0.628  10.207 -0.3589  0.2129  0.0227
12507TIP3    H159012   1.347   0.605  10.156 -1.1703 -0.0341 -1.1582
12507TIP3    H259013   1.234   0.544  10.236 -1.6314  0.0836 -1.7144
12508TIP3   OH259014   0.551   2.845  12.671  0.3724 -0.2886 -0.3092
12508TIP3    H159015   0.539   2.752  12.691 -0.9282  0.0998  0.9259
12508TIP3    H259016   0.637   2.850  12.631  0.4814 -2.0226 -0.3725
12509TIP3   OH259017   1.419   3.396   1.774  0.3220  0.6388 -0.2582
12509TIP3    H159018   1.368   3.387   1.693 -0.7637 -0.0576  0.4755
12509TIP3    H259019   1.420   3.490   1.791 -1.8781  0.6017  0.3895
12510TIP3   OH259020   4.788   2.476   3.756 -0.8296 -0.2127  0.0199
12510TIP3    H159021   4.805   2.531   3.833 -0.4594  0.6091 -0.6305
12510TIP3    H259022   4.715   2.520   3.712 -0.0868  0.1628 -0.8677
12511TIP3   OH259023   6.359   5.933   2.750 -0.1356 -0.0351  0.1063
12511TIP3    H159024   6.348   6.019   2.710 -1.0491 -0.4680 -0.5956
12511TIP3    H259025   6.327   5.944   2.840 -0.3140  0.3356 -0.0034
12512TIP3   OH259026   1.985   1.077  14.789 -0.1542 -0.2763  0.0157
12512TIP3    H159027   1.906   1.128  14.804  0.9660  0.8282  2.9566
12512TIP3    H259028   1.953   0.989  14.768 -2.1479  0.3579  0.1842
12513TIP3   OH259029   0.306   0.641   2.833 -0.4582  0.2698 -0.1184
12513TIP3    H159030   0.236   0.584   2.863 -1.2028  1.6810  0.9237
12513TIP3    H259031   0.380   0.619   2.890 -0.5432 -0.0655 -0.1323
12514TIP3   OH259032   0.679   6.669  12.809  0.1403  0.1167 -0.0060
12514TIP3    H159033   0.767   6.701  12.829 -0.0563 -0.8575  2.9294
12514TIP3    H259034   0.621   6.743  12.829  0.1747  0.1847 -0.1599
12515TIP3   OH259035   2.863   0.440  15.204 -0.4754  0.5585 -0.0793
12515TIP3    H159036   2.821   0.492  15.273  1.3266  0.3991  1.2178
12515TIP3    H259037   2.943   0.407  15.245  0.4012  0.0232 -2.1146
12516TIP3   OH259038   1.254   5.931   1.979  0.4208  0.0284  0.0016
12516TIP3    H159039   1.204   5.851   1.975 -0.6133  0.5757  1.2752
12516TIP3    H259040   1.336   5.906   2.023  0.0124 -0.2966  0.5932
12517TIP3   OH259041   5.604   6.000  12.535  0.2759 -0.4347  0.0177
12517TIP3    H159042   5.588   6.055  12.459  0.8688 -1.4716 -0.8896
12517TIP3    H259043   5.616   6.062  12.607  0.2513  0.5889 -0.8275
12518TIP3   OH259044   1.350   5.153  12.454  0.3359 -0.1243 -0.1991
12518TIP3    H159045   1.315   5.085  12.396  1.4767 -1.5281  0.6851
12518TIP3    H259046   1.298   5.146  12.534  0.2049  0.3183 -0.2430
12519TIP3   OH259047   3.189   1.432  14.111  0.3467 -0.1236  0.2362
12519TIP3    H159048   3.264   1.383  14.076  1.5622  1.4401  0.5160
12519TIP3    H259049   3.153   1.478  14.035 -1.2210 -1.8987 -0.1601
12520TIP3   OH259050   6.308   4.743   2.967 -0.0046 -0.3904  0.0959
12520TIP3    H159051   6.219   4.725   2.997  0.2147 -1.7224  0.0337
12520TIP3    H259052   6.363   4.726   3.044  0.2447 -0.1860 -0.0366
12521TIP3   OH259053   6.066   1.773   2.803  0.1989 -0.0216  0.4176
12521TIP3    H159054   6.094   1.845   2.747 -0.1245 -0.2998 -0.1148
12521TIP3    H259055   6.048   1.701   2.742 -1.0370 -0.0501  0.7898
12522TIP3   OH259056   0.052   1.114  16.791  0.3392  0.5203 -0.0220
12522TIP3    H159057   0.082   1.029  16.760 -0.2407  1.1104 -2.3860
12522TIP3    H259058   0.102   1.177  16.739 -0.4660  1.5897  0.4729
12523TIP3   OH259059   1.064   2.219   4.244 -0.2425  0.2413  0.1170
12523TIP3    H159060   1.068   2.200   4.150  0.6984  0.2173  0.1497
12523TIP3    H259061   1.101   2.141   4.286 -1.8921 -0.3371  0.6104
12524TIP3   OH259062   2.725   1.308   4.376 -0.9013 -0.7497 -0.4173
12524TIP3    H159063   2.688   1.305   4.464 -0.1929  0.2054 -0.0727
12524TIP3    H259064   2.668   1.370   4.328 -0.1890  0.1892 -0.0812
12525TIP3   OH259065   1.474   2.366   3.052  0.7852  0.4723  0.0941
12525TIP3    H159066   1.558   2.411   3.055  0.2367  1.5695 -0.5969
12525TIP3    H259067   1.449   2.367   2.959  0.0149  0.1320  0.2888
12526TIP3   OH259068   6.738   5.618   2.203  0.0734  0.3382  0.0119
12526TIP3    H159069   6.644   5.606   2.218  0.0346 -0.3452 -0.7221
12526TIP3    H259070   6.744   5.701   2.155 -0.2626 -0.1277 -0.8731
12527TIP3   OH259071   0.107   5.199   2.231  0.2550  0.5302  0.2226
12527TIP3    H159072   0.041   5.256   2.269 -0.7799 -0.8898  0.6400
12527TIP3    H259073   0.084   5.111   2.261 -0.0741 -0.5835 -2.8894
12528TIP3   OH259074   3.846   1.644  13.317 -0.4908  0.2265  0.1976
12528TIP3    H159075   3.862   1.578  13.385  0.7595  0.8721  0.5648
12528TIP3    H259076   3.779   1.701  13.354 -0.5017  0.0274  0.4913
12529TIP3   OH259077   2.196   5.620   1.235 -0.3810 -0.4129  0.0398
12529TIP3    H159078   2.290   5.615   1.218 -0.6507  0.1465 -1.7642
12529TIP3    H259079   2.189   5.603   1.329  1.2999 -2.8750 -0.1671
12530TIP3   OH259080   1.273   3.709  11.378  0.1898 -1.0214 -0.3699
12530TIP3    H159081   1.180   3.696  11.394  0.1405 -0.0850  0.1848
12530TIP3    H259082   1.317   3.642  11.430 -0.1008 -0.0047  1.2566
12531TIP3   OH259083   0.537   2.763  13.286  0.1074  1.1635  0.2608
12531TIP3    H159084   0.611   2.785  13.228 -1.1573  0.5189 -1.6898
12531TIP3    H259085   0.491   2.846  13.298  0.5016  1.3442  0.5649
12532TIP3   OH259086   2.521   6.068   1.055  0.1309  0.1577  0.0645
12532TIP3    H159087   2.523   5.998   1.120 -2.7974 -0.2801 -0.1534
12532TIP3    H259088   2.519   6.021   0.971 -2.1610  0.3768 -0.0755
12533TIP3   OH259089   5.291   3.233   3.488  0.2541 -0.1878  0.8494
12533TIP3    H159090   5.303   3.276   3.404 -2.1798 -1.4575 -0.2611
12533TIP3    H259091   5.236   3.293   3.539  1.7000  0.5663  1.5855
12534TIP3   OH259092   1.226   2.654  15.413 -0.1963 -0.0336 -0.2382
12534TIP3    H159093   1.310   2.672  15.455  0.0405 -0.4506 -0.5238
12534TIP3    H259094   1.226   2.559  15.400 -0.6887 -0.0286 -0.2879
12535TIP3   OH259095   1.979   3.286  12.605  0.5005  0.1036 -0.2727
12535TIP3    H159096   2.048   3.351  12.620  0.5298  0.2123 -0.8601
12535TIP3    H259097   1.913   3.332  12.554  0.9569 -0.5679 -1.5212
12536TIP3   OH259098   1.421   6.629   2.338  0.0569  0.2301  0.7279
12536TIP3    H159099   1.365   6.638   2.261  1.4179 -0.7560 -0.4429
12536TIP3    H259100   1.429   6.535   2.352  0.1615  0.3825  1.8439
12537TIP3   OH259101   2.529   1.081  11.696  0.1304  0.3980 -0.6367
12537TIP3    H159102   2.502   1.172  11.686  0.0140  0.3241 -1.0228
12537TIP3    H259103   2.489   1.036  11.621  2.2466  0.4881 -1.8991
12538TIP3   OH259104   4.971   1.177  13.795  0.4651 -0.1089 -0.1118
12538TIP3    H159105   5.002   1.255  13.842 -1.3473  0.3219  0.4526
12538TIP3    H259106   5.037   1.111  13.812  0.8470  0.6184  1.4418
12539TIP3   OH259107   6.775   2.637  12.184  0.4817 -0.2084 -0.1544
12539TIP3    H159108   6.816   2.723  12.173 -0.4857  0.4146  0.9179
12539TIP3    H259109   6.764   2.605  12.095  1.1208  0.6545 -0.5632
12540TIP3   OH259110   4.684   4.940   2.060  0.2838 -0.2825 -0.1365
12540TIP3    H159111   4.632   5.016   2.034 -1.1899 -1.3927 -0.5660
12540TIP3    H259112   4.685   4.944   2.156  0.0773  0.1831 -0.1486
12541TIP3   OH259113   2.510   4.287  15.203  0.0828  0.3019  0.2808
12541TIP3    H159114   2.569   4.318  15.135 -0.0777  0.6689  0.3041
12541TIP3    H259115   2.505   4.193  15.190  0.9404  0.2158  0.4891
12542TIP3   OH259116   0.972   6.200  16.397  0.3826 -0.3958 -0.7360
12542TIP3    H159117   0.942   6.259  16.466  0.9652  0.6189 -1.3180
12542TIP3    H259118   1.053   6.240  16.366  1.1448 -1.8626 -0.7178
12543TIP3   OH259119   5.325   5.580   5.715  0.0214 -0.9888 -0.2133
12543TIP3    H159120   5.420   5.577   5.720  0.0465  1.1589  1.8787
12543TIP3    H259121   5.305   5.665   5.675 -1.0427 -1.1532 -0.0667
12544TIP3   OH259122   5.559   0.200  16.619  0.2804 -0.0199 -0.3296
12544TIP3    H159123   5.602   0.116  16.605 -0.1625 -0.3558  0.2515
12544TIP3    H259124   5.478   0.195  16.568 -1.1449 -1.0950  1.8871
12545TIP3   OH259125   1.574   2.655   2.331  0.1880 -0.2977 -0.3596
12545TIP3    H159126   1.533   2.581   2.288 -1.0627  0.1990 -0.0825
12545TIP3    H259127   1.627   2.697   2.264 -3.0392  1.4738 -2.0397
12546TIP3   OH259128   0.287   0.840  13.595 -0.3210  0.7728 -0.3073
12546TIP3    H159129   0.375   0.865  13.567  0.3501 -1.1339 -0.0315
12546TIP3    H259130   0.275   0.884  13.679  1.2746 -0.6426  0.7253
12547TIP3   OH259131   0.354   1.893  11.253  0.1390 -0.1347  0.3690
12547TIP3    H159132   0.317   1.978  11.231 -0.4743 -0.9396 -1.9627
12547TIP3    H259133   0.436   1.888  11.203  0.9480 -0.3509  1.6583
12548TIP3   OH259134   4.771   6.299   4.665 -0.3426 -0.5079  0.1740
12548TIP3    H159135   4.827   6.234   4.622  2.0552  1.6764 -0.2917
12548TIP3    H259136   4.817   6.320   4.746 -1.8812 -0.4735  1.0688
12549TIP3   OH259137   5.308   5.354  15.594 -0.3957  0.1658 -0.0408
12549TIP3    H159138   5.266   5.271  15.616 -0.3636  0.1180 -0.1578
12549TIP3    H259139   5.395   5.330  15.562  0.7887  0.3910  2.6775
12550TIP3   OH259140   6.747   6.521  16.659  0.2222  0.2248  1.0369
12550TIP3    H159141   6.791   6.437  16.647 -1.7474 -1.0722  2.3136
12550TIP3    H259142   6.693   6.509  16.737 -2.5184  1.6056 -0.5062
12551TIP3   OH259143   1.485   1.319   4.607 -0.1043  0.3938 -0.1610
12551TIP3    H159144   1.464   1.245   4.551 -0.3949  0.6926 -0.4559
12551TIP3    H259145   1.554   1.287   4.665  0.1738  0.0684 -0.6620
12552TIP3   OH259146   5.262   3.961  15.395 -0.2983 -0.5767  0.5872
12552TIP3    H159147   5.357   3.955  15.400 -0.1549  1.0381  0.1867
12552TIP3    H259148   5.235   3.878  15.355  1.0590 -0.5144 -0.5222
12553TIP3   OH259149   2.260   1.508  11.463  0.2982 -0.0195 -0.0336
12553TIP3    H159150   2.293   1.585  11.416  0.4932 -0.9311 -1.4551
12553TIP3    H259151   2.165   1.517  11.460  0.1969 -1.1064 -2.5626
12554TIP3   OH259152   1.109   3.946   3.017 -0.0542 -0.1289 -0.0675
12554TIP3    H159153   1.016   3.969   3.012  0.1050  0.4390 -0.6298
12554TIP3    H259154   1.117   3.869   2.960 -0.5119 -1.3700  1.4856
12555TIP3   OH259155   4.271   2.889  15.297 -0.6269 -0.6358  0.6430
12555TIP3    H159156   4.231   2.856  15.378  1.1360 -1.8262  1.0843
12555TIP3    H259157   4.344   2.830  15.280  0.8963  1.3508 -0.1706
12556TIP3   OH259158   3.304   1.237   1.930  0.6798  0.6934 -0.5448
12556TIP3    H159159   3.365   1.261   2.000 -0.2361  2.3392 -0.2572
12556TIP3    H259160   3.234   1.189   1.974  2.1548 -2.1392 -1.0192
12557TIP3   OH259161   2.913   2.503  11.178 -0.3719  0.5393  0.3459
12557TIP3    H159162   2.892   2.570  11.113 -0.9734  2.0346  2.0137
12557TIP3    H259163   2.841   2.439  11.170 -0.6793  0.9359 -0.1439
12558TIP3   OH259164   5.668   1.097  13.158  0.8929  0.3424 -0.3435
12558TIP3    H159165   5.658   1.090  13.252 -0.2281  1.7015 -0.3233
12558TIP3    H259166   5.612   1.028  13.122  0.2832  0.6604 -0.0204
12559TIP3   OH259167   6.011   2.953   5.218 -0.1165 -0.4266  0.4341
12559TIP3    H159168   6.086   2.893   5.214 -0.1603 -0.4945  0.5989
12559TIP3    H259169   5.935   2.899   5.198 -0.0668 -0.2439 -0.2658
12560TIP3   OH259170   6.618   4.336   2.204  0.2389 -0.3338  0.4415
12560TIP3    H159171   6.630   4.423   2.242  1.3129  0.6026 -1.8718
12560TIP3    H259172   6.702   4.293   2.217  1.1994  0.5820 -2.0946
12561TIP3   OH259173   2.590   1.999   2.754 -0.0043  0.2005  0.3773
12561TIP3    H159174   2.508   2.032   2.717  1.0712  1.6227 -0.9067
12561TIP3    H259175   2.654   2.068   2.734  1.6411 -1.1655  0.7138
12562TIP3   OH259176   6.567   3.009   4.028  0.2909 -0.1282  0.1923
12562TIP3    H159177   6.552   2.920   3.995 -0.2627  0.3558 -0.9132
12562TIP3    H259178   6.597   3.058   3.951 -2.2145  1.3418  0.0272
12563TIP3   OH259179   0.539   4.722   3.725 -0.1091  0.3304  0.2559
12563TIP3    H159180   0.622   4.690   3.761 -0.2908  1.0693  1.3610
12563TIP3    H259181   0.547   4.817   3.727 -0.1526  0.4046 -1.6484
12564TIP3   OH259182   3.660   6.688   2.679 -0.9734  0.7173 -0.6959
12564TIP3    H159183   3.628   6.598   2.679 -1.6361  0.9336  0.0484
12564TIP3    H259184   3.646   6.718   2.769 -0.2561  1.3926 -0.7976
12565TIP3   OH259185   4.998   4.187   3.162 -0.2275  0.0539 -0.5504
12565TIP3    H159186   4.919   4.173   3.214  0.8742  1.5942  1.7181
12565TIP3    H259187   4.987   4.132   3.085 -3.4071  0.0930 -0.2365
12566TIP3   OH259188   3.799   2.198  11.952 -0.3870  0.0356 -0.0156
12566TIP3    H159189   3.854   2.221  12.027 -0.4361 -1.0357  0.3689
12566TIP3    H259190   3.860   2.164  11.887 -0.4323  0.2507 -0.1723
12567TIP3   OH259191   5.965   1.284   3.517  0.8829  0.1711  0.2819
12567TIP3    H159192   6.053   1.319   3.509  1.4767 -1.0068  1.3019
12567TIP3    H259193   5.972   1.215   3.583 -0.6411 -0.4726 -0.1676
12568TIP3   OH259194   1.194   6.585   2.197 -0.4477 -0.2279  0.1381
12568TIP3    H159195   1.106   6.553   2.214 -0.3724 -0.5199 -0.0182
12568TIP3    H259196   1.237   6.514   2.149 -0.1719 -0.0331  0.0926
12569TIP3   OH259197   0.526   5.517  11.899  0.0547 -0.2282 -0.2490
12569TIP3    H159198   0.605   5.539  11.850  0.0115 -2.0375 -1.2338
12569TIP3    H259199   0.537   5.558  11.984  2.6297 -1.3954  0.0723
12570TIP3   OH259200   0.229   2.780  13.546  0.2436 -0.2540 -0.3799
12570TIP3    H159201   0.264   2.778  13.635 -1.7318 -0.3716  0.4373
12570TIP3    H259202   0.228   2.688  13.519  2.7176 -0.0900 -1.3854
12571TIP3   OH259203   1.101   0.238   3.219 -0.2236  0.2594  0.2225
12571TIP3    H159204   1.176   0.182   3.198 -0.7301 -0.3031 -0.1181
12571TIP3    H259205   1.078   0.215   3.309 -0.4469 -0.0925  0.0738
12572TIP3   OH259206   1.852   6.416   6.506 -0.4083  0.5232  0.2633
12572TIP3    H159207   1.774   6.436   6.454 -1.7812  0.4494  2.1995
12572TIP3    H259208   1.922   6.465   6.463 -2.0016  2.6227 -0.1182
12573TIP3   OH259209   1.153   6.732  13.004 -0.3375 -0.3711  0.1951
12573TIP3    H159210   1.132   6.697  13.090  0.2261  2.2295  1.4981
12573TIP3    H259211   1.069   6.737  12.958 -0.9199 -0.1946  1.2555
12574TIP3   OH259212   1.710   5.565   5.939 -0.3436  0.0236  0.1716
12574TIP3    H159213   1.653   5.500   5.978 -0.6539  0.0704 -0.1914
12574TIP3    H259214   1.724   5.534   5.849 -1.4768  1.0666 -0.3856
12575TIP3   OH259215   1.406   4.995  12.140 -0.6461  0.5726  0.0635
12575TIP3    H159216   1.413   4.981  12.046  0.6045  1.8001 -0.0528
12575TIP3    H259217   1.405   5.090  12.151  2.6262  0.5606  1.4463
12576TIP3   OH259218   1.953   5.081   1.253  0.6725  0.4274 -0.1858
12576TIP3    H159219   2.008   5.099   1.330  0.0173  0.0331  0.3884
12576TIP3    H259220   1.864   5.093   1.285  0.2989 -1.5722 -0.3825
12577TIP3   OH259221   1.168   1.117  13.757 -0.0833  0.3875  0.0155
12577TIP3    H159222   1.218   1.130  13.838  0.3210  1.7505 -0.4234
12577TIP3    H259223   1.234   1.093  13.692 -0.7022 -3.8308  0.6235
12578TIP3   OH259224   4.654   0.581   1.654 -0.2226 -0.4916  0.5037
12578TIP3    H159225   4.601   0.633   1.594  0.7049  1.4550  1.2730
12578TIP3    H259226   4.690   0.510   1.600  0.5638  1.1601 -1.2852
12579TIP3   OH259227   3.981   3.783   0.082  0.5001 -0.4085  0.2288
12579TIP3    H159228   4.019   3.696   0.069  2.2508 -0.2727  3.4407
12579TIP3    H259229   3.936   3.778   0.166 -0.3987  1.4741 -0.0827
12580TIP3   OH259230   2.450   5.404   5.540 -0.1502 -0.2601  0.0815
12580TIP3    H159231   2.375   5.419   5.482 -0.1820  1.6648  0.5758
12580TIP3    H259232   2.471   5.311   5.528 -0.0548  0.0784 -3.1174
12581TIP3   OH259233   0.247   0.723   1.402 -0.2845 -0.6152 -0.4054
12581TIP3    H159234   0.339   0.710   1.425  0.3391 -1.1341 -2.8916
12581TIP3    H259235   0.233   0.666   1.326 -2.7393 -0.7258  0.0612
12582TIP3   OH259236   6.067   2.237  11.880  0.0946 -0.2638  0.2735
12582TIP3    H159237   6.129   2.294  11.836 -1.0015  1.9528  1.4618
12582TIP3    H259238   6.111   2.211  11.961  0.5369 -1.0126 -0.1992
12583TIP3   OH259239   4.565   0.838  16.846  0.2236  0.2933  0.5844
12583TIP3    H159240   4.613   0.838  16.929 -0.2747 -3.7750  1.1129
12583TIP3    H259241   4.477   0.867  16.869  0.1382 -0.6303  1.5138
12584TIP3   OH259242   3.105   4.106   2.736  0.0121  0.3482 -0.2221
12584TIP3    H159243   3.091   4.051   2.659 -0.8183 -0.5513  0.5526
12584TIP3    H259244   3.195   4.137   2.727  0.7433 -1.7023 -0.3292
12585TIP3   OH259245   6.217   5.943  14.910  0.1752  0.3010  0.1252
12585TIP3    H159246   6.212   5.893  14.992  1.2307 -1.2594 -0.6977
12585TIP3    H259247   6.301   5.989  14.916  0.6096 -0.4038 -0.3632
12586TIP3   OH259248   6.617   1.824  14.030 -0.4971  0.5222 -0.0299
12586TIP3    H159249   6.699   1.857  13.995 -0.0355  1.5206  1.8678
12586TIP3    H259250   6.560   1.814  13.954  1.4427 -0.4720 -1.4210
12587TIP3   OH259251   5.475   6.367   5.657  0.5692  0.4090 -0.3137
12587TIP3    H159252   5.391   6.395   5.620  0.3993  1.2087  0.6612
12587TIP3    H259253   5.483   6.275   5.629 -1.1283 -0.0088  0.4566
12588TIP3   OH259254   1.871   1.706   5.611  0.3007  0.3692  0.1922
12588TIP3    H159255   1.948   1.701   5.668 -0.1087 -1.1186  0.6393
12588TIP3    H259256   1.796   1.694   5.670 -0.1267 -1.2678 -0.6337
12589TIP3   OH259257   4.388   2.261   0.358  0.1277  0.4113  0.1889
12589TIP3    H159258   4.461   2.200   0.353  0.4866  0.7632  0.8873
12589TIP3    H259259   4.310   2.207   0.345  0.5402  0.1479 -1.2708
12590TIP3   OH259260   0.302   2.331   1.567 -0.3673 -0.1634 -0.6593
12590TIP3    H159261   0.387   2.294   1.542 -0.0626 -0.9226  1.3523
12590TIP3    H259262   0.239   2.262   1.548 -0.1173 -0.7969  0.6890
12591TIP3   OH259263   1.737   5.518   3.779  0.1247 -0.1274  0.0836
12591TIP3    H159264   1.642   5.533   3.783  0.1397 -0.0856  0.3407
12591TIP3    H259265   1.755   5.502   3.687 -0.4468 -2.1811  0.2795
12592TIP3   OH259266   6.592   4.677  16.614  0.3926 -0.1624  0.5821
12592TIP3    H159267   6.538   4.664  16.692  0.6591  1.8696  1.1509
12592TIP3    H259268   6.671   4.625  16.631 -0.3474 -1.2535  0.7877
12593TIP3   OH259269   3.465   0.800   4.170  0.2493  0.0864 -0.0679
12593TIP3    H159270   3.528   0.739   4.133  2.5066  1.8109  0.7089
12593TIP3    H259271   3.516   0.856   4.229 -1.6985  2.5372 -0.5072
12594TIP3   OH259272   4.554   6.466   5.397 -0.4035 -0.3208  0.1664
12594TIP3    H159273   4.582   6.554   5.370 -0.4933  0.5531  2.6456
12594TIP3    H259274   4.461   6.463   5.374 -0.3368  0.1289 -0.1839
12595TIP3   OH259275   6.145   3.262  14.892  0.4478 -0.5459 -0.0592
12595TIP3    H159276   6.075   3.208  14.928 -0.9346 -0.9881 -3.0575
12595TIP3    H259277   6.215   3.200  14.873  0.2868 -0.7071 -0.1425
12596TIP3   OH259278   5.362   0.418  14.783 -0.8517  0.2335 -0.4459
12596TIP3    H159279   5.315   0.411  14.700 -1.4891  1.7525 -0.2508
12596TIP3    H259280   5.293   0.432  14.848 -0.2549  0.9138  0.0596
12597TIP3   OH259281   3.215   1.923   5.007  0.0661  0.3859 -0.2771
12597TIP3    H159282   3.226   1.971   5.089  1.1752 -2.6457  1.5175
12597TIP3    H259283   3.292   1.866   5.002 -0.8076 -0.7253 -2.5992
12598TIP3   OH259284   3.254   4.996   5.429  0.2017  1.1768 -0.3846
12598TIP3    H159285   3.320   5.065   5.437 -0.8041  2.1919 -0.4302
12598TIP3    H259286   3.230   4.998   5.336  0.9496 -0.0255 -0.6271
12599TIP3   OH259287   1.214   4.241   5.021 -0.3877  0.0230  0.7237
12599TIP3    H159288   1.276   4.312   5.002  0.6972 -1.5634 -2.3880
12599TIP3    H259289   1.128   4.282   5.014  0.1970  1.8583  3.1828
12600TIP3   OH259290   4.103   5.350  16.388 -0.1349 -0.4499  0.3869
12600TIP3    H159291   4.120   5.360  16.294 -1.5176 -2.4981 -0.1594
12600TIP3    H259292   4.188   5.326  16.425  0.5725  1.0777 -0.2021
12601TIP3   OH259293   0.884   2.904  13.363 -0.1910  0.1290  0.6959
12601TIP3    H159294   0.865   2.922  13.455  0.7028  1.4067  0.6531
12601TIP3    H259295   0.907   2.811  13.361  2.4163  0.6498  2.2726
12602TIP3   OH259296   2.909   6.574  12.952  0.0856 -0.1026  0.1869
12602TIP3    H159297   2.897   6.486  12.989  1.4842 -0.6086 -0.4735
12602TIP3    H259298   2.842   6.581  12.884 -0.2193 -0.5427  0.4384
12603TIP3   OH259299   4.628   5.702  14.002 -0.1461 -0.7992 -0.2133
12603TIP3    H159300   4.562   5.653  13.953 -0.9236  1.0733 -1.1155
12603TIP3    H259301   4.621   5.668  14.092 -0.5781 -2.3625 -0.8011
12604TIP3   OH259302   6.234   4.816   4.110 -0.3700 -0.3152  0.2655
12604TIP3    H159303   6.172   4.883   4.083  1.1790  0.5495 -1.4074
12604TIP3    H259304   6.270   4.848   4.193 -2.1600 -0.8997  1.3332
12605TIP3   OH259305   2.192   3.575   5.373  0.1863 -0.3792  0.3728
12605TIP3    H159306   2.165   3.484   5.386  0.1316 -0.3271  0.6210
12605TIP3    H259307   2.236   3.599   5.455 -0.8470  0.1933  0.7781
12606TIP3   OH259308   1.037   3.967  16.742 -0.2465 -0.5249  0.0269
12606TIP3    H159309   1.079   3.938  16.662 -0.2828  0.4862 -0.3709
12606TIP3    H259310   1.096   3.938  16.812  0.1977 -0.6882 -0.4117
12607TIP3   OH259311   1.946   2.398  13.896  0.4994 -0.1618 -0.0067
12607TIP3    H159312   1.858   2.433  13.911 -0.1902 -2.2262  1.3372
12607TIP3    H259313   2.001   2.442  13.960  0.2080  0.2914 -0.0621
12608TIP3   OH259314   2.504   2.824  13.517  0.0023  0.5632 -0.0896
12608TIP3    H159315   2.537   2.894  13.573  0.1397  0.1971  0.2950
12608TIP3    H259316   2.424   2.795  13.560 -0.2773  0.7529 -0.4677
12609TIP3   OH259317   0.936   4.322  12.220 -0.4134  0.2933 -0.3552
12609TIP3    H159318   0.879   4.368  12.282 -1.3900  1.5096 -2.0518
12609TIP3    H259319   0.956   4.388  12.153 -0.0757 -1.1759 -1.7656
12610TIP3   OH259320   1.693   6.527   1.758  0.3878 -0.1718  0.3671
12610TIP3    H159321   1.628   6.456   1.755  0.6263 -0.3665 -0.4379
12610TIP3    H259322   1.774   6.484   1.781  0.5094 -0.1529 -0.0089
12611TIP3   OH259323   0.599   6.636   4.385  0.5187 -0.0345 -0.3995
12611TIP3    H159324   0.595   6.584   4.304  1.1763 -0.3730 -0.2242
12611TIP3    H259325   0.654   6.585   4.443  0.6077  0.5366  0.0270
12612TIP3   OH259326   4.259   1.662  12.581  0.0779  0.6620  0.0336
12612TIP3    H159327   4.325   1.703  12.524  0.8899 -0.6886 -0.0274
12612TIP3    H259328   4.300   1.660  12.668 -0.7380  1.7290  0.4818
12613TIP3   OH259329   1.276   4.180  16.953  0.4443 -0.0966  0.0964
12613TIP3    H159330   1.275   4.085  16.939  1.3202  0.0084 -0.7760
12613TIP3    H259331   1.368   4.205  16.943  0.0677  1.0049 -0.8475
12614TIP3   OH259332   6.340   2.617  12.561  0.6403 -0.3047  0.3620
12614TIP3    H159333   6.428   2.639  12.594  0.0248  0.1268  1.8055
12614TIP3    H259334   6.343   2.522  12.551  1.2467 -0.3083  0.4993
12615TIP3   OH259335   0.227   3.753  12.500  0.8352  0.2223 -0.0601
12615TIP3    H159336   0.168   3.827  12.492 -0.2759 -0.6824 -0.4233
12615TIP3    H259337   0.291   3.781  12.566  1.2851  2.0262 -1.1815
12616TIP3   OH259338   6.404   2.413   2.409  0.2557 -0.7519  0.0457
12616TIP3    H159339   6.388   2.434   2.501 -0.9603 -0.3330 -0.2469
12616TIP3    H259340   6.346   2.340   2.390  0.6166 -0.9425 -0.3467
12617TIP3   OH259341   5.992   3.294   1.665 -0.3105  0.0069 -0.1992
12617TIP3    H159342   6.078   3.269   1.630 -0.4188 -1.2688  0.4165
12617TIP3    H259343   6.009   3.374   1.715  1.0876 -1.6678  2.2157
12618TIP3   OH259344   1.896   4.809  16.537  0.0222  0.0786 -0.0062
12618TIP3    H159345   1.865   4.878  16.595 -0.8978 -0.5534  0.2808
12618TIP3    H259346   1.912   4.735  16.595 -1.2844 -0.6869 -0.5710
12619TIP3   OH259347   2.271   6.211  14.741  0.3179  0.0841  0.4092
12619TIP3    H159348   2.304   6.172  14.822  0.6443 -0.5920 -0.0394
12619TIP3    H259349   2.350   6.238  14.693  0.1295  0.4343  0.2908
12620TIP3   OH259350   6.404   1.445   1.182 -0.0561  0.2544 -0.1759
12620TIP3    H159351   6.313   1.477   1.186 -0.1630 -0.0977  0.2559
12620TIP3    H259352   6.396   1.353   1.159  0.2235  0.3751 -0.7480
12621TIP3   OH259353   4.656   3.101  13.496  0.5937 -0.0132 -0.0789
12621TIP3    H159354   4.665   3.189  13.459 -0.2306 -0.5345 -1.5768
12621TIP3    H259355   4.736   3.056  13.469 -0.0836 -0.4453 -1.4293
12622TIP3   OH259356   4.141   5.561   2.023  0.4446  0.0211  0.1431
12622TIP3    H159357   4.133   5.544   2.117 -1.7858 -3.3174 -0.4589
12622TIP3    H259358   4.205   5.496   1.993 -0.2183 -0.1936 -0.8558
12623TIP3   OH259359   4.395   2.205   0.971 -0.6589 -0.3969  0.4110
12623TIP3    H159360   4.402   2.169   1.060  0.3065 -2.6688 -0.5295
12623TIP3    H259361   4.312   2.170   0.938  0.7576 -2.7922 -0.8678
12624TIP3   OH259362   3.317   2.677  15.392 -0.2189 -0.4076 -0.4744
12624TIP3    H159363   3.222   2.691  15.384 -0.1222  0.7692  0.1722
12624TIP3    H259364   3.349   2.687  15.302 -0.5029  1.1068 -0.4410
12625TIP3   OH259365   0.811   1.486   1.719  0.1503  0.1708  0.0460
12625TIP3    H159366   0.889   1.461   1.669 -1.5248 -3.6541 -0.9659
12625TIP3    H259367   0.749   1.517   1.653 -0.2629  0.2422  0.4609
12626TIP3   OH259368   1.721   3.883   1.140  0.2751  0.2337 -0.2377
12626TIP3    H159369   1.686   3.863   1.054  0.0486 -2.2587  0.3750
12626TIP3    H259370   1.816   3.869   1.132  0.3876  0.9693 -0.3074
12627TIP3   OH259371   3.561   0.709   5.612 -0.5911  0.2860 -0.6867
12627TIP3    H159372   3.547   0.743   5.701  1.3101  2.4943 -1.1278
12627TIP3    H259373   3.549   0.785   5.555 -1.0116 -0.9185 -2.2823
12628TIP3   OH259374   0.060   3.519  14.229 -0.1966  0.0109 -0.0470
12628TIP3    H159375   0.061   3.602  14.279 -0.3852  0.3953 -0.6751
12628TIP3    H259376   0.062   3.451  14.297  0.7465  0.5275  0.4620
12629TIP3   OH259377   0.692   2.166   2.029  0.4570  0.9482 -0.1642
12629TIP3    H159378   0.777   2.201   2.004  1.8943 -1.6243  0.7401
12629TIP3    H259379   0.686   2.183   2.123 -0.1535  1.3263 -0.2674
12630TIP3   OH259380   1.681   5.983  17.111 -0.0202  0.4642 -0.4500
12630TIP3    H159381   1.705   6.028  17.030  1.4847 -0.6429 -0.6572
12630TIP3    H259382   1.713   6.041  17.180  1.3084  0.0702 -0.7070
12631TIP3   OH259383   3.005   1.125  12.245  0.1840 -0.4794 -0.1077
12631TIP3    H159384   3.059   1.126  12.166 -0.4692 -0.1965 -0.5598
12631TIP3    H259385   2.915   1.132  12.213 -0.1092 -0.6855  0.6454
12632TIP3   OH259386   4.409   5.870   1.721 -0.4836 -0.3012 -0.5922
12632TIP3    H159387   4.326   5.915   1.703 -0.0309  0.2943 -1.2397
12632TIP3    H259388   4.402   5.842   1.812 -0.6832  1.3088 -0.0822
12633TIP3   OH259389   2.468   1.790   0.717 -0.2570  0.3656  0.2891
12633TIP3    H159390   2.490   1.878   0.747 -0.3432  1.1418 -1.7242
12633TIP3    H259391   2.482   1.734   0.793  1.0602  1.9316  1.2649
12634TIP3   OH259392   4.941   1.694  12.006 -0.2556  0.6500  0.0089
12634TIP3    H159393   4.922   1.664  12.095  0.9191  1.9261  0.7288
12634TIP3    H259394   4.891   1.635  11.949 -0.8165 -0.3548  1.4953
12635TIP3   OH259395   1.350   1.046  13.579  1.0354  0.2417  0.6483
12635TIP3    H159396   1.336   0.984  13.508 -1.6978  0.3606  0.9700
12635TIP3    H259397   1.395   0.996  13.647 -2.0965 -1.8859  1.3848
12636TIP3   OH259398   1.953   2.562  12.536  0.0041  0.2813 -0.0692
12636TIP3    H159399   1.929   2.544  12.445 -2.4278 -0.7614  0.6943
12636TIP3    H259400   1.984   2.652  12.535 -2.1269  1.0678 -1.6005
12637TIP3   OH259401   4.612   2.298   5.014  0.2539  0.0151  0.1900
12637TIP3    H159402   4.555   2.372   4.992  0.4973  0.1538  0.0235
12637TIP3    H259403   4.552   2.224   5.024  0.0115  0.2304  0.3353
12638TIP3   OH259404   0.702   4.055  16.087 -0.4171  0.3123  0.2985
12638TIP3    H159405   0.683   3.967  16.054 -2.0449  0.6558  0.1969
12638TIP3    H259406   0.677   4.113  16.015 -2.1617  0.9711  1.3583
12639TIP3   OH259407   1.354   4.305  15.733 -0.4001 -0.4081 -0.3868
12639TIP3    H159408   1.340   4.300  15.638  1.2313  0.4684 -0.7155
12639TIP3    H259409   1.391   4.220  15.756  1.8159  0.2837 -1.0915
12640TIP3   OH259410   4.618   3.511   2.758  0.2970  0.9637  0.3527
12640TIP3    H159411   4.539   3.554   2.725 -0.2150 -0.9310 -1.0229
12640TIP3    H259412   4.586   3.447   2.821  0.6194 -0.4517 -0.8873
12641TIP3   OH259413   1.251   0.098  15.070  0.0495 -0.8525 -0.6008
12641TIP3    H159414   1.292   0.183  15.053 -1.2031 -0.1886 -0.4379
12641TIP3    H259415   1.322   0.044  15.106  0.3997  0.8156  1.4657
12642TIP3   OH259416   2.937   0.287   1.947 -0.3576  0.0571 -0.5388
12642TIP3    H159417   2.871   0.304   2.014 -0.1391 -1.0098 -0.0199
12642TIP3    H259418   2.887   0.264   1.869 -0.6125  1.2542 -0.7402
12643TIP3   OH259419   5.385   1.850  16.827  0.3277 -0.1925 -0.0727
12643TIP3    H159420   5.385   1.780  16.892 -1.4830  1.0009  1.3479
12643TIP3    H259421   5.385   1.805  16.742  0.4026 -1.8547  0.7761
12644TIP3   OH259422   5.487   2.735   4.322  0.2511 -0.3603  0.0762
12644TIP3    H159423   5.459   2.656   4.369 -1.2815 -0.1044 -0.3531
12644TIP3    H259424   5.509   2.704   4.234  0.9075 -0.4876  0.2772
12645TIP3   OH259425   6.812   3.176   1.514  0.4597  0.1881  0.0137
12645TIP3    H159426   6.735   3.128   1.546  1.3214 -0.9045  0.5017
12645TIP3    H259427   6.884   3.113   1.522  0.7051 -0.4080 -4.5531
12646TIP3   OH259428   0.157   5.958   4.091 -0.3217  0.4194  0.1240
12646TIP3    H159429   0.078   6.003   4.121  0.6404  2.5640 -0.3456
12646TIP3    H259430   0.150   5.870   4.128 -3.1917  0.3291 -0.3728
12647TIP3   OH259431   6.056   3.737  11.933 -0.4122 -0.6368 -0.0973
12647TIP3    H159432   6.123   3.784  11.883  0.4113 -0.1053  1.4512
12647TIP3    H259433   5.986   3.720  11.869 -0.6394  2.4126 -0.8393
12648TIP3   OH259434   1.956   0.456  11.177 -0.2344 -0.0219  0.4949
12648TIP3    H159435   2.018   0.428  11.110 -1.8043 -2.3656 -0.0839
12648TIP3    H259436   1.920   0.375  11.212 -1.8417  1.2272  1.8959
12649TIP3   OH259437   5.746   6.686   1.472 -0.2871 -0.3192  0.4469
12649TIP3    H159438   5.799   6.607   1.463  0.6317  0.3470 -0.2668
12649TIP3    H259439   5.774   6.741   1.399 -2.1407 -0.0216 -0.0953
12650TIP3   OH259440   6.256   4.803   5.933  0.0718 -0.7179 -0.8191
12650TIP3    H159441   6.253   4.886   5.980  2.4460 -0.8042 -0.3870
12650TIP3    H259442   6.239   4.825   5.842  2.6718  0.6383 -1.0673
12651TIP3   OH259443   4.150   5.594  12.904 -0.3668  0.3171 -0.0565
12651TIP3    H159444   4.070   5.542  12.901  1.0228 -1.9452 -0.6026
12651TIP3    H259445   4.171   5.611  12.812  1.6374 -2.3199 -0.1989
12652TIP3   OH259446   0.915   0.364   3.086  0.2271 -0.3824 -0.1593
12652TIP3    H159447   0.869   0.373   3.170  1.2887  0.4431  0.3577
12652TIP3    H259448   0.998   0.323   3.110  0.4910 -0.2388 -0.8272
12653TIP3   OH259449   1.002   2.918   2.088  0.2881  0.4354 -0.2103
12653TIP3    H159450   1.042   2.962   2.014 -2.7726  1.2071 -1.5549
12653TIP3    H259451   0.946   2.984   2.129  0.7290 -0.4007  1.8895
12654TIP3   OH259452   1.186   5.857  16.322  0.5492  1.0088  0.0824
12654TIP3    H159453   1.260   5.909  16.290  0.7675  0.9067  0.4200
12654TIP3    H259454   1.182   5.782  16.262  2.8854 -0.8180  2.0390
12655TIP3   OH259455   4.448   1.389   2.134 -0.2753 -0.2190 -0.1723
12655TIP3    H159456   4.377   1.389   2.070 -0.9406 -0.5387  0.5521
12655TIP3    H259457   4.481   1.299   2.134 -1.9732 -0.9196  1.7388
12656TIP3   OH259458   3.600   4.833   4.680  0.0478  0.4334  0.2497
12656TIP3    H159459   3.682   4.865   4.643 -0.5634  0.5903 -1.0212
12656TIP3    H259460   3.558   4.910   4.718  0.0787  0.5131  0.1194
12657TIP3   OH259461   4.596   4.734  14.188  0.1102 -0.1559  0.3504
12657TIP3    H159462   4.654   4.672  14.233 -0.2324 -0.2512  0.6617
12657TIP3    H259463   4.510   4.692  14.191 -0.5615  1.2271  2.3669
12658TIP3   OH259464   4.369   2.719   3.971 -0.1272  0.2512  0.5270
12658TIP3    H159465   4.423   2.759   3.902  2.2123 -1.8653  0.9944
12658TIP3    H259466   4.298   2.676   3.925  0.9932 -0.5086 -0.5409
12659TIP3   OH259467   5.407   0.547  15.080 -0.3549 -0.0007  0.1630
12659TIP3    H159468   5.397   0.497  14.999  0.2260 -1.0933  0.7477
12659TIP3    H259469   5.375   0.635  15.058 -0.7483 -0.4356 -1.0784
12660TIP3   OH259470   3.889   1.782   4.876 -0.1433  0.0828 -0.0843
12660TIP3    H159471   3.896   1.854   4.938  0.0920  0.3185 -0.3795
12660TIP3    H259472   3.932   1.814   4.797 -1.4022  0.2117 -0.7541
12661TIP3   OH259473   6.242   5.531  12.063  0.0858 -0.3259 -0.4734
12661TIP3    H159474   6.303   5.563  11.996 -1.2538 -0.7573 -1.9362
12661TIP3    H259475   6.205   5.611  12.100  0.8349 -0.0845 -0.2148
12662TIP3   OH259476   3.711   2.624   4.831 -0.0722  0.5548 -0.8732
12662TIP3    H159477   3.706   2.603   4.924  0.3053  0.1380 -0.9481
12662TIP3    H259478   3.621   2.615   4.800  0.3826 -3.4526 -1.4550
12663TIP3   OH259479   6.582   0.562   5.780 -0.2457 -0.6841 -0.1541
12663TIP3    H159480   6.563   0.471   5.754  0.2735 -0.3166 -1.9646
12663TIP3    H259481   6.675   0.561   5.805  0.3810 -0.2710 -2.2800
12664TIP3   OH259482   4.464   0.617   3.992  0.1780  0.3509 -0.0147
12664TIP3    H159483   4.510   0.671   4.056  0.5375  0.1264 -0.0761
12664TIP3    H259484   4.490   0.527   4.013 -2.4034 -0.0811  1.6999
12665TIP3   OH259485   4.313   5.652  14.428  0.0143 -0.0412  0.1837
12665TIP3    H159486   4.303   5.604  14.511 -0.5878 -0.7200 -0.2628
12665TIP3    H259487   4.282   5.740  14.447 -1.4587 -0.5663  0.3438
12666TIP3   OH259488   2.550   2.953  16.319 -0.0482  0.3161  0.0955
12666TIP3    H159489   2.552   3.014  16.392 -1.0979  1.0550 -0.4672
12666TIP3    H259490   2.522   3.006  16.244 -0.3119 -0.7125 -0.5549
12667TIP3   OH259491   1.470   4.009   1.522  0.3996  0.0847 -0.4659
12667TIP3    H159492   1.538   3.953   1.485  0.1838  0.5841 -1.6870
12667TIP3    H259493   1.517   4.084   1.558  0.7320 -1.0467  1.6051
12668TIP3   OH259494   5.558   4.076   3.669  0.2915 -0.3494  0.4337
12668TIP3    H159495   5.498   4.124   3.726 -0.1760 -0.3810 -0.0232
12668TIP3    H259496   5.504   4.048   3.596  0.7135 -0.9791  0.3543
12669TIP3   OH259497   2.321   6.303   2.050 -0.5856 -0.5965  0.3051
12669TIP3    H159498   2.413   6.327   2.063 -0.9666  1.5014 -0.4643
12669TIP3    H259499   2.321   6.207   2.051  1.3714 -0.6377  1.7808
12670TIP3   OH259500   0.836   5.774  11.001 -0.3946 -0.5036 -0.0727
12670TIP3    H159501   0.840   5.869  10.995 -0.8364 -0.3835  1.3002
12670TIP3    H259502   0.921   5.744  10.969 -0.4863  0.2966 -1.1384
12671TIP3   OH259503   4.986   2.972   5.117  0.2028 -0.3886  0.6659
12671TIP3    H159504   4.919   3.010   5.060  0.9875  0.5268  0.3286
12671TIP3    H259505   4.965   2.879   5.119 -0.2191 -0.3411 -0.6165
12672TIP3   OH259506   0.471   5.841   5.628 -0.3749  0.2649 -0.4235
12672TIP3    H159507   0.384   5.874   5.647  0.0420  0.9302  0.3478
12672TIP3    H259508   0.463   5.804   5.540 -2.4563 -3.2251  1.0059
12673TIP3   OH259509   0.540   0.154   4.598  0.4179 -0.2905  0.7664
12673TIP3    H159510   0.517   0.145   4.506  0.1828  1.5853  0.6069
12673TIP3    H259511   0.456   0.159   4.644  0.4957  0.9454  0.8128
12674TIP3   OH259512   0.343   4.226  11.869 -0.2601 -0.3585 -0.1278
12674TIP3    H159513   0.304   4.166  11.932 -0.4643 -0.2844 -0.1810
12674TIP3    H259514   0.437   4.220  11.884 -0.3842  0.9595  1.3530
12675TIP3   OH259515   3.454   0.993  14.936 -0.4470  0.3494  0.1363
12675TIP3    H159516   3.477   0.980  15.029 -1.5185 -1.3729  0.2062
12675TIP3    H259517   3.359   1.006  14.936 -0.4473  0.4025 -0.7005
12676TIP3   OH259518   5.615   5.137  12.897 -0.9245  0.4414 -0.0283
12676TIP3    H159519   5.691   5.187  12.926 -1.5626  1.5802 -0.2726
12676TIP3    H259520   5.570   5.112  12.978 -0.3635 -0.1190  0.1102
12677TIP3   OH259521   2.318   5.730  17.112  0.4846 -0.1659 -0.2135
12677TIP3    H159522   2.270   5.651  17.085  0.7529 -0.6125  0.6023
12677TIP3    H259523   2.408   5.700  17.125  0.2243 -0.1684  1.9724
12678TIP3   OH259524   3.656   5.065   1.994 -0.3214  0.3540  0.0743
12678TIP3    H159525   3.663   5.158   2.015 -0.0997  0.3375  0.0736
12678TIP3    H259526   3.698   5.020   2.067  0.8453  0.3140 -0.5927
12679TIP3   OH259527   6.118   3.040  16.930 -0.4350  0.3012  0.0751
12679TIP3    H159528   6.128   2.959  16.879 -0.3925 -0.4806  1.2692
12679TIP3    H259529   6.207   3.076  16.934  0.0586 -0.9876  1.7005
12680TIP3   OH259530   2.580   2.731  14.897  0.3049 -0.1221  0.2487
12680TIP3    H159531   2.546   2.750  14.984  0.4221 -1.1540  0.5217
12680TIP3    H259532   2.583   2.817  14.854  0.9037  0.4958  1.4829
12681TIP3   OH259533   2.270   2.486   2.382 -0.0924 -0.2098 -0.3713
12681TIP3    H159534   2.220   2.525   2.310  1.3350  2.6278  0.0275
12681TIP3    H259535   2.242   2.535   2.459  2.3842  0.6998  0.0418
12682TIP3   OH259536   6.666   0.137   4.169 -0.0836  0.0674 -0.7061
12682TIP3    H159537   6.665   0.046   4.199 -0.3591  0.1590 -0.4405
12682TIP3    H259538   6.579   0.170   4.189  0.9537  1.3775  2.1465
12683TIP3   OH259539   0.791   4.847  16.446 -0.0231  0.3783 -0.0112
12683TIP3    H159540   0.730   4.920  16.443  0.1726  0.6688  1.8834
12683TIP3    H259541   0.810   4.828  16.354 -1.9737  1.0882 -0.6108
12684TIP3   OH259542   4.699   0.388   3.247 -0.4546 -0.4556 -0.4479
12684TIP3    H159543   4.655   0.391   3.162 -0.1474  0.7100 -0.5853
12684TIP3    H259544   4.770   0.325   3.235 -1.6341 -1.8475 -0.4237
12685TIP3   OH259545   0.732   1.042  11.374 -0.3799 -0.1783  0.0132
12685TIP3    H159546   0.827   1.045  11.367 -0.5205 -0.0670 -3.3046
12685TIP3    H259547   0.707   1.134  11.387 -0.0369 -0.4078  2.8593
12686TIP3   OH259548   4.245   6.780   5.343 -0.5374  0.2052 -0.0112
12686TIP3    H159549   4.234   6.792   5.249  1.2809 -0.6928 -0.3832
12686TIP3    H259550   4.325   6.827   5.364 -0.7375  0.1046  1.0184
12687TIP3   OH259551   5.748   3.255   2.285 -0.0221 -0.4817 -0.3599
12687TIP3    H159552   5.778   3.172   2.250  0.5824 -0.2897 -0.3099
12687TIP3    H259553   5.825   3.312   2.281 -0.3943  0.0338 -0.2739
12688TIP3   OH259554   5.190   1.790  13.982  0.1833 -0.2351 -0.3067
12688TIP3    H159555   5.231   1.861  14.031 -1.8102  1.5071 -0.9794
12688TIP3    H259556   5.240   1.784  13.901 -0.7534  1.8684 -1.1283
12689TIP3   OH259557   1.065   1.325  14.797  0.4424 -0.6007 -0.2281
12689TIP3    H159558   1.046   1.267  14.871 -2.0272 -0.3031 -0.5554
12689TIP3    H259559   1.118   1.273  14.738  2.4378 -0.8667  1.6786
12690TIP3   OH259560   0.677   1.179  16.056 -0.5185 -0.0500 -0.0319
12690TIP3    H159561   0.751   1.132  16.018 -0.6946 -0.2621 -0.1081
12690TIP3    H259562   0.606   1.116  16.059 -0.3488 -0.2162  1.1638
12691TIP3   OH259563   0.524   6.762  15.866  0.5842  0.0035 -0.8783
12691TIP3    H159564   0.566   6.680  15.840 -0.4331 -0.6634 -0.4313
12691TIP3    H259565   0.571   6.829  15.816  0.3877 -1.0000 -2.4667
12692TIP3   OH259566   6.330   2.658   3.788  0.1597 -1.0430  0.4906
12692TIP3    H159567   6.316   2.564   3.774  3.3489 -1.5142 -0.4093
12692TIP3    H259568   6.333   2.695   3.699  0.2051 -0.3383  0.7831
12693TIP3   OH259569   3.644   4.620  16.248 -0.0691  0.1706 -0.5024
12693TIP3    H159570   3.695   4.700  16.262  0.7787 -0.0673 -2.0084
12693TIP3    H259571   3.554   4.646  16.268  0.4461  0.9508  0.9217
12694TIP3   OH259572   2.982   3.908   5.035 -0.3330 -0.0764  0.2642
12694TIP3    H159573   2.927   3.956   5.097 -0.5579 -0.4883  0.3903
12694TIP3    H259574   3.042   3.858   5.090  0.1168  0.3111  0.1259
12695TIP3   OH259575   2.908   4.060  11.742  0.0032  0.4000 -0.0248
12695TIP3    H159576   2.919   4.097  11.830 -0.2032  1.1114 -0.2993
12695TIP3    H259577   2.968   4.110  11.687  2.2037 -1.8010  0.1672
12696TIP3   OH259578   0.931   6.120  16.843  0.3926  0.1171 -0.4510
12696TIP3    H159579   0.931   6.028  16.871  1.1986 -0.4136 -2.0899
12696TIP3    H259580   1.023   6.146  16.848  0.0323  1.2742  1.2078
12697TIP3   OH259581   1.063   4.254  16.710 -0.2309  0.4755  0.4712
12697TIP3    H159582   1.001   4.303  16.763 -0.8059 -1.4292  1.6237
12697TIP3    H259583   1.021   4.170  16.695  1.1346 -0.0487 -0.6484
12698TIP3   OH259584   6.598   6.694   2.694  0.0883 -0.4689  0.1049
12698TIP3    H159585   6.682   6.695   2.740  0.1443 -0.2862 -0.0027
12698TIP3    H259586   6.596   6.608   2.651 -0.3717 -1.0291  1.1952
12699TIP3   OH259587   3.873   1.097   5.962 -0.4223  0.4169  0.4307
12699TIP3    H159588   3.886   1.138   6.048  1.7860  0.3551  0.1953
12699TIP3    H259589   3.880   1.169   5.900  3.1807 -0.0392  0.0356
12700TIP3   OH259590   1.983   3.535   4.993  0.1160  0.7489  0.4808
12700TIP3    H159591   2.016   3.590   5.064 -0.0220  1.8696 -0.3090
12700TIP3    H259592   1.936   3.594   4.936 -2.3530 -0.6253  0.9579
12701TIP3   OH259593   1.545   0.430  10.432  0.4109 -0.2124 -0.2842
12701TIP3    H159594   1.614   0.364  10.444 -0.1035 -0.6368  0.4147
12701TIP3    H259595   1.550   0.453  10.339 -1.1544 -3.2495 -1.2740
12702TIP3   OH259596   1.221   5.515  12.513 -0.3660  0.6603 -0.5143
12702TIP3    H159597   1.205   5.446  12.449  1.8961  0.5550 -1.0272
12702TIP3    H259598   1.302   5.558  12.484 -1.3581  3.1777  0.1135
12703TIP3   OH259599   0.684   4.461   0.571  0.2068  0.7715 -0.3120
12703TIP3    H159600   0.724   4.489   0.488 -0.6799 -1.7964 -1.7200
12703TIP3    H259601   0.590   4.465   0.554  0.0269 -0.4642  0.3169
12704TIP3   OH259602   5.434   0.086   3.195 -0.1632  0.6644  0.7151
12704TIP3    H159603   5.509   0.067   3.138  0.1134  1.0028  0.9613
12704TIP3    H259604   5.459   0.166   3.242 -0.1849  0.1325  1.6621
12705TIP3   OH259605   2.885   3.073  10.680  0.3401 -0.0922  0.1392
12705TIP3    H159606   2.910   2.981  10.666  2.1987  0.6586 -2.1120
12705TIP3    H259607   2.927   3.096  10.763 -1.5741 -1.6643  1.6550
12706TIP3   OH259608   6.682   0.003   5.257 -0.8172  0.7086  0.4377
12706TIP3    H159609   6.724   0.082   5.223 -0.3449  0.0028 -0.6786
12706TIP3    H259610   6.595   0.032   5.284 -0.6558  1.6126  0.0350
12707TIP3   OH259611   3.257   5.991   0.517  0.0548 -0.4409  0.1625
12707TIP3    H159612   3.289   5.902   0.528 -0.0735 -0.3496  1.4127
12707TIP3    H259613   3.335   6.046   0.526  0.1439 -0.4126 -0.6649
12708TIP3   OH259614   4.096   4.808   5.127 -0.2114 -0.4556  0.8034
12708TIP3    H159615   4.012   4.853   5.128 -0.5304 -1.0346  1.6345
12708TIP3    H259616   4.089   4.742   5.197  0.6220 -1.0744  0.3320
12709TIP3   OH259617   3.015   3.795   6.623 -0.1129  0.0209 -0.2197
12709TIP3    H159618   3.065   3.800   6.705  1.6736  2.7595 -1.3400
12709TIP3    H259619   2.931   3.756   6.649 -0.0879  1.8283  3.1889
12710TIP3   OH259620   2.212   2.336   0.329 -0.3023  0.1712 -0.6688
12710TIP3    H159621   2.202   2.248   0.295 -1.6468 -0.0782  0.2576
12710TIP3    H259622   2.172   2.393   0.263 -2.2022 -0.2323  0.0713
12711TIP3   OH259623   4.800   6.637  14.788 -0.3527  0.2388  0.0286
12711TIP3    H159624   4.708   6.651  14.809 -0.4147  1.9214 -1.1204
12711TIP3    H259625   4.801   6.620  14.694  0.5901  1.7254 -0.2748
12712TIP3   OH259626   6.157   1.325   5.009 -0.5397  0.4350  0.3366
12712TIP3    H159627   6.212   1.262   5.055  0.4550 -1.4128 -3.0594
12712TIP3    H259628   6.068   1.307   5.041  0.0672 -0.8173  1.3934
12713TIP3   OH259629   1.763   3.630  14.343 -0.6959 -0.1531  0.2500
12713TIP3    H159630   1.767   3.538  14.315  0.8961 -0.1283  0.3183
12713TIP3    H259631   1.721   3.675  14.269  1.0626 -0.5080 -1.0433
12714TIP3   OH259632   0.645   0.715  11.146 -0.1068 -0.1749 -0.0315
12714TIP3    H159633   0.605   0.765  11.217 -0.8531 -0.5841 -0.1479
12714TIP3    H259634   0.576   0.655  11.118  0.8360 -1.3950  0.2205
12715TIP3   OH259635   0.619   6.647  11.479  0.9919  0.0292  0.9456
12715TIP3    H159636   0.528   6.662  11.503  0.3173 -0.9325 -0.8090
12715TIP3    H259637   0.658   6.734  11.478 -0.0285  0.5079  1.2490
12716TIP3   OH259638   3.877   3.868   4.996 -0.0478  0.1543  0.0680
12716TIP3    H159639   3.939   3.801   5.027 -0.2127  0.1956  0.5026
12716TIP3    H259640   3.814   3.819   4.943  0.2145  0.0715 -0.1682
12717TIP3   OH259641   4.893   6.264  11.892 -0.0010 -0.7571 -0.1163
12717TIP3    H159642   4.878   6.333  11.957 -0.0425 -1.1523  0.2972
12717TIP3    H259643   4.808   6.254  11.849  0.3383  0.3698 -1.0984
12718TIP3   OH259644   3.676   0.047  14.005 -0.5314  0.1554  0.1467
12718TIP3    H159645   3.595   0.036  14.055 -0.6917  1.2255  0.1573
12718TIP3    H259646   3.664  -0.010  13.929 -0.6769 -0.7796  0.8595
12719TIP3   OH259647   5.503   3.703   1.264 -0.4689  0.0950 -0.1869
12719TIP3    H159648   5.558   3.628   1.286 -1.1812 -0.9505 -1.7646
12719TIP3    H259649   5.418   3.684   1.305 -0.1947  0.8190  0.7293
12720TIP3   OH259650   1.751   6.271   0.911 -0.5765 -0.0119 -0.3157
12720TIP3    H159651   1.813   6.246   0.843  1.0743  0.0803  1.0759
12720TIP3    H259652   1.800   6.331   0.967 -1.8738 -0.0486  0.9229
12721TIP3   OH259653   3.951   1.376  14.157 -0.2246  0.0622  0.1725
12721TIP3    H159654   3.940   1.439  14.229 -0.2138  0.3635 -0.0895
12721TIP3    H259655   3.938   1.291  14.199 -0.1960  0.2330  0.5393
12722TIP3   OH259656   0.970   1.375   2.571 -0.7028  0.6184  0.3806
12722TIP3    H159657   1.055   1.373   2.527 -1.1962  0.2666 -0.5987
12722TIP3    H259658   0.908   1.345   2.504 -1.6245  1.0656  1.0079
12723TIP3   OH259659   2.774   4.613   3.657  0.2531  0.4366  0.2611
12723TIP3    H159660   2.836   4.679   3.625 -0.8700  0.7182 -1.4939
12723TIP3    H259661   2.690   4.660   3.664 -0.5246 -0.7128 -0.8285
12724TIP3   OH259662   1.345   0.655   3.146  0.3209 -0.0339 -0.8548
12724TIP3    H159663   1.413   0.623   3.205  1.3136  0.3861 -1.7276
12724TIP3    H259664   1.375   0.743   3.121  0.0525 -0.2912 -2.1507
12725TIP3   OH259665   5.217   4.336   4.026  0.1964 -0.8824  0.5193
12725TIP3    H159666   5.195   4.429   4.022 -1.9118 -1.3456 -0.0447
12725TIP3    H259667   5.219   4.316   4.120 -0.5043 -0.4985  0.6208
12726TIP3   OH259668   2.346   1.682  16.113 -0.6550  0.4536 -0.0064
12726TIP3    H159669   2.342   1.615  16.044  0.0815  2.9887 -2.6864
12726TIP3    H259670   2.384   1.636  16.188 -0.5918 -2.2230 -1.5446
12727TIP3   OH259671   3.160   4.786   3.340 -0.0758 -0.4978  0.4123
12727TIP3    H159672   3.165   4.691   3.327 -0.2723 -0.3157 -1.2912
12727TIP3    H259673   3.105   4.817   3.267 -0.8270  0.8189  1.4945
12728TIP3   OH259674   1.122   1.696   2.712  0.3951  0.1678 -0.0479
12728TIP3    H159675   1.034   1.680   2.678  0.3227 -1.2516  0.7501
12728TIP3    H259676   1.125   1.791   2.724 -0.8584  0.2970 -0.5272
12729TIP3   OH259677   4.917   1.029  16.927  0.0047 -0.2012 -0.0020
12729TIP3    H159678   4.851   0.984  16.980 -0.5608  1.5154  0.8279
12729TIP3    H259679   4.921   0.978  16.846 -2.0375 -0.5950  0.0771
12730TIP3   OH259680   2.344   4.166   1.745  0.5449 -0.0754 -0.0912
12730TIP3    H159681   2.354   4.073   1.724  0.1335  0.2596 -1.9053
12730TIP3    H259682   2.329   4.209   1.660  0.4797  1.6183  0.7317
12731TIP3   OH259683   0.707   5.647  13.631  0.3652 -0.0877 -0.2029
12731TIP3    H159684   0.614   5.669  13.627 -0.0383 -1.3996  1.2262
12731TIP3    H259685   0.748   5.723  13.672  0.1474  0.9642 -1.8015
12732TIP3   OH259686   2.742   2.347   2.872 -0.8278 -0.4650  0.3364
12732TIP3    H159687   2.837   2.350   2.878 -0.8252  2.1281 -0.0211
12732TIP3    H259688   2.725   2.315   2.783 -0.2938 -0.3589  0.1945
12733TIP3   OH259689   1.943   2.751  12.793  0.0799  0.4542  0.4000
12733TIP3    H159690   1.988   2.675  12.829  0.9799  1.0870  0.6571
12733TIP3    H259691   1.979   2.825  12.842  1.0145  1.3052 -1.4616
12734TIP3   OH259692   5.196   1.166  14.885  0.0102 -0.3774  0.1107
12734TIP3    H159693   5.262   1.156  14.816 -1.4052  2.4173 -1.8626
12734TIP3    H259694   5.245   1.198  14.961  0.9686  2.7470 -1.6435
12735TIP3   OH259695   6.119   4.335  12.036  0.5112  0.0673  0.5276
12735TIP3    H159696   6.189   4.274  12.016  0.9417  0.7243 -0.0031
12735TIP3    H259697   6.164   4.414  12.068 -0.0283  0.1591  1.0907
12736TIP3   OH259698   5.548   2.730  15.423 -0.0850 -0.7085 -0.3572
12736TIP3    H159699   5.571   2.807  15.475 -0.2584 -0.8110 -0.1282
12736TIP3    H259700   5.474   2.759  15.369  0.1913 -0.5572 -0.6581
12737TIP3   OH259701   2.020   0.076  10.895 -0.3819  0.6894  0.3926
12737TIP3    H159702   2.004   0.161  10.936 -0.6315  0.4665  0.7536
12737TIP3    H259703   2.104   0.047  10.930 -0.0183  1.0427 -0.1626
12738TIP3   OH259704   3.807   3.499  14.359 -0.1158 -0.2442  0.8892
12738TIP3    H159705   3.864   3.547  14.420 -0.0243  1.4204 -0.4580
12738TIP3    H259706   3.868   3.460  14.296 -0.3527 -0.0805  0.5604
12739TIP3   OH259707   4.718   6.008  13.355  0.4688 -0.1962 -0.2622
12739TIP3    H159708   4.768   5.949  13.411 -0.0112 -0.0616  0.3188
12739TIP3    H259709   4.708   6.088  13.407 -1.6555 -0.7393  0.2847
12740TIP3   OH259710   2.943   5.623  10.810 -0.3587  0.1038 -0.6291
12740TIP3    H159711   2.987   5.543  10.836  0.7708  0.8321 -0.2223
12740TIP3    H259712   3.014   5.683  10.786 -1.2054  0.7256 -1.7067
12741TIP3   OH259713   6.118   0.380  11.863  0.0124 -1.0655  0.2836
12741TIP3    H159714   6.062   0.403  11.936  0.2727 -1.6196  0.6620
12741TIP3    H259715   6.094   0.289  11.842 -1.7810 -0.1945 -1.8900
12742TIP3   OH259716   0.099   1.423  16.769 -0.3737 -0.3835 -0.0226
12742TIP3    H159717   0.086   1.492  16.703 -1.3778 -1.8566 -1.4415
12742TIP3    H259718   0.174   1.453  16.820 -0.2388  1.3410 -1.1271
12743TIP3   OH259719   3.032   3.105  13.287  0.2226 -0.3554  0.1152
12743TIP3    H159720   2.972   3.179  13.281  1.5695  0.9266  1.6113
12743TIP3    H259721   3.106   3.129  13.231  0.2375 -1.0230 -0.1603
12744TIP3   OH259722   1.503   0.426   0.988 -0.1289 -0.0724  0.0792
12744TIP3    H159723   1.521   0.350   0.932 -0.8342 -0.4842  0.3975
12744TIP3    H259724   1.456   0.486   0.931  1.3239  0.5872 -0.4713
12745TIP3   OH259725   5.154   4.671  12.954  0.3368 -0.1345 -0.3900
12745TIP3    H159726   5.098   4.633  12.886 -1.7234 -0.0800  1.2109
12745TIP3    H259727   5.159   4.604  13.022  1.8935  0.0487 -0.2776
12746TIP3   OH259728   5.332   1.795  16.546 -0.5966  0.3766 -0.0473
12746TIP3    H159729   5.310   1.735  16.474 -0.0678 -1.0456  0.9351
12746TIP3    H259730   5.395   1.856  16.508  0.9898 -1.3900 -0.3985
12747TIP3   OH259731   1.350   4.963   0.541 -0.4321 -0.0889 -0.2062
12747TIP3    H159732   1.364   4.997   0.453 -1.7589  0.7241 -0.1212
12747TIP3    H259733   1.256   4.966   0.554 -0.1386  2.6479  2.2967
12748TIP3   OH259734   2.328   0.372   1.204 -0.1320 -0.9128 -0.4845
12748TIP3    H159735   2.315   0.411   1.291  0.4721  0.8590 -1.1625
12748TIP3    H259736   2.340   0.279   1.222  1.4770 -0.3921  1.4949
12749TIP3   OH259737   6.249   2.694   4.460 -0.3846 -0.7353  0.7050
12749TIP3    H159738   6.178   2.697   4.524  0.2181 -2.1993  1.4820
12749TIP3    H259739   6.237   2.610   4.415 -0.7051  0.1927 -1.0344
12750TIP3   OH259740   3.813   4.378   2.041 -0.2484 -0.0233  0.2551
12750TIP3    H159741   3.750   4.445   2.012  1.0224  0.4878 -1.5030
12750TIP3    H259742   3.898   4.421   2.034  0.5087 -1.4955  0.1530
12751TIP3   OH259743   5.309   3.212  16.183 -0.9878 -0.2938 -0.5123
12751TIP3    H159744   5.372   3.146  16.155 -0.7688 -0.1890 -0.2700
12751TIP3    H259745   5.323   3.285  16.123  0.8375  0.7107  1.0261
12752TIP3   OH259746   1.302   4.474  13.910 -0.2748  0.2183 -0.5051
12752TIP3    H159747   1.395   4.465  13.892 -0.4900  0.2663 -1.7551
12752TIP3    H259748   1.278   4.558  13.870 -0.2575  1.8254  2.5245
12753TIP3   OH259749   5.358   4.246   1.416 -0.2393 -0.3796 -0.0614
12753TIP3    H159750   5.453   4.236   1.415 -0.1313  0.5839 -0.4329
12753TIP3    H259751   5.343   4.328   1.464 -0.9206 -0.8379  0.5325
12754TIP3   OH259752   0.447   2.888   1.304 -0.0370  0.6266  0.2965
12754TIP3    H159753   0.362   2.893   1.260  0.2883 -2.0069 -0.7986
12754TIP3    H259754   0.424   2.876   1.397 -0.9952 -1.6735 -0.1611
12755TIP3   OH259755   5.878   1.614  17.003  0.1465 -0.0146  0.2791
12755TIP3    H159756   5.837   1.641  17.085 -0.0178  0.5503  0.0146
12755TIP3    H259757   5.858   1.521  16.995  2.2061 -0.6968  2.1093
12756TIP3   OH259758   1.211   1.436   3.808  0.4737 -0.0357 -0.3591
12756TIP3    H159759   1.216   1.450   3.714  0.8703  0.6482 -0.2453
12756TIP3    H259760   1.130   1.479   3.835  0.4707 -0.0395 -0.3622
12757TIP3   OH259761   3.687   2.043   4.405  0.4689 -0.1393  0.3418
12757TIP3    H159762   3.612   2.029   4.463  1.2600  0.0764  1.4509
12757TIP3    H259763   3.686   2.136   4.386  0.7950 -0.0296  0.8468
12758TIP3   OH259764   1.132   5.038   3.658 -0.5985 -0.1627 -0.0131
12758TIP3    H159765   1.062   5.103   3.672  1.6597  2.5085 -0.4039
12758TIP3    H259766   1.137   5.027   3.564  0.9654  1.4545 -0.1600
12759TIP3   OH259767   1.892   3.501   5.379 -0.0645  0.2507  0.7774
12759TIP3    H159768   1.959   3.567   5.364 -2.2694  2.2936 -0.6760
12759TIP3    H259769   1.821   3.524   5.320 -1.0615 -3.3660  0.2794
12760TIP3   OH259770   4.206   5.460  15.490  0.3564 -0.1326  0.2739
12760TIP3    H159771   4.293   5.434  15.519  0.5853  0.8922  0.5473
12760TIP3    H259772   4.186   5.401  15.417  0.8246 -1.0762  0.8977
12761TIP3   OH259773   5.231   0.991   5.402  0.3981 -0.0685 -0.1965
12761TIP3    H159774   5.313   1.036   5.422  0.6481 -1.1638  1.4233
12761TIP3    H259775   5.227   0.990   5.306  2.6667 -0.6728 -0.3416
12762TIP3   OH259776   5.650   4.210   6.340 -0.3745 -0.2377  0.1139
12762TIP3    H159777   5.720   4.149   6.363 -0.4737  0.4891  2.6847
12762TIP3    H259778   5.692   4.277   6.287  0.3701 -0.9943 -0.2703
12763TIP3   OH259779   0.102   4.124  14.453  0.0661  0.4341  0.3926
12763TIP3    H159780   0.110   4.031  14.432  0.9564  0.1040  2.0143
12763TIP3    H259781   0.009   4.137  14.470 -0.0769 -0.1387  0.0689
12764TIP3   OH259782   1.857   0.091   5.212  0.0900 -0.2049 -0.0587
12764TIP3    H159783   1.922   0.130   5.270  1.9043 -2.0584 -0.6972
12764TIP3    H259784   1.800   0.041   5.270 -2.5184  3.3914  0.8208
12765TIP3   OH259785   0.857   4.444   6.321  0.2842 -0.1860  0.2360
12765TIP3    H159786   0.777   4.496   6.326  1.0485  0.9990  0.4897
12765TIP3    H259787   0.828   4.354   6.337 -0.9625  0.2451  0.5203
12766TIP3   OH259788   1.172   2.805  15.109 -0.5922  0.3136  0.5962
12766TIP3    H159789   1.090   2.820  15.156 -0.6249 -0.4672  0.7941
12766TIP3    H259790   1.239   2.804  15.177 -0.5206  0.1261  0.5229
12767TIP3   OH259791   5.078   2.660   4.120  0.3110 -0.0655  0.0844
12767TIP3    H159792   5.095   2.754   4.115 -0.6185  0.1333  0.4001
12767TIP3    H259793   5.074   2.642   4.214 -3.0500  0.2999  0.1360
12768TIP3   OH259794   5.488   5.727  15.206  0.1758  0.4586  1.0360
12768TIP3    H159795   5.538   5.647  15.187 -2.0844 -0.6599 -0.7072
12768TIP3    H259796   5.398   5.697  15.215 -0.6748  2.7747  0.8988
12769TIP3   OH259797   3.808   6.563   1.180 -0.0987  0.2855  0.2185
12769TIP3    H159798   3.803   6.653   1.211  2.2426  0.3391  0.5738
12769TIP3    H259799   3.747   6.561   1.105 -0.6076  1.9843  0.5341
12770TIP3   OH259800   1.733   0.631   5.298 -0.2860 -0.1986  0.0699
12770TIP3    H159801   1.803   0.683   5.338 -0.3025 -1.1375  1.3755
12770TIP3    H259802   1.671   0.696   5.265  0.2590  0.6228  0.6313
12771TIP3   OH259803   1.823   2.702   4.358  0.3458 -0.5040  0.1161
12771TIP3    H159804   1.739   2.726   4.396  1.2532 -0.2884  2.1136
12771TIP3    H259805   1.882   2.693   4.433  2.1003 -0.6956 -1.2111
12772TIP3   OH259806   5.367   2.090   2.612 -0.0982  0.5644  0.1043
12772TIP3    H159807   5.375   2.185   2.606 -0.4153  0.6032  0.3417
12772TIP3    H259808   5.400   2.068   2.699 -1.3690  0.6030  0.6195
12773TIP3   OH259809   0.536   1.508   2.271 -0.7369  0.1224 -0.1288
12773TIP3    H159810   0.512   1.418   2.290 -0.4195  0.4497  2.0879
12773TIP3    H259811   0.467   1.539   2.212  0.7157 -2.3621 -3.4387
12774TIP3   OH259812   0.386   0.596  14.857  0.5993 -0.4437  0.8935
12774TIP3    H159813   0.410   0.670  14.801 -0.7738 -1.3805 -1.0543
12774TIP3    H259814   0.413   0.519  14.807 -2.3385 -1.3855  0.5418
12775TIP3   OH259815   3.591   3.545  12.081  0.1986 -0.0015  0.6548
12775TIP3    H159816   3.523   3.479  12.068  0.6176 -0.1845 -0.7738
12775TIP3    H259817   3.659   3.501  12.132  1.2006 -1.2599 -1.5909
12776TIP3   OH259818   3.917   6.105  15.904 -0.1822  0.0695  0.0989
12776TIP3    H159819   3.966   6.182  15.934 -0.9512 -0.3244  2.6402
12776TIP3    H259820   3.931   6.103  15.809  2.6499  1.3537  0.3882
12777TIP3   OH259821   2.916   2.943   4.226  0.1069 -0.1651  0.5592
12777TIP3    H159822   2.923   2.881   4.153  1.4646  0.8640 -0.2181
12777TIP3    H259823   2.994   2.927   4.278 -0.7123 -0.6898  1.6630
12778TIP3   OH259824   6.406   6.420  12.051  0.3298 -0.2423 -0.4152
12778TIP3    H159825   6.369   6.356  11.990  1.5983 -0.9520 -0.4953
12778TIP3    H259826   6.444   6.367  12.121  2.7102  0.2758 -1.2059
12779TIP3   OH259827   1.259   3.391   4.663  0.1971 -0.7009 -0.0445
12779TIP3    H159828   1.182   3.439   4.633 -0.0875 -1.1873 -0.0915
12779TIP3    H259829   1.303   3.363   4.582  2.3543  2.5404 -0.1804
12780TIP3   OH259830   5.099   1.152  13.367 -0.0075 -0.3213 -0.0330
12780TIP3    H159831   5.046   1.121  13.440 -0.0722 -0.4110 -0.1166
12780TIP3    H259832   5.178   1.098  13.371 -0.4632 -1.0601 -0.6576
12781TIP3   OH259833   6.663   4.877   4.524  0.1791 -0.1221  0.0511
12781TIP3    H159834   6.667   4.949   4.462 -0.7193 -0.4913 -0.4444
12781TIP3    H259835   6.741   4.889   4.579  0.7086  0.4951 -0.8119
12782TIP3   OH259836   2.233   3.041   4.581  0.5995 -0.3017  0.2421
12782TIP3    H159837   2.276   3.121   4.549  0.8289 -0.4349  0.2128
12782TIP3    H259838   2.303   2.975   4.581  0.5233 -0.3882  0.6976
12783TIP3   OH259839   1.566   5.362   2.972  0.1117 -0.0707  0.6428
12783TIP3    H159840   1.528   5.294   3.028 -0.1588  0.6162  1.3104
12783TIP3    H259841   1.657   5.335   2.960 -0.8184 -2.5375 -2.1787
12784TIP3   OH259842   0.896   4.889   0.458  0.0497 -0.3597  0.0836
12784TIP3    H159843   0.863   4.969   0.417 -0.5283 -0.0968  1.0458
12784TIP3    H259844   0.887   4.822   0.389 -0.1619  0.2335 -0.4764
12785TIP3   OH259845   3.592   6.050  13.060  0.2364 -0.1374  0.1046
12785TIP3    H159846   3.583   6.099  13.142  0.7199 -0.2075  0.2077
12785TIP3    H259847   3.677   6.006  13.069 -1.0424 -2.6093  0.8610
12786TIP3   OH259848   1.137   4.059  13.998  0.1144 -0.0227  0.0229
12786TIP3    H159849   1.157   3.986  14.056  0.6561  0.5448  0.5630
12786TIP3    H259850   1.084   4.118  14.052  0.9954  0.7210  0.0998
12787TIP3   OH259851   4.607   4.100   0.816 -0.7496 -0.3315 -0.1613
12787TIP3    H159852   4.654   4.017   0.819 -1.5415 -0.7607  2.1568
12787TIP3    H259853   4.521   4.077   0.780 -0.1372 -0.0073 -1.9341
12788TIP3   OH259854   2.760   6.161  10.527  0.4030  0.4794  0.1695
12788TIP3    H159855   2.749   6.244  10.481  0.0766 -0.2126 -1.0670
12788TIP3    H259856   2.849   6.164  10.562  1.0923  0.5983 -1.4907
12789TIP3   OH259857   1.421   1.986   4.982 -0.4245 -0.2725  0.3470
12789TIP3    H159858   1.373   2.064   5.008  1.8347  0.9971  0.9603
12789TIP3    H259859   1.455   1.950   5.065 -1.2292 -1.7847  0.0512
12790TIP3   OH259860   3.571   3.436  15.904  0.2709  0.0098  0.3420
12790TIP3    H159861   3.577   3.523  15.942  1.2298  1.1362 -2.1737
12790TIP3    H259862   3.546   3.451  15.813 -0.9280 -2.4538  0.1740
12791TIP3   OH259863   3.062   0.213  12.970 -0.4130  0.4625  0.2928
12791TIP3    H159864   3.125   0.278  12.939 -2.6977  2.5243 -0.3552
12791TIP3    H259865   2.988   0.220  12.910 -2.0476 -0.5181  2.0525
12792TIP3   OH259866   6.720   4.769   0.668 -0.1251 -0.1186  0.6454
12792TIP3    H159867   6.809   4.798   0.646 -0.5636  0.4466 -0.4781
12792TIP3    H259868   6.664   4.814   0.605 -0.9148 -3.1344 -0.9900
12793TIP3   OH259869   0.733   6.146  11.628 -0.4410 -0.0787 -0.0105
12793TIP3    H159870   0.718   6.238  11.649  1.3303  0.3018 -0.2644
12793TIP3    H259871   0.818   6.145  11.584  0.4156 -2.0212  1.5266
12794TIP3   OH259872   1.721   4.072  14.934 -0.4727 -0.1105 -0.2397
12794TIP3    H159873   1.743   4.161  14.908 -1.2509 -0.8011 -3.9205
12794TIP3    H259874   1.626   4.074  14.947 -0.4440 -0.3335  0.0184
12795TIP3   OH259875   6.333   5.919   2.280 -0.5551  0.1505  0.1048
12795TIP3    H159876   6.258   5.893   2.333 -1.3565  0.2491 -0.9476
12795TIP3    H259877   6.346   6.012   2.300  0.2737 -0.2153  1.4271
12796TIP3   OH259878   5.027   4.319   3.548  0.2666 -0.4493  0.4325
12796TIP3    H159879   4.946   4.284   3.509  1.2797 -1.7938 -0.5373
12796TIP3    H259880   5.046   4.261   3.621 -0.4715  0.8259  1.7025
12797TIP3   OH259881   6.284   6.301   1.806 -0.2840 -0.2705  0.2192
12797TIP3    H159882   6.331   6.305   1.889 -1.1669 -2.3285  0.8902
12797TIP3    H259883   6.250   6.389   1.793 -0.1577  0.0911  2.0872
12798TIP3   OH259884   6.238   2.768   5.167  0.2800  0.2646 -0.1089
12798TIP3    H159885   6.218   2.762   5.073  0.6000  0.6527 -0.2053
12798TIP3    H259886   6.287   2.850   5.175  0.3783  0.1569  0.3789
12799TIP3   OH259887   0.167   5.033  14.153  0.0745  0.2886  0.3060
12799TIP3    H159888   0.142   4.946  14.184  1.9207  0.4041  2.3842
12799TIP3    H259889   0.084   5.081  14.147 -0.7932 -1.0437  1.0725
12800TIP3   OH259890   3.577   2.180   1.406 -0.9017  0.0766 -0.1445
12800TIP3    H159891   3.564   2.168   1.312 -1.1178 -0.7328 -0.0140
12800TIP3    H259892   3.633   2.107   1.432 -0.9607  0.2190  0.3819
12801TIP3   OH259893   0.676   2.201  16.460 -0.0858 -0.5279  0.3406
12801TIP3    H159894   0.603   2.140  16.467  1.2861 -2.0552  3.0470
12801TIP3    H259895   0.635   2.288  16.467 -1.9182 -1.1124 -1.9802
12802TIP3   OH259896   6.548   6.380   0.916 -0.2633 -0.0173 -0.5174
12802TIP3    H159897   6.544   6.455   0.856  1.1031 -0.4070 -1.1266
12802TIP3    H259898   6.613   6.406   0.981 -1.0408  0.0092  0.2572
12803TIP3   OH259899   5.473   5.736   6.396  0.3046  0.2027 -0.3661
12803TIP3    H159900   5.413   5.801   6.361 -0.3762 -0.1284  0.1540
12803TIP3    H259901   5.504   5.688   6.319 -0.8358 -0.2381 -0.5658
12804TIP3   OH259902   3.167   2.501  15.944 -0.2338  0.6577  0.1051
12804TIP3    H159903   3.173   2.493  15.849  1.2726 -1.1451  0.3047
12804TIP3    H259904   3.074   2.485  15.963 -0.3621 -0.0233 -0.9868
12805TIP3   OH259905   1.323   1.873  15.404 -0.2719 -0.1649  0.0221
12805TIP3    H159906   1.325   1.935  15.331  0.7685  0.4262  0.5403
12805TIP3    H259907   1.412   1.872  15.437 -0.9833  0.5210  2.0983
12806TIP3   OH259908   1.697   6.368   3.046 -0.1987 -0.2020 -0.9062
12806TIP3    H159909   1.630   6.311   3.084  0.2690 -0.3000 -0.2190
12806TIP3    H259910   1.703   6.339   2.955  0.0807 -1.3190 -0.5569
12807TIP3   OH259911   6.727   2.534   2.204  0.1497 -0.2324 -0.6287
12807TIP3    H159912   6.772   2.598   2.260  1.0896  0.8640 -2.5442
12807TIP3    H259913   6.637   2.565   2.201  1.0371  2.5401 -3.4001
12808TIP3   OH259914   2.182   2.109  12.324 -0.3741  0.2099 -0.1799
12808TIP3    H159915   2.250   2.132  12.388 -1.4749  1.0399  0.7343
12808TIP3    H259916   2.231   2.079  12.247  1.0301  0.8672  0.4180
12809TIP3   OH259917   6.613   6.232  11.266  0.2489 -0.0596  0.0370
12809TIP3    H159918   6.533   6.202  11.224  0.9092 -1.8963  0.0220
12809TIP3    H259919   6.682   6.175  11.232  1.1431 -0.2240  1.9847
12810TIP3   OH259920   5.878   1.373   3.054 -0.1465 -0.2109  0.3421
12810TIP3    H159921   5.958   1.385   3.105 -0.6647 -1.8238  1.6365
12810TIP3    H259922   5.879   1.443   2.990  1.2724  1.0380  1.6562
12811TIP3   OH259923   0.156   5.654   1.165  0.2734  0.4845 -0.0598
12811TIP3    H159924   0.118   5.580   1.211  2.9173  0.7118  2.8103
12811TIP3    H259925   0.148   5.632   1.072 -1.0977 -2.2618  0.6146
12812TIP3   OH259926   4.685   0.449   5.890  0.3165  0.5125 -0.2763
12812TIP3    H159927   4.590   0.455   5.882  0.2110 -0.0818  0.4496
12812TIP3    H259928   4.718   0.525   5.842 -0.4935  0.4034 -1.0418
12813TIP3   OH259929   4.667   3.360  10.717  0.1349 -1.3962  0.5395
12813TIP3    H159930   4.649   3.371  10.624 -1.0326 -0.9209  0.7985
12813TIP3    H259931   4.734   3.293  10.721  0.0278 -1.5911 -0.6330
12814TIP3   OH259932   5.000   6.614  13.662  0.6126 -0.3242  0.0185
12814TIP3    H159933   5.023   6.544  13.722 -0.4323 -0.2003  0.6009
12814TIP3    H259934   4.997   6.693  13.717 -0.3377 -0.2101 -0.1733
12815TIP3   OH259935   5.171   5.352   6.047  0.6715  0.1086 -0.2921
12815TIP3    H159936   5.166   5.447   6.058  2.3919  0.2887 -0.6951
12815TIP3    H259937   5.265   5.334   6.039  0.4829 -1.7727  0.9476
12816TIP3   OH259938   1.866   5.946   0.761 -0.2665 -0.6424  0.0753
12816TIP3    H159939   1.787   5.937   0.707  0.7473  1.7729 -2.0235
12816TIP3    H259940   1.914   5.864   0.748 -1.0093 -0.9159 -1.1091
12817TIP3   OH259941   3.582   5.224  15.950  0.4315  0.1970  0.0806
12817TIP3    H159942   3.524   5.196  16.021 -0.5288  1.7663 -0.0480
12817TIP3    H259943   3.660   5.257  15.995  0.2934  0.1466  0.3613
12818TIP3   OH259944   6.674   0.949  11.463 -0.2927  0.4409  0.4257
12818TIP3    H159945   6.763   0.982  11.457  0.3698 -0.9777  1.7992
12818TIP3    H259946   6.677   0.863  11.421 -0.7502 -0.0614  1.3903
12819TIP3   OH259947   0.761   5.737  15.027 -0.4560 -0.1542  0.1360
12819TIP3    H159948   0.695   5.776  14.970  0.9780  0.2008 -1.3446
12819TIP3    H259949   0.825   5.699  14.968  1.6013  1.0748  1.4442
12820TIP3   OH259950   6.384   6.045  13.095  0.2089 -0.1720 -0.9933
12820TIP3    H159951   6.357   6.135  13.114 -0.2218 -0.9660  2.8025
12820TIP3    H259952   6.479   6.046  13.105  0.2392 -0.1096 -1.2643
12821TIP3   OH259953   3.347   6.345  16.582  0.2870  0.0656 -0.4260
12821TIP3    H159954   3.395   6.403  16.524  0.6290  0.2191  0.0059
12821TIP3    H259955   3.278   6.400  16.620 -0.0246 -0.0692 -0.7865
12822TIP3   OH259956   0.133   0.225  16.451  0.1512  0.2451  0.1978
12822TIP3    H159957   0.113   0.295  16.389  0.7926  0.5306  0.2923
12822TIP3    H259958   0.207   0.260  16.501 -0.0664 -0.1655  0.8122
12823TIP3   OH259959   1.481   2.138  13.370  0.4398  0.3729 -0.1207
12823TIP3    H159960   1.547   2.194  13.412  0.8446  0.7242 -1.1958
12823TIP3    H259961   1.523   2.053  13.362  0.9885  0.7439 -1.3188
12824TIP3   OH259962   6.705   6.612  11.836  0.2662  0.0748  0.1320
12824TIP3    H159963   6.800   6.603  11.838  0.2884  0.0683 -0.5926
12824TIP3    H259964   6.672   6.523  11.831  0.2791  0.1124 -0.9505
12825TIP3   OH259965   3.302   5.727  15.758 -0.2464 -1.0647  0.5622
12825TIP3    H159966   3.283   5.633  15.757 -0.2304 -1.0806  1.1502
12825TIP3    H259967   3.283   5.754  15.848 -0.2302 -0.5089  0.4015
12826TIP3   OH259968   3.596   6.421   1.819 -0.0682  0.1359 -0.2933
12826TIP3    H159969   3.511   6.443   1.859  0.3140  1.2547 -0.0497
12826TIP3    H259970   3.660   6.447   1.885  0.4613 -0.8865 -0.4014
12827TIP3   OH259971   6.691   3.658   1.714  1.0589  0.0738 -0.5249
12827TIP3    H159972   6.754   3.597   1.751  0.1677 -0.0023  0.9357
12827TIP3    H259973   6.645   3.608   1.647 -0.4620 -1.3040  1.4258
12828TIP3   OH259974   2.905   3.284   4.640  0.6110  0.1358 -0.1937
12828TIP3    H159975   2.989   3.317   4.606  0.9270  0.5862  0.9606
12828TIP3    H259976   2.928   3.203   4.684  1.0423  1.7064  2.7447
12829TIP3   OH259977   0.452   2.696  10.918  0.6465 -0.6429  0.2640
12829TIP3    H159978   0.492   2.665  10.836 -1.7850 -1.8058 -0.5856
12829TIP3    H259979   0.432   2.616  10.966 -0.6111 -0.1267  0.6289
12830TIP3   OH259980   3.689   4.836  15.536  0.4285 -0.1718  0.4027
12830TIP3    H159981   3.744   4.798  15.605 -1.3470 -1.3931  1.2211
12830TIP3    H259982   3.637   4.903  15.581  0.9286  0.6851 -0.2678
12831TIP3   OH259983   2.250   1.141  12.426  1.0970  0.1899 -0.1967
12831TIP3    H159984   2.273   1.172  12.338 -0.7585 -0.9554 -1.1454
12831TIP3    H259985   2.221   1.220  12.472  0.1768  0.5069 -1.2834
12832TIP3   OH259986   3.166   0.068  13.660 -0.0457  0.6956 -0.1756
12832TIP3    H159987   3.074   0.089  13.642  0.1499  2.0401  0.2725
12832TIP3    H259988   3.206   0.060  13.574 -0.5457  0.3071 -0.3724
12833TIP3   OH259989   2.011   6.413  16.897  0.0623  0.1769 -0.2130
12833TIP3    H159990   1.980   6.339  16.846 -0.1374 -0.1771  0.4073
12833TIP3    H259991   1.938   6.475  16.895  0.0088  0.1128 -0.2531
12834TIP3   OH259992   0.518   2.108   5.853  0.1658 -0.2555  0.4884
12834TIP3    H159993   0.532   2.037   5.791 -1.0316  1.0319 -1.3912
12834TIP3    H259994   0.424   2.108   5.869  0.1690  0.7351  0.6174
12835TIP3   OH259995   4.540   1.048   3.249 -0.1395 -0.3460 -0.2926
12835TIP3    H159996   4.470   0.993   3.215 -1.2750 -0.0010  1.3638
12835TIP3    H259997   4.562   1.010   3.334  1.4586 -0.2334 -0.6264
12836TIP3   OH259998   0.919   2.757   2.303 -0.3672 -0.1511  0.2845
12836TIP3    H159999   0.974   2.808   2.245 -0.8391  1.7655  1.4269
12836TIP3    H260000   0.837   2.807   2.310 -1.0191 -1.2617  1.1516
12837TIP3   OH260001   3.257   1.129   0.994  0.0376  0.0412  0.6756
12837TIP3    H160002   3.219   1.214   1.017 -3.2042 -1.0801 -0.0216
12837TIP3    H260003   3.276   1.135   0.901 -0.4448 -0.0605  0.5677
12838TIP3   OH260004   3.648   1.237  16.562  0.0916  0.5127 -0.6298
12838TIP3    H160005   3.740   1.228  16.586  0.4821  0.2141 -2.1271
12838TIP3    H260006   3.610   1.151  16.581 -0.5865  1.3997  2.5885
12839TIP3   OH260007   3.959   3.415  15.775  0.2080 -0.2683 -0.2424
12839TIP3    H160008   3.891   3.481  15.761  0.5330  0.4105  1.2076
12839TIP3    H260009   4.011   3.416  15.694  0.3313  1.4086 -0.1643
12840TIP3   OH260010   1.766   1.248  14.526 -0.3990  0.0846  0.5859
12840TIP3    H160011   1.699   1.215  14.466  0.6288  0.5564 -0.8915
12840TIP3    H260012   1.781   1.338  14.496  1.3564 -0.2293  0.4245
12841TIP3   OH260013   4.395   3.241  13.588  0.0796 -0.2855  0.0261
12841TIP3    H160014   4.422   3.157  13.624  1.5286  1.3246  2.9842
12841TIP3    H260015   4.299   3.236  13.585  0.1698 -2.5130 -1.3396
12842TIP3   OH260016   6.774   2.375  13.398 -0.5254 -0.2351 -0.2700
12842TIP3    H160017   6.761   2.281  13.400 -0.8664 -0.2591 -2.1831
12842TIP3    H260018   6.846   2.391  13.459 -0.6842 -1.6731  0.3216
12843TIP3   OH260019   3.502   2.683   1.256 -0.2880 -0.5907  0.1196
12843TIP3    H160020   3.410   2.661   1.271 -0.4622  1.1401  2.0591
12843TIP3    H260021   3.527   2.734   1.333  2.3141 -0.9941 -0.3714
12844TIP3   OH260022   6.078   5.938  15.536  0.3667 -0.1636 -0.3688
12844TIP3    H160023   6.111   6.027  15.540  1.0373 -0.4057 -0.5225
12844TIP3    H260024   6.114   5.895  15.614 -1.2665  0.1334  0.6077
12845TIP3   OH260025   4.545   4.691   5.618  0.4951 -0.1386  0.1786
12845TIP3    H160026   4.605   4.641   5.564 -0.6520 -1.0577 -0.3010
12845TIP3    H260027   4.462   4.643   5.613 -0.7631  1.9616 -0.5662
12846TIP3   OH260028   5.698   1.550   0.057 -0.1000 -0.0639  0.0395
12846TIP3    H160029   5.695   1.643   0.081 -0.2408 -0.0539 -0.0130
12846TIP3    H260030   5.726   1.505   0.136 -0.1931  0.0067  0.1127
12847TIP3   OH260031   6.460   3.524   5.297 -0.3230  0.1962  0.1602
12847TIP3    H160032   6.462   3.616   5.269 -2.8633  0.1660 -0.4375
12847TIP3    H260033   6.533   3.515   5.357  1.0676  2.1378 -1.1263
12848TIP3   OH260034   5.993   4.432  16.625 -0.2123  0.5618 -0.2632
12848TIP3    H160035   6.062   4.456  16.687  2.1500 -1.3345 -1.9711
12848TIP3    H260036   5.919   4.407  16.681  1.4926 -0.1923  1.8008
12849TIP3   OH260037   5.886   5.958   2.132  0.3624 -0.3288 -0.1727
12849TIP3    H160038   5.968   5.939   2.178  0.5974 -0.9549 -0.8452
12849TIP3    H260039   5.819   5.953   2.201  0.9886  1.3195  0.6224
12850TIP3   OH260040   2.795   1.691   5.799 -0.1578  0.3269  0.3878
12850TIP3    H160041   2.860   1.713   5.865  0.2122  1.6084 -0.3822
12850TIP3    H260042   2.742   1.622   5.840  2.4287 -1.6902  0.5660
12851TIP3   OH260043   4.009   2.863  14.915 -0.1200  0.1167 -0.3731
12851TIP3    H160044   3.921   2.865  14.878  0.3369 -3.3103 -1.9721
12851TIP3    H260045   4.000   2.810  14.995 -0.0872  3.0182  1.7280
12852TIP3   OH260046   4.459   2.532  13.419 -0.3242 -0.1746  0.2598
12852TIP3    H160047   4.501   2.502  13.499 -2.6477 -1.7619  0.9829
12852TIP3    H260048   4.402   2.604  13.447 -0.7788 -0.4115 -0.0332
12853TIP3   OH260049   4.142   3.949  12.433 -0.0369  0.2468  0.7626
12853TIP3    H160050   4.147   3.856  12.455 -2.0700  0.1284  0.8841
12853TIP3    H260051   4.191   3.957  12.351 -1.6814 -1.3942 -0.4683
12854TIP3   OH260052   5.772   3.895   5.030 -0.4600  0.1647 -0.1430
12854TIP3    H160053   5.849   3.950   5.020 -0.4836 -0.0399 -1.7378
12854TIP3    H260054   5.716   3.943   5.092  0.8578  0.3753  0.9122
12855TIP3   OH260055   6.106   6.489  12.765  0.1371 -0.2189 -0.0905
12855TIP3    H160056   6.049   6.541  12.822  0.9897  1.1826 -0.4858
12855TIP3    H260057   6.177   6.460  12.823  1.1350  1.4101 -0.4298
12856TIP3   OH260058   3.214   5.654  13.316  0.4525  0.6643 -0.2881
12856TIP3    H160059   3.208   5.564  13.284  2.7226 -0.1382  1.2216
12856TIP3    H260060   3.224   5.644  13.411 -2.7000  2.7409  0.3981
12857TIP3   OH260061   5.735   1.911  11.969  0.3716 -0.1624  0.5732
12857TIP3    H160062   5.679   1.988  11.964 -0.0727 -0.4042  1.5895
12857TIP3    H260063   5.816   1.942  12.010 -0.3301 -0.4841  2.2937
12858TIP3   OH260064   1.435   5.472   5.785  0.9067  0.0769 -0.0609
12858TIP3    H160065   1.400   5.392   5.823  0.5779  0.1981 -0.1065
12858TIP3    H260066   1.358   5.524   5.763  0.9160 -0.8757 -2.8630
12859TIP3   OH260067   0.606   3.722   5.059 -0.3142 -0.4926  0.2015
12859TIP3    H160068   0.641   3.806   5.088 -0.5787 -0.3730  0.1785
12859TIP3    H260069   0.516   3.741   5.031 -1.1999 -1.1652  2.3335
12860TIP3   OH260070   2.753   6.353   3.082  0.3698 -0.6676 -0.5673
12860TIP3    H160071   2.843   6.321   3.073  0.8820 -0.0332  1.6053
12860TIP3    H260072   2.716   6.300   3.153 -0.6943 -0.3410 -0.8668
12861TIP3   OH260073   2.773   1.468   3.637 -0.3563  0.3002 -0.7711
12861TIP3    H160074   2.801   1.377   3.624  0.2611  0.5352 -1.1206
12861TIP3    H260075   2.797   1.487   3.728 -0.1083  0.2434 -0.8242
12862TIP3   OH260076   0.166   1.053   5.508  1.2251  0.4222  0.1039
12862TIP3    H160077   0.134   1.143   5.516 -1.9683 -0.3978 -1.6116
12862TIP3    H260078   0.192   1.046   5.416  1.3397 -0.4385  0.1990
12863TIP3   OH260079   3.579   4.810   6.705  0.0755  0.2033  0.2928
12863TIP3    H160080   3.566   4.720   6.735 -0.6334  0.4492  0.7596
12863TIP3    H260081   3.654   4.841   6.755  0.9623 -0.4395 -0.6008
12864TIP3   OH260082   3.240   5.742  13.031  0.0631  0.3241  0.8530
12864TIP3    H160083   3.248   5.714  13.122  0.1203  0.4273  0.8799
12864TIP3    H260084   3.257   5.837  13.033  1.3452  0.1193  0.5532
12865TIP3   OH260085   5.810   6.353   3.200 -0.1098 -0.6550  0.1412
12865TIP3    H160086   5.762   6.434   3.218 -2.1271 -1.9650  0.9779
12865TIP3    H260087   5.743   6.291   3.172  1.5488 -1.7570 -1.5819
12866TIP3   OH260088   2.179   2.656   2.586 -0.0238 -0.3092  0.6943
12866TIP3    H160089   2.109   2.718   2.565 -1.0645 -1.1682  1.5292
12866TIP3    H260090   2.252   2.712   2.613 -0.0211  0.6397 -1.1490
12867TIP3   OH260091   4.857   4.668  10.970 -0.3330 -0.4430  0.4768
12867TIP3    H160092   4.791   4.609  11.006 -0.0961 -0.2884  1.1850
12867TIP3    H260093   4.894   4.621  10.896 -2.5632  0.2185 -1.1571
12868TIP3   OH260094   4.436   6.024   0.120 -0.0380 -0.3199  0.0580
12868TIP3    H160095   4.468   6.001   0.032 -1.0933  0.8132 -0.6563
12868TIP3    H260096   4.424   6.119   0.117  0.0561 -0.2432  1.4953
12869TIP3   OH260097   0.018   3.705   0.000  0.0242 -0.0009 -0.0247
12869TIP3    H160098  -0.038   3.753   0.061 -0.1756 -1.3983  0.9410
12869TIP3    H260099  -0.001   3.743  -0.086 -2.2792 -0.2936  0.2981
12870TIP3   OH260100   6.438   6.565   4.074 -0.1013  0.4960 -0.0326
12870TIP3    H160101   6.488   6.617   4.010  0.2113 -0.1221 -0.3031
12870TIP3    H260102   6.387   6.630   4.123  0.9879  1.1534  0.2692
12871TIP3   OH260103   2.619   6.518   6.401 -0.1160 -0.2017 -0.1318
12871TIP3    H160104   2.637   6.549   6.490 -0.0957  0.6065 -0.4055
12871TIP3    H260105   2.620   6.423   6.408 -0.4400 -0.1479  0.7955
12872TIP3   OH260106   4.401   5.026  15.991 -0.1123  0.0020 -0.3978
12872TIP3    H160107   4.407   5.093  15.922 -1.5526  0.4617 -0.1047
12872TIP3    H260108   4.375   4.946  15.946  2.4376 -0.6455 -0.8805
12873TIP3   OH260109   0.818   4.705   5.549 -0.5181 -0.3500 -0.4857
12873TIP3    H160110   0.852   4.788   5.515 -0.9637  0.1085  0.1878
12873TIP3    H260111   0.746   4.729   5.607 -0.7045 -1.2117 -0.3416
12874TIP3   OH260112   3.369   4.230  15.886 -0.0357  0.3231  0.0005
12874TIP3    H160113   3.332   4.180  15.959  0.2802  1.8993  1.3180
12874TIP3    H260114   3.343   4.321  15.905  0.4203  0.8229 -1.6410
12875TIP3   OH260115   2.393   0.015   2.511  0.3831  0.2684 -0.1867
12875TIP3    H160116   2.483  -0.011   2.531 -0.0479 -1.9948 -0.8659
12875TIP3    H260117   2.401   0.092   2.456  1.8700  0.5478  0.3903
12876TIP3   OH260118   3.115   4.331   2.383  0.6300  0.0664 -0.1096
12876TIP3    H160119   3.162   4.259   2.425 -0.1964  0.3766  1.4060
12876TIP3    H260120   3.023   4.302   2.383  0.2928  1.0807  0.4740
12877TIP3   OH260121   6.341   4.712  10.581  0.0797 -0.0431 -0.0428
12877TIP3    H160122   6.313   4.801  10.558  0.1722  0.0177  0.0827
12877TIP3    H260123   6.388   4.681  10.504  2.2700  0.9447  0.8242
12878TIP3   OH260124   1.898   6.275   0.345 -0.2912 -0.8853  0.1414
12878TIP3    H160125   1.942   6.357   0.369 -2.0071  0.2050 -0.2285
12878TIP3    H260126   1.942   6.247   0.264  0.1708 -0.2145  0.1500
12879TIP3   OH260127   4.560   4.754  12.174 -0.6702  0.1814 -0.3092
12879TIP3    H160128   4.536   4.664  12.193 -1.5693  0.5583  0.4442
12879TIP3    H260129   4.573   4.794  12.260 -3.3594  1.5475 -0.4249
12880TIP3   OH260130   5.724   2.795  15.189 -0.1947 -0.3940  0.2137
12880TIP3    H160131   5.730   2.728  15.257  1.2322  1.2222  1.8324
12880TIP3    H260132   5.652   2.851  15.217 -0.4773 -0.4755 -0.3509
12881TIP3   OH260133   1.415   0.846   1.838  0.4301 -0.1785  0.4153
12881TIP3    H160134   1.460   0.764   1.819  0.9331 -0.0925  1.1677
12881TIP3    H260135   1.485   0.910   1.847  0.0891  0.1838  0.5211
12882TIP3   OH260136   5.330   0.823  15.052  0.2640  0.0230  0.2776
12882TIP3    H160137   5.258   0.804  14.993 -0.0551  0.4987  0.5008
12882TIP3    H260138   5.295   0.890  15.111  0.6561 -0.2607  0.8413
12883TIP3   OH260139   2.120   6.434  15.480  0.8263 -0.4063  0.6826
12883TIP3    H160140   2.183   6.488  15.527 -1.7315  1.2573  2.4530
12883TIP3    H260141   2.085   6.491  15.411  0.5589 -0.9679  0.3427
12884TIP3   OH260142   4.552   0.761   0.953 -0.3032  0.0434 -0.2252
12884TIP3    H160143   4.551   0.737   0.860  1.8564 -1.6486  0.0804
12884TIP3    H260144   4.645   0.775   0.972 -0.9664  3.9270  0.9208
12885TIP3   OH260145   0.491   6.604   2.847 -0.3123 -0.1623 -1.2853
12885TIP3    H160146   0.513   6.690   2.884 -0.1849 -0.7445  0.0549
12885TIP3    H260147   0.416   6.575   2.899  0.4772 -1.4313 -0.8203
12886TIP3   OH260148   6.227   2.397   3.021  0.2961 -0.3323 -0.0456
12886TIP3    H160149   6.163   2.357   3.080 -0.3371  0.7168  0.0121
12886TIP3    H260150   6.185   2.395   2.935 -0.9893  2.6155  0.3819
12887TIP3   OH260151   5.272   2.830   5.029 -0.5258 -0.1473  0.5527
12887TIP3    H160152   5.344   2.842   4.966  0.5598  1.8415  2.0273
12887TIP3    H260153   5.207   2.896   5.004 -0.3713  0.2243  1.0966
12888TIP3   OH260154   5.356   0.716   3.556  0.2955  0.4610 -0.3504
12888TIP3    H160155   5.315   0.803   3.552 -0.1395  0.2087 -2.1526
12888TIP3    H260156   5.346   0.689   3.647 -0.2530  1.9690  0.0702
12889TIP3   OH260157   0.898   4.971  16.761  0.6846  0.2351 -0.4883
12889TIP3    H160158   0.953   5.007  16.691  0.7845  1.0250 -0.0214
12889TIP3    H260159   0.891   4.878  16.741 -0.3491  0.6478 -2.2541
12890TIP3   OH260160   5.362   0.219   2.799 -0.2905  0.0131  0.5068
12890TIP3    H160161   5.317   0.182   2.875 -2.2850 -1.3608 -1.2298
12890TIP3    H260162   5.291   0.246   2.740  1.1820  0.5866 -1.0782
12891TIP3   OH260163   1.446   4.049  14.636  0.0423  0.3888 -0.1736
12891TIP3    H160164   1.438   4.140  14.666 -1.1036  0.4771 -0.6913
12891TIP3    H260165   1.359   4.012  14.650  0.5395 -0.6879  0.1677
12892TIP3   OH260166   0.160   1.093  12.117 -0.1813 -0.3774  0.0385
12892TIP3    H160167   0.153   1.098  12.021  1.4317 -3.3397 -0.3534
12892TIP3    H260168   0.223   1.162  12.140 -1.2981  0.9977 -0.8548
12893TIP3   OH260169   5.121   1.442  13.251 -0.3513 -0.2840 -0.3837
12893TIP3    H160170   5.117   1.373  13.317  2.2611 -0.0153  0.1565
12893TIP3    H260171   5.072   1.515  13.291 -1.5309 -1.1484 -0.1688
12894TIP3   OH260172   0.176   5.532   5.075  0.3255 -0.3402 -0.3879
12894TIP3    H160173   0.081   5.529   5.088  0.2384 -1.0878 -1.1139
12894TIP3    H260174   0.210   5.461   5.130  0.5743  0.5754  0.6656
12895TIP3   OH260175   2.106   2.078  11.731 -0.6289 -0.7029  0.2232
12895TIP3    H160176   2.176   2.111  11.675 -1.1764  0.7459  0.3618
12895TIP3    H260177   2.103   2.139  11.804 -1.6876 -1.0664  0.4974
12896TIP3   OH260178   2.893   5.630  13.984 -0.4460 -0.5038  0.3867
12896TIP3    H160179   2.957   5.669  14.044  1.7329  0.2567 -2.2026
12896TIP3    H260180   2.875   5.543  14.020  1.4653 -0.4319  1.6357
12897TIP3   OH260181   0.583   0.182   3.306  0.1125 -0.1920 -0.4247
12897TIP3    H160182   0.505   0.237   3.311  0.6453  0.6601 -1.2756
12897TIP3    H260183   0.554   0.097   3.339 -0.9211  0.3781  0.1885
12898TIP3   OH260184   2.123   4.719   4.006  0.4425  0.0529 -0.2976
12898TIP3    H160185   2.096   4.798   4.053 -1.8390 -1.3144  0.8589
12898TIP3    H260186   2.083   4.727   3.919 -0.1395 -0.0169 -0.0372
12899TIP3   OH260187   0.114   5.484   0.920  0.0511  0.3952  0.1202
12899TIP3    H160188   0.078   5.397   0.934  1.3957 -0.3609 -0.8565
12899TIP3    H260189   0.058   5.523   0.853 -0.2472  0.0820  0.1839
12900TIP3   OH260190   0.320   5.251   5.145  0.1295 -0.4295 -0.1245
12900TIP3    H160191   0.287   5.227   5.059  0.1625  0.1486 -0.3064
12900TIP3    H260192   0.372   5.176   5.173  0.5464 -0.4184 -0.8407
12901TIP3   OH260193   0.837   3.745  12.144  0.1934  0.2199  0.5329
12901TIP3    H160194   0.860   3.744  12.051  0.6433  0.7786  0.6275
12901TIP3    H260195   0.741   3.746  12.145  0.1860  0.0707  0.0750
12902TIP3   OH260196   3.154   4.972  13.826 -0.5750 -0.2672  0.3914
12902TIP3    H160197   3.205   4.984  13.746 -0.7108  0.3841  0.3910
12902TIP3    H260198   3.152   5.059  13.866 -3.5714  0.3308 -0.7538
12903TIP3   OH260199   0.514   3.912   4.243 -0.5339  0.5528 -0.1342
12903TIP3    H160200   0.513   3.973   4.316  2.2215 -0.6626  1.0604
12903TIP3    H260201   0.597   3.866   4.251 -0.2764  0.0599 -3.8285
12904TIP3   OH260202   3.011   4.782  14.162 -0.3332 -0.0062 -0.4211
12904TIP3    H160203   2.999   4.876  14.181 -0.0008 -0.2850  1.4098
12904TIP3    H260204   3.032   4.744  14.247  0.7766 -1.5663 -1.3547
12905TIP3   OH260205   4.226   1.337  10.966  0.4294  0.4279  0.2188
12905TIP3    H160206   4.156   1.403  10.963 -0.2995 -0.3021  0.7592
12905TIP3    H260207   4.306   1.388  10.977  0.1407  1.3684 -1.6119
12906TIP3   OH260208   0.907   5.724   2.282 -0.1839 -0.3907  0.1785
12906TIP3    H160209   0.956   5.726   2.200  0.8114 -1.2795  0.7255
12906TIP3    H260210   0.872   5.635   2.287 -2.1576  0.3095 -0.3431
12907TIP3   OH260211   4.538   4.939   0.334 -0.0077 -0.3253 -0.6667
12907TIP3    H160212   4.601   4.944   0.406 -1.6018  2.7020  0.7270
12907TIP3    H260213   4.455   4.920   0.376 -0.8503  0.7552 -1.7852
12908TIP3   OH260214   1.394   5.348   0.083  0.0238  0.2981  0.5962
12908TIP3    H160215   1.475   5.304   0.107 -0.2531  0.8393  2.6921
12908TIP3    H260216   1.411   5.441   0.098 -1.0720  0.3900  1.4016
12909TIP3   OH260217   4.660   1.511   3.969  0.1189  0.3581 -0.8274
12909TIP3    H160218   4.642   1.428   4.012  0.6682  0.1795 -0.9457
12909TIP3    H260219   4.742   1.541   4.007  0.1166  0.6653 -1.0582
12910TIP3   OH260220   1.222   0.159   0.051  0.1787  0.1777 -0.2906
12910TIP3    H160221   1.155   0.212   0.008  0.7079  1.1805  0.0980
12910TIP3    H260222   1.178   0.122   0.128 -0.3272 -0.3638 -0.8243
12911TIP3   OH260223   0.067   3.540   4.081  0.2946 -0.2275  0.7928
12911TIP3    H160224   0.072   3.626   4.123  0.7607  0.9852 -1.5395
12911TIP3    H260225  -0.027   3.522   4.075 -0.1798  2.2876 -2.4978
12912TIP3   OH260226   1.964   3.929   2.382 -0.2769 -0.0042 -0.0468
12912TIP3    H160227   2.055   3.910   2.404 -0.5920 -2.1024 -0.3523
12912TIP3    H260228   1.939   4.000   2.441  0.9802 -0.6768  1.3531
12913TIP3   OH260229   3.396   1.847  12.166  0.4640 -0.2937 -0.2688
12913TIP3    H160230   3.442   1.924  12.132 -0.3667  0.1933 -0.3213
12913TIP3    H260231   3.432   1.834  12.253  2.6856 -1.6065 -1.3149
12914TIP3   OH260232   0.967   6.076  13.320  0.1582  0.1051  0.3424
12914TIP3    H160233   1.034   6.033  13.268 -0.6502  0.2249 -0.8499
12914TIP3    H260234   0.908   6.005  13.346 -0.1923  0.2205 -0.1069
12915TIP3   OH260235   5.142   2.812   0.148  0.4444  0.6660  0.4249
12915TIP3    H160236   5.235   2.822   0.169  0.3237  2.4439  0.2413
12915TIP3    H260237   5.141   2.774   0.060  1.0051  1.3523  0.1183
12916TIP3   OH260238   3.012   2.673  15.335  0.5609 -0.0219 -0.1149
12916TIP3    H160239   2.966   2.727  15.271  0.0642 -0.3295 -0.0273
12916TIP3    H260240   2.979   2.702  15.420 -0.1184 -0.8097 -0.0919
12917TIP3   OH260241   1.958   0.197   3.926  0.6074 -0.1154 -0.0023
12917TIP3    H160242   1.920   0.180   4.012  1.4762 -0.6240  0.2898
12917TIP3    H260243   1.967   0.292   3.922 -0.8865  0.0547 -0.1772
12918TIP3   OH260244   2.877   2.560  12.784  0.2036 -0.3770 -0.3339
12918TIP3    H160245   2.872   2.655  12.774  1.1381 -0.2207  0.5486
12918TIP3    H260246   2.787   2.530  12.777 -0.5074  0.8822  2.3028
12919TIP3   OH260247   3.301   6.706   1.332 -0.3008  0.0915  0.1784
12919TIP3    H160248   3.342   6.661   1.258 -0.8338  0.4179 -0.3267
12919TIP3    H260249   3.266   6.786   1.294 -0.2325  0.4515  0.8729
12920TIP3   OH260250   0.698   4.176  17.079  0.4633 -0.1991 -0.3345
12920TIP3    H160251   0.630   4.110  17.071  1.9798 -1.6351 -2.6367
12920TIP3    H260252   0.748   4.150  17.156  0.9438 -1.7255 -1.1172
12921TIP3   OH260253   5.692   2.204   5.519 -0.2817  0.6947  0.0311
12921TIP3    H160254   5.736   2.121   5.498  0.5145  0.7846  1.2616
12921TIP3    H260255   5.599   2.186   5.503 -0.2545 -0.7846  1.2887
12922TIP3   OH260256   0.357   0.079   6.238 -0.1786  0.3124  0.0991
12922TIP3    H160257   0.272   0.123   6.236 -0.6388 -0.5628 -0.2315
12922TIP3    H260258   0.420   0.149   6.251 -0.9502  0.9822  0.3116
12923TIP3   OH260259   1.884   6.585   0.812 -0.0583 -0.8455  0.1115
12923TIP3    H160260   1.860   6.566   0.903 -1.7716  0.6628  0.0430
12923TIP3    H260261   1.818   6.648   0.783  1.7124  0.3506 -1.5210
12924TIP3   OH260262   1.178   3.609   6.262 -0.4488 -0.0673  0.4147
12924TIP3    H160263   1.252   3.670   6.261 -0.7361  0.3710  2.5309
12924TIP3    H260264   1.106   3.659   6.225 -0.2404  0.2508  0.4345
12925TIP3   OH260265   4.180   6.006   1.675 -0.1751  0.3219 -0.1752
12925TIP3    H160266   4.105   6.043   1.721  1.6451  1.3911  2.1979
12925TIP3    H260267   4.220   6.080   1.630  0.7226  0.2828  0.5195
12926TIP3   OH260268   1.711   6.315   4.516  0.2720 -0.5650  0.6131
12926TIP3    H160269   1.741   6.381   4.453  0.4755  1.0206  2.2783
12926TIP3    H260270   1.628   6.350   4.549 -0.9873 -2.4726 -0.3287
12927TIP3   OH260271   3.005   5.519   1.777 -0.3010  0.4075 -0.0986
12927TIP3    H160272   3.051   5.469   1.710  1.1248  1.7430 -0.1974
12927TIP3    H260273   2.915   5.525   1.745 -0.3048 -1.2783 -0.5078
12928TIP3   OH260274   6.401   3.639   3.804  0.0977  0.3275 -0.2496
12928TIP3    H160275   6.319   3.594   3.826  1.0744 -1.1232  0.5900
12928TIP3    H260276   6.425   3.685   3.884  0.4807  0.1408 -0.2560
12929TIP3   OH260277   2.807   2.864  11.071  0.2135  0.1234 -0.0971
12929TIP3    H160278   2.769   2.805  11.136 -0.0465 -0.8771 -1.1230
12929TIP3    H260279   2.855   2.806  11.011 -0.8984  0.8200 -1.7347
12930TIP3   OH260280   2.530   3.219  12.322 -0.4004  0.5465  0.1561
12930TIP3    H160281   2.621   3.211  12.292 -0.4887  0.5757 -0.1227
12930TIP3    H260282   2.491   3.134  12.302 -1.1264  1.3579 -2.0821
12931TIP3   OH260283   3.099   3.187  16.389  0.0915  0.6098 -0.1028
12931TIP3    H160284   3.005   3.179  16.404  0.3593  1.9594  3.2411
12931TIP3    H260285   3.108   3.261  16.330 -0.9440 -0.7222 -2.0330
12932TIP3   OH260286   5.945   1.745   1.946 -0.4757 -0.4285  0.0380
12932TIP3    H160287   5.932   1.793   1.864  1.0094 -1.1879 -0.6978
12932TIP3    H260288   5.857   1.733   1.981 -1.0523  0.9537 -0.8267
12933TIP3   OH260289   2.127   6.558  13.098 -0.6856  0.0571 -0.3306
12933TIP3    H160290   2.101   6.637  13.051 -1.0040  0.6564  0.8160
12933TIP3    H260291   2.213   6.537  13.063 -0.8023  0.6257 -0.9907
12934TIP3   OH260292   3.622   1.720   4.319  0.3169 -0.6129 -0.7316
12934TIP3    H160293   3.656   1.696   4.405 -0.9082 -2.0499 -0.6021
12934TIP3    H260294   3.650   1.811   4.307 -1.7797  0.6579  2.4162
12935TIP3   OH260295   6.655   2.926   3.540  0.0523  0.5670  0.0920
12935TIP3    H160296   6.693   2.916   3.452  1.1549  0.1817  0.5923
12935TIP3    H260297   6.711   2.991   3.583 -0.6134  0.9193  0.4536
12936TIP3   OH260298   4.734   5.952  11.577 -0.9849 -0.7095  0.3925
12936TIP3    H160299   4.725   5.858  11.586 -2.3368 -0.6430 -0.0980
12936TIP3    H260300   4.786   5.964  11.497 -1.5699 -1.0224 -0.0346
12937TIP3   OH260301   4.809   0.830  14.643 -0.2530  0.2184  0.1279
12937TIP3    H160302   4.743   0.794  14.584 -0.3922 -0.8595  0.9238
12937TIP3    H260303   4.883   0.769  14.636 -0.0927  0.3385  0.6983
12938TIP3   OH260304   4.453   3.568   1.013 -0.5848 -0.0602 -0.0147
12938TIP3    H160305   4.363   3.539   1.024 -1.3792  2.1384 -0.2684
12938TIP3    H260306   4.500   3.529   1.087 -2.0769  0.0269  1.0173
12939TIP3   OH260307   1.385   0.426   2.139  0.0981  0.5705  0.1655
12939TIP3    H160308   1.347   0.512   2.119 -1.6901 -0.2141  0.0156
12939TIP3    H260309   1.324   0.387   2.201  0.0177 -1.2243 -0.9843
12940TIP3   OH260310   4.259   6.002  12.767 -0.4318 -0.2785  0.0437
12940TIP3    H160311   4.343   5.961  12.787  1.0544  2.6822  0.3360
12940TIP3    H260312   4.209   5.933  12.722  2.3915 -1.9072 -0.8309
12941TIP3   OH260313   3.909   2.720   4.494  0.6609 -0.2927 -0.0885
12941TIP3    H160314   3.969   2.663   4.541 -0.5345 -0.4797  1.2863
12941TIP3    H260315   3.956   2.802   4.483  1.3451 -0.6004  0.4950
12942TIP3   OH260316   2.934   1.859   4.526  0.5870 -0.2200  0.2533
12942TIP3    H160317   2.939   1.810   4.608  0.6278  1.2514  1.1603
12942TIP3    H260318   3.015   1.910   4.523  0.5523 -0.1941 -0.6730
12943TIP3   OH260319   3.211   6.095  13.608 -0.6691 -0.6636  0.2637
12943TIP3    H160320   3.175   6.028  13.549 -0.0654 -1.7857  1.1209
12943TIP3    H260321   3.152   6.169  13.599  0.4107 -0.0423 -3.1649
12944TIP3   OH260322   0.930   2.614   0.421 -0.0848 -0.1563  0.4443
12944TIP3    H160323   0.995   2.544   0.429 -0.4744 -0.3971  1.7441
12944TIP3    H260324   0.879   2.608   0.501 -1.7742 -0.0027 -0.5855
12945TIP3   OH260325   0.742   6.451   1.124 -0.3589  0.2815 -0.4706
12945TIP3    H160326   0.770   6.362   1.144 -1.1225  0.0154 -0.5517
12945TIP3    H260327   0.770   6.466   1.034  0.2948  0.3447 -0.2631
12946TIP3   OH260328   0.245   6.624   5.244  0.1939 -0.6526  0.0934
12946TIP3    H160329   0.226   6.530   5.235 -2.5232 -0.1419 -0.3554
12946TIP3    H260330   0.250   6.656   5.155  1.3405 -0.3577  0.2434
12947TIP3   OH260331   5.421   6.680   5.331  0.2362 -0.1516 -0.5808
12947TIP3    H160332   5.471   6.751   5.292  0.8879  0.0806  0.6433
12947TIP3    H260333   5.389   6.715   5.414  1.0596 -1.4459  0.3164
12948TIP3   OH260334   1.965   1.654   3.108 -0.2457 -0.0037  0.1811
12948TIP3    H160335   1.894   1.640   3.044  0.5852 -0.2810 -0.7009
12948TIP3    H260336   2.045   1.645   3.057  0.4442  2.2882  0.7503
12949TIP3   OH260337   2.985   0.264  14.576  0.2509  0.5273 -0.0300
12949TIP3    H160338   2.985   0.348  14.622  1.3305  1.0137 -0.8608
12949TIP3    H260339   3.031   0.282  14.494 -0.9351 -0.4912 -0.9632
12950TIP3   OH260340   6.584   1.986   2.765 -0.0221 -0.5926 -0.3610
12950TIP3    H160341   6.657   2.007   2.707  0.0164 -2.9111 -1.2345
12950TIP3    H260342   6.606   1.901   2.802 -1.3591 -0.4188  0.9130
12951TIP3   OH260343   1.167   3.467  11.147 -0.3132  0.0237 -0.3233
12951TIP3    H160344   1.233   3.407  11.183 -0.0848  0.1790 -0.4829
12951TIP3    H260345   1.175   3.546  11.199 -1.0850 -0.3255  0.3386
12952TIP3   OH260346   4.534   0.263   0.897 -0.0006 -0.8444 -0.0392
12952TIP3    H160347   4.626   0.246   0.919  0.0598  0.5829  0.9877
12952TIP3    H260348   4.514   0.345   0.942 -1.3702 -0.3794 -1.4201
12953TIP3   OH260349   5.638   6.102  13.266  0.0402  0.1131 -0.4603
12953TIP3    H160350   5.555   6.060  13.241  1.8421 -4.5539  0.3708
12953TIP3    H260351   5.693   6.093  13.188  0.5355  0.9396 -0.2129
12954TIP3   OH260352   1.310   3.306  14.190 -0.3936 -0.4329  0.0926
12954TIP3    H160353   1.226   3.304  14.145 -0.8574  1.5826  0.7617
12954TIP3    H260354   1.335   3.214  14.198 -1.3672 -0.9764 -2.2062
12955TIP3   OH260355   3.652   2.937  16.658 -0.1934 -0.0441 -0.3552
12955TIP3    H160356   3.596   3.010  16.631  0.3439 -0.3324 -2.3872
12955TIP3    H260357   3.596   2.884  16.715 -0.6466  1.8324  1.0628
12956TIP3   OH260358   1.982   5.304   3.793  0.0195 -0.3988 -0.0810
12956TIP3    H160359   1.969   5.213   3.765  0.5802  0.3397 -3.1104
12956TIP3    H260360   1.894   5.340   3.801 -0.1902 -0.6140 -1.2370
12957TIP3   OH260361   3.797   5.420  12.404  0.6174  0.0659  0.3991
12957TIP3    H160362   3.828   5.349  12.461 -0.1886 -0.4956  0.1523
12957TIP3    H260363   3.827   5.396  12.317 -0.8486 -0.7218  0.0774
12958TIP3   OH260364   3.378   0.581  15.102  0.1088 -0.3870 -0.3090
12958TIP3    H160365   3.334   0.630  15.172 -1.6440 -0.7807 -1.0794
12958TIP3    H260366   3.453   0.539  15.145 -0.2892  0.2724  1.0763
12959TIP3   OH260367   3.086   6.601   4.863  0.1049  0.2745  0.0024
12959TIP3    H160368   3.137   6.544   4.805 -2.4495 -2.0182 -0.1837
12959TIP3    H260369   3.067   6.547   4.939 -1.7528  1.1075  0.1904
12960TIP3   OH260370   2.884   3.221   6.584  0.3970 -0.3270  0.2126
12960TIP3    H160371   2.965   3.272   6.591  0.5867 -0.2499 -1.8137
12960TIP3    H260372   2.909   3.141   6.538 -0.4531 -0.8683  0.6588
12961TIP3   OH260373   3.049   1.597   5.181 -0.3678 -0.7968  0.0345
12961TIP3    H160374   3.144   1.597   5.184 -0.2982 -2.7428 -0.4445
12961TIP3    H260375   3.024   1.689   5.170  1.3852 -0.1262  1.3663
12962TIP3   OH260376   0.319   1.173   0.895  0.3290  0.2332 -0.1346
12962TIP3    H160377   0.360   1.251   0.932  0.1735  0.2218  0.0643
12962TIP3    H260378   0.286   1.203   0.810 -2.1098  1.1544  1.0332
12963TIP3   OH260379   5.757   4.632   4.361 -0.2796  0.3246  0.1090
12963TIP3    H160380   5.789   4.549   4.327  0.2272  0.3500  0.5214
12963TIP3    H260381   5.831   4.692   4.351 -1.3286  1.3594 -2.3602
12964TIP3   OH260382   3.178   2.271  11.701  0.7386 -0.2074  0.1045
12964TIP3    H160383   3.237   2.200  11.728  0.5858 -0.2985  0.2034
12964TIP3    H260384   3.171   2.262  11.606  2.9426  1.4008 -0.2768
12965TIP3   OH260385   1.546   5.554   3.198  0.2725 -0.2809  0.4268
12965TIP3    H160386   1.494   5.515   3.127  0.4085 -0.0826  0.2190
12965TIP3    H260387   1.622   5.496   3.207 -0.1391 -0.7542  0.9481
12966TIP3   OH260388   4.240   3.816  15.097  0.2278  0.0674  0.5205
12966TIP3    H160389   4.236   3.839  15.004 -0.6373 -2.1048 -0.0289
12966TIP3    H260390   4.334   3.819  15.118  0.7036 -1.7085 -1.0783
12967TIP3   OH260391   4.815   3.799   3.067 -0.2113  0.5592  0.2615
12967TIP3    H160392   4.754   3.872   3.072 -2.0169 -0.9497  1.8774
12967TIP3    H260393   4.823   3.780   2.974 -1.5816  1.3134 -0.0253
12968TIP3   OH260394   1.396   4.154  11.572  0.1522 -0.1651 -0.4627
12968TIP3    H160395   1.351   4.180  11.492 -2.6595 -0.7895  0.8159
12968TIP3    H260396   1.449   4.079  11.547 -0.1942  0.0421 -1.8550
12969TIP3   OH260397   6.558   1.382  16.396  0.3368 -0.2315  0.4076
12969TIP3    H160398   6.464   1.381  16.375  0.5385 -0.1971 -0.5065
12969TIP3    H260399   6.578   1.474  16.410 -0.2593 -0.4080  2.9762
12970TIP3   OH260400   2.236   6.797  15.350 -0.7911 -0.2089 -0.0625
12970TIP3    H160401   2.246   6.719  15.295 -2.1508 -1.2247  1.0730
12970TIP3    H260402   2.326   6.827  15.364 -0.0434 -2.6845  0.9986
12971TIP3   OH260403   4.107   4.449   5.860 -0.0962  0.3471 -0.2912
12971TIP3    H160404   4.133   4.369   5.905  0.2374  1.5576  1.8345
12971TIP3    H260405   4.172   4.514   5.888 -0.5306  1.4377 -1.7022
12972TIP3   OH260406   1.162   4.957   2.926 -0.2715 -0.4004  0.6556
12972TIP3    H160407   1.255   4.980   2.930 -0.9516  2.7502  1.0094
12972TIP3    H260408   1.159   4.865   2.953  2.8352 -1.0269 -0.6867
12973TIP3   OH260409   5.008   3.999   2.052  0.3075  0.0473 -0.0356
12973TIP3    H160410   4.988   3.961   1.966 -0.0864 -1.1050  0.5389
12973TIP3    H260411   5.031   3.923   2.106  2.7498  0.9407  0.3184
12974TIP3   OH260412   6.795   2.265  14.938  0.3844 -0.1046 -0.0733
12974TIP3    H160413   6.763   2.275  15.027  0.1585  2.6403 -0.4022
12974TIP3    H260414   6.833   2.177  14.937 -0.0779 -0.4242  2.5516
12975TIP3   OH260415   0.215   5.529   4.019 -0.0570  0.3384  0.0259
12975TIP3    H160416   0.223   5.521   4.114 -1.4285  0.4280  0.1673
12975TIP3    H260417   0.260   5.452   3.984  0.3309  0.2354  0.7389
12976TIP3   OH260418   6.454   5.967   4.378  0.3292 -0.5909  0.0743
12976TIP3    H160419   6.437   6.050   4.422 -0.1762 -1.2861  1.2231
12976TIP3    H260420   6.442   5.986   4.285  2.0623  1.0561  0.1288
12977TIP3   OH260421   6.419   0.250   4.200 -0.4081 -0.1151 -0.7327
12977TIP3    H160422   6.408   0.318   4.134 -0.1968 -0.2234 -0.8789
12977TIP3    H260423   6.388   0.290   4.281  1.1036  0.6721 -0.5195
12978TIP3   OH260424   2.148   4.477   3.114 -0.1234 -0.2976  0.1391
12978TIP3    H160425   2.101   4.410   3.064 -0.7788  0.5651 -0.4291
12978TIP3    H260426   2.079   4.521   3.164  0.5952 -1.6610  2.4847
12979TIP3   OH260427   6.014   4.972  16.443  0.3586 -0.0463  0.1998
12979TIP3    H160428   6.088   5.033  16.445  0.6474 -0.4016  1.0604
12979TIP3    H260429   5.945   5.018  16.395  1.3268  0.0637 -1.1441
12980TIP3   OH260430   1.430   1.647  11.768  0.1917  0.3244 -1.0890
12980TIP3    H160431   1.474   1.715  11.817 -1.0455  0.3638  0.0285
12980TIP3    H260432   1.365   1.694  11.715 -0.1115  0.0897 -0.9299
12981TIP3   OH260433   6.212   4.132  12.427  0.2718  0.1818 -0.1920
12981TIP3    H160434   6.206   4.036  12.420  1.2628  0.0494  0.4768
12981TIP3    H260435   6.246   4.147  12.515 -1.2358  1.2329  0.2452
12982TIP3   OH260436   5.403   0.511   1.195  0.1141  0.6396 -0.5080
12982TIP3    H160437   5.423   0.563   1.273 -1.3691  0.1439  0.2445
12982TIP3    H260438   5.307   0.509   1.192  0.0253 -2.9577  0.1495
12983TIP3   OH260439   2.832   5.416   4.918 -0.1045 -0.3122 -0.5253
12983TIP3    H160440   2.833   5.405   5.013 -2.5941 -1.0920 -0.5098
12983TIP3    H260441   2.753   5.469   4.901  1.2073  1.2707 -2.0700
12984TIP3   OH260442   5.524   4.664  17.019  0.1122 -0.1340  0.1688
12984TIP3    H160443   5.502   4.751  17.052 -0.7952 -0.1877 -0.2762
12984TIP3    H260444   5.598   4.636  17.073  0.5919  1.0215  0.1476
12985TIP3   OH260445   5.962   2.998  12.848 -0.0569  0.0025 -0.1808
12985TIP3    H160446   6.028   2.947  12.802  0.6573  0.4893  0.2725
12985TIP3    H260447   5.951   3.077  12.795  0.1841  0.2000  0.0559
12986TIP3   OH260448   5.013   2.412  17.139 -0.0510  0.2256  0.1067
12986TIP3    H160449   5.029   2.459  17.221 -0.7120  0.0213  0.3608
12986TIP3    H260450   5.078   2.342  17.138  1.2801  1.4338 -0.5211
12987TIP3   OH260451   3.406   4.535   2.127  0.0208 -0.3270  0.2141
12987TIP3    H160452   3.346   4.566   2.059  0.7941 -0.2413 -0.4451
12987TIP3    H260453   3.396   4.598   2.198 -0.6809 -0.3240  0.1182
12988TIP3   OH260454   3.138   6.482   2.515 -0.4845  0.3782  0.8202
12988TIP3    H160455   3.091   6.452   2.438 -1.7362  0.1341  1.6430
12988TIP3    H260456   3.193   6.408   2.541  1.9104  1.2749 -1.2239
12989TIP3   OH260457   1.520   4.594  12.470  0.1476 -0.1675 -0.5273
12989TIP3    H160458   1.600   4.643  12.491 -0.2576 -0.3103  1.6138
12989TIP3    H260459   1.470   4.653  12.415  0.1632  1.4618  1.0910
12990TIP3   OH260460   2.825   2.723   0.342 -0.6845 -0.0282 -0.8630
12990TIP3    H160461   2.918   2.732   0.321 -0.2825 -0.3454  0.6811
12990TIP3    H260462   2.801   2.805   0.386 -0.7450 -0.5339  0.0688
12991TIP3   OH260463   2.603   5.616   3.996  0.3616 -0.1415 -0.0190
12991TIP3    H160464   2.674   5.657   3.947  0.5754  1.2890  1.4287
12991TIP3    H260465   2.647   5.555   4.055  0.1949 -0.8703 -0.6218
12992TIP3   OH260466   2.622   0.350   6.515  0.4220  0.6444  0.0673
12992TIP3    H160467   2.659   0.266   6.490 -0.4808  0.1457  0.3612
12992TIP3    H260468   2.685   0.415   6.483  0.8563 -0.1114 -0.6425
12993TIP3   OH260469   3.543   3.667   0.795  0.6145  0.1765  0.0199
12993TIP3    H160470   3.611   3.735   0.792  0.3443  0.4784  0.5127
12993TIP3    H260471   3.471   3.702   0.743 -0.1397  0.9799  1.5373
12994TIP3   OH260472   3.163   0.216  17.070  0.0402  0.1075  0.4480
12994TIP3    H160473   3.080   0.253  17.040 -0.9816 -1.4477  1.2452
12994TIP3    H260474   3.154   0.122  17.055  2.4409  0.0607 -1.2606
12995TIP3   OH260475   5.101   2.410   3.308  0.1359 -0.4332 -0.1888
12995TIP3    H160476   5.024   2.399   3.363  1.2911 -3.2770  1.1031
12995TIP3    H260477   5.068   2.442   3.224 -2.5520 -2.2292  0.0802
12996TIP3   OH260478   2.797   6.455  12.341 -0.3264  0.5671  0.4551
12996TIP3    H160479   2.833   6.430  12.256  1.2703 -0.5936  1.4066
12996TIP3    H260480   2.736   6.526  12.322  1.1070  1.3639 -1.4792
12997TIP3   OH260481   2.088   1.863  15.906  0.1302  0.0405  0.1111
12997TIP3    H160482   2.058   1.954  15.902 -1.7793 -0.5422  0.2748
12997TIP3    H260483   2.184   1.869  15.907  0.1007  1.9799 -1.6564
12998TIP3   OH260484   0.282   4.169   0.429 -0.2929 -0.6836 -0.4068
12998TIP3    H160485   0.208   4.220   0.396 -0.0201 -0.2995 -0.4247
12998TIP3    H260486   0.286   4.190   0.522 -0.3147 -0.8423 -0.3691
12999TIP3   OH260487   3.629   2.030   4.842  0.3210  0.1483 -0.1234
12999TIP3    H160488   3.711   1.985   4.823  0.5639 -0.3505  1.8860
12999TIP3    H260489   3.622   2.028   4.938 -0.8793  2.2404 -0.1024
13000TIP3   OH260490   6.457   1.648   2.668 -0.5889  0.2194 -0.2569
13000TIP3    H160491   6.438   1.661   2.575  0.6358 -0.2721 -0.5942
13000TIP3    H260492   6.388   1.590   2.698 -1.9605  1.6622 -0.4356
13001TIP3   OH260493   6.566   0.218  16.976 -0.1667 -0.2544 -0.2196
13001TIP3    H160494   6.572   0.228  16.880 -1.0203 -1.0631 -0.3649
13001TIP3    H260495   6.640   0.269  17.009  0.0970  0.1080 -1.3066
13002TIP3   OH260496   0.958   1.307   3.997  0.4253 -0.7349 -0.4403
13002TIP3    H160497   0.929   1.293   4.087  1.8653  2.6478  0.7043
13002TIP3    H260498   0.942   1.223   3.953 -2.8199 -1.7358  2.2152
13003TIP3   OH260499   5.229   4.489   4.792 -0.1060 -0.2112  0.6190
13003TIP3    H160500   5.212   4.521   4.703 -1.4111 -3.1720 -0.3418
13003TIP3    H260501   5.201   4.560   4.849 -1.8978  0.7522 -1.3347
13004TIP3   OH260502   5.060   6.217  13.256  0.7608  0.5736 -0.3500
13004TIP3    H160503   5.018   6.250  13.335  0.6150  0.9308 -0.5755
13004TIP3    H260504   5.154   6.227  13.273  0.8857 -2.0808  0.9740
13005TIP3   OH260505   6.546   5.675   0.256  0.2135 -0.0664  0.4177
13005TIP3    H160506   6.567   5.765   0.230 -0.7892  0.0712  0.0333
13005TIP3    H260507   6.475   5.649   0.197  1.3473 -1.5847 -0.3652
13006TIP3   OH260508   0.021   4.288   2.334 -0.1683  0.0190 -0.2951
13006TIP3    H160509   0.059   4.204   2.307 -0.1600  0.1854 -0.8017
13006TIP3    H260510   0.085   4.324   2.395  0.0459 -0.1323 -0.4275
13007TIP3   OH260511   4.889   0.021   2.785  0.6072  0.1357  0.3201
13007TIP3    H160512   4.957  -0.039   2.817 -0.1660 -0.7688  0.2853
13007TIP3    H260513   4.897   0.018   2.690  0.6822  0.2374  0.3221
13008TIP3   OH260514   5.782   2.329  11.567 -0.0331 -0.1491  0.0437
13008TIP3    H160515   5.767   2.280  11.648  0.4923 -2.7935 -1.3517
13008TIP3    H260516   5.862   2.292  11.530 -0.6209  0.4958 -2.0315
13009TIP3   OH260517   4.330   0.687   0.396 -0.8366 -0.2268  0.4765
13009TIP3    H160518   4.258   0.718   0.451 -0.4353  0.6673  0.5254
13009TIP3    H260519   4.400   0.750   0.411 -0.4525 -0.4081 -0.4733
13010TIP3   OH260520   5.281   3.433   6.389 -0.2593  0.5889 -0.7389
13010TIP3    H160521   5.274   3.414   6.483 -0.6974 -0.7617 -1.0148
13010TIP3    H260522   5.263   3.349   6.347 -2.8677  1.7165 -2.1264
13011TIP3   OH260523   5.632   1.011  14.181  1.1539  0.5490 -0.1856
13011TIP3    H160524   5.584   0.957  14.244  1.0960 -1.3717 -1.7555
13011TIP3    H260525   5.720   1.018  14.218  1.0383 -0.2902  0.2823
13012TIP3   OH260526   6.498   4.490   2.814 -0.0923 -0.0477  0.9425
13012TIP3    H160527   6.486   4.400   2.785  0.1734  0.4166 -0.7068
13012TIP3    H260528   6.445   4.497   2.893 -1.1506 -1.2826  0.3722
13013TIP3   OH260529   1.463   0.225  14.599  0.6030  0.0653  0.0804
13013TIP3    H160530   1.473   0.160  14.668 -0.1075  1.2127  1.3153
13013TIP3    H260531   1.369   0.247  14.600  0.7333  0.7126 -0.6874
13014TIP3   OH260532   2.344   2.641  16.668 -0.1114  0.4011  0.2434
13014TIP3    H160533   2.433   2.674  16.682  0.6311 -0.7938 -1.3661
13014TIP3    H260534   2.334   2.572  16.734  0.0618  0.6649  0.5522
13015TIP3   OH260535   6.394   5.600  15.931 -0.5588  0.4185 -0.1974
13015TIP3    H160536   6.325   5.533  15.937 -0.1552 -0.1979 -1.9695
13015TIP3    H260537   6.363   5.671  15.988  0.3795 -2.3205  4.2433
13016TIP3   OH260538   5.228   4.240  16.950  0.7386 -0.3070 -0.2409
13016TIP3    H160539   5.187   4.178  16.890  1.1336 -0.0989 -0.7348
13016TIP3    H260540   5.298   4.191  16.992  1.3380 -0.0851 -0.9593
13017TIP3   OH260541   3.391   5.675  14.426  0.1621 -0.3165 -0.2659
13017TIP3    H160542   3.462   5.693  14.488  0.4239  1.3211 -0.9960
13017TIP3    H260543   3.433   5.627  14.355  1.1591  2.5493 -1.7923
13018TIP3   OH260544   3.091   1.303   4.623 -0.3741  0.1272 -0.2203
13018TIP3    H160545   3.037   1.369   4.579 -2.0689 -1.0032  0.0661
13018TIP3    H260546   3.167   1.291   4.566 -0.1453  2.1114 -0.4030
13019TIP3   OH260547   6.350   5.709   5.595  0.3612 -0.0948 -0.6946
13019TIP3    H160548   6.356   5.633   5.653  2.9179  0.2803 -0.3641
13019TIP3    H260549   6.429   5.705   5.541  0.4576  2.1760 -0.8238
13020TIP3   OH260550   2.695   0.083   5.475  0.2632  0.3148  0.0049
13020TIP3    H160551   2.676  -0.010   5.479  0.0954  0.3965  2.0223
13020TIP3    H260552   2.780   0.089   5.430  0.1010 -0.7720 -0.4564
13021TIP3   OH260553   1.901   0.750   0.560 -0.2457 -0.1548 -0.3337
13021TIP3    H160554   1.977   0.768   0.504 -0.3318  0.7614 -0.1645
13021TIP3    H260555   1.937   0.751   0.649  0.0949 -2.6077 -0.3632
13022TIP3   OH260556   5.341   2.548   0.420  0.5425 -0.6101 -0.2480
13022TIP3    H160557   5.329   2.478   0.484 -1.0103 -0.1709 -0.0120
13022TIP3    H260558   5.424   2.588   0.443  0.6199 -1.2850  0.6826
13023TIP3   OH260559   6.425   3.808   4.420 -0.3083  0.0880  0.2207
13023TIP3    H160560   6.394   3.718   4.417  2.7993 -1.0569 -2.2047
13023TIP3    H260561   6.357   3.858   4.375 -0.0827 -1.8407 -2.4526
13024TIP3   OH260562   3.827   0.118   3.460  0.3592  0.3209 -0.1339
13024TIP3    H160563   3.771   0.175   3.407 -0.3910 -0.1020  0.1845
13024TIP3    H260564   3.803   0.030   3.433  1.0159  0.1343 -0.1210
13025TIP3   OH260565   4.230   1.477   0.647 -0.2099 -0.6177  0.0342
13025TIP3    H160566   4.279   1.559   0.645 -0.5097 -0.4494 -0.9059
13025TIP3    H260567   4.192   1.469   0.559 -0.2234 -1.7422  0.1251
13026TIP3   OH260568   4.882   0.619  16.786 -0.1973  0.4321 -0.2623
13026TIP3    H160569   4.960   0.636  16.732 -1.3135  0.5848 -1.8955
13026TIP3    H260570   4.836   0.703  16.788 -0.9801  0.0181 -0.4225
13027TIP3   OH260571   6.793   6.239  16.157 -0.1527 -0.0528 -0.3847
13027TIP3    H160572   6.768   6.299  16.086 -1.9655  2.0237  1.8269
13027TIP3    H260573   6.714   6.187  16.173  0.5849 -1.2514 -0.5647
13028TIP3   OH260574   1.830   6.689  17.004 -0.2726  0.0175  0.3839
13028TIP3    H160575   1.822   6.740  17.084 -1.8351  1.4479 -0.6309
13028TIP3    H260576   1.741   6.661  16.983  0.1265 -0.4558 -0.7875
13029TIP3   OH260577   1.644   3.181  11.267  0.4181  0.2078  0.4554
13029TIP3    H160578   1.717   3.210  11.213  2.5092  0.9106  3.4098
13029TIP3    H260579   1.655   3.086  11.272  1.8093  0.3930  1.6457
13030TIP3   OH260580   0.392   4.897  11.905 -0.2334 -0.0585  0.2570
13030TIP3    H160581   0.346   4.962  11.958  0.7988  0.0546  1.0378
13030TIP3    H260582   0.445   4.848  11.967 -0.0389 -0.8306 -0.4995
13031TIP3   OH260583   4.177   3.503  11.712 -0.5070 -0.0491 -0.6694
13031TIP3    H160584   4.096   3.501  11.763 -0.3118  0.3747 -0.3382
13031TIP3    H260585   4.148   3.519  11.622 -0.9142 -1.5702 -0.8530
13032TIP3   OH260586   0.584   5.431   1.691 -0.3356  0.0707  0.7963
13032TIP3    H160587   0.608   5.507   1.744  0.0590  0.7632 -0.3388
13032TIP3    H260588   0.648   5.364   1.715 -0.3665  0.2511  1.4183
13033TIP3   OH260589   5.514   1.585  15.400 -0.1832 -0.4731 -0.0612
13033TIP3    H160590   5.494   1.568  15.492  0.5402  1.7300  0.5842
13033TIP3    H260591   5.603   1.620  15.402  0.0557 -0.9020 -1.6919
13034TIP3   OH260592   4.773   3.330   4.006  0.3661  0.3877 -0.1732
13034TIP3    H160593   4.848   3.274   3.986  0.8653  0.8169  0.4427
13034TIP3    H260594   4.751   3.370   3.921  0.1573 -0.5381 -0.5628
13035TIP3   OH260595   3.094   6.769  11.104  0.1237  0.5514  0.3638
13035TIP3    H160596   3.083   6.699  11.168 -0.9861 -0.0670 -0.4812
13035TIP3    H260597   3.094   6.725  11.020 -0.6221  1.5700 -0.1860
13036TIP3   OH260598   1.219   4.763  16.986 -0.0564 -0.3889  0.0670
13036TIP3    H160599   1.301   4.809  17.009 -0.7511  0.5577  0.7386
13036TIP3    H260600   1.206   4.702  17.058 -0.6242  0.4075  0.6568
13037TIP3   OH260601   5.455   0.797   5.181 -0.2050  0.1299  0.4441
13037TIP3    H160602   5.380   0.854   5.168  0.3282  0.9401  0.8373
13037TIP3    H260603   5.452   0.774   5.274  1.0360  1.6333  0.8832
13038TIP3   OH260604   6.477   1.391   3.652 -0.3455 -0.0813 -0.1858
13038TIP3    H160605   6.489   1.320   3.716  0.9645  0.7809  0.5700
13038TIP3    H260606   6.560   1.439   3.654 -1.6232  2.2408  0.2784
13039TIP3   OH260607   4.283   1.630   5.996 -0.1887  0.6070 -0.5786
13039TIP3    H160608   4.342   1.589   5.933  0.0015 -0.7487  0.4354
13039TIP3    H260609   4.325   1.616   6.080 -0.7709  1.7967 -0.0711
13040TIP3   OH260610   6.553   3.586  13.201  0.5736  0.0905 -0.1333
13040TIP3    H160611   6.640   3.550  13.221 -0.0260 -1.3093  0.0607
13040TIP3    H260612   6.512   3.598  13.287  0.5070  0.5528 -0.2320
13041TIP3   OH260613   5.160   2.862   5.736  0.0102 -0.1254  0.4420
13041TIP3    H160614   5.067   2.872   5.759 -0.0093  0.3615  0.1673
13041TIP3    H260615   5.193   2.797   5.798  0.1146  1.6020  2.2897
13042TIP3   OH260616   1.712   3.598  16.542 -0.2910  0.2701  0.1104
13042TIP3    H160617   1.684   3.689  16.527 -2.6798 -0.3510  0.4068
13042TIP3    H260618   1.633   3.554  16.572  0.4440 -2.2905 -1.4508
13043TIP3   OH260619   2.356   0.525   0.142  0.3810 -0.2602  0.5039
13043TIP3    H160620   2.408   0.589   0.094 -0.1099 -0.1934  0.0467
13043TIP3    H260621   2.362   0.445   0.090  1.7931 -0.8872  1.5785
13044TIP3   OH260622   0.699   2.000  16.862  0.4614 -0.1894 -0.1527
13044TIP3    H160623   0.641   2.046  16.923 -0.3238 -2.9367  1.3609
13044TIP3    H260624   0.763   1.956  16.918  2.0302  0.1774 -1.6003
13045TIP3   OH260625   2.600   5.009  14.052 -0.1307 -0.3546  0.1018
13045TIP3    H160626   2.560   5.056  14.125 -0.6585 -1.3209  0.4608
13045TIP3    H260627   2.526   4.969  14.006  0.2561 -0.3490 -0.5376
13046TIP3   OH260628   1.546   0.256   4.095 -0.5705  0.4908  0.5800
13046TIP3    H160629   1.508   0.242   4.008 -1.5589 -0.8526  1.2131
13046TIP3    H260630   1.604   0.332   4.083 -1.0722  0.6452 -1.1246
13047TIP3   OH260631   3.546   0.310  13.445  0.2720 -0.4110  0.1950
13047TIP3    H160632   3.463   0.277  13.411 -0.7823  2.6590 -0.5206
13047TIP3    H260633   3.567   0.251  13.517 -3.1400 -0.6908  1.1588
13048TIP3   OH260634   4.889   5.694  12.188  0.6180  1.0421 -0.5213
13048TIP3    H160635   4.976   5.725  12.161  1.3037 -0.9615 -0.7823
13048TIP3    H260636   4.902   5.663  12.278  0.5407 -0.5295 -1.0255
13049TIP3   OH260637   3.768   3.884   3.032 -0.8776  0.4896 -0.2322
13049TIP3    H160638   3.783   3.797   2.995 -1.8465 -0.5665  1.7118
13049TIP3    H260639   3.840   3.898   3.094 -0.5891  1.2033 -0.7071
13050TIP3   OH260640   5.418   2.219  16.448 -0.3377 -0.2184 -0.7743
13050TIP3    H160641   5.356   2.204  16.520 -0.9556 -1.7093 -1.5582
13050TIP3    H260642   5.455   2.132  16.430  1.2416  0.4709 -1.0074
13051TIP3   OH260643   2.501   1.985  12.392 -0.5539  0.2353 -0.6663
13051TIP3    H160644   2.583   1.938  12.384 -0.3975  0.0294  1.5585
13051TIP3    H260645   2.478   2.010  12.302 -0.2920 -3.4259 -1.8914
13052TIP3   OH260646   5.298   2.391  10.510 -0.3370 -0.5682  0.3498
13052TIP3    H160647   5.205   2.372  10.496 -0.4947 -0.5207  1.2896
13052TIP3    H260648   5.336   2.393  10.422 -1.0940 -1.2568  0.0012
13053TIP3   OH260649   0.691   2.568   1.075 -0.6858 -0.5605 -0.5601
13053TIP3    H160650   0.764   2.556   1.014 -0.4451 -1.7624 -0.0702
13053TIP3    H260651   0.656   2.654   1.054  0.3193 -0.3346 -1.4022
13054TIP3   OH260652   4.013   2.291  11.453  0.5437 -0.3136  0.3368
13054TIP3    H160653   4.063   2.280  11.372 -0.2309 -0.5654 -0.1288
13054TIP3    H260654   3.961   2.370  11.439  0.1664 -0.5364  0.4511
13055TIP3   OH260655   1.512   1.224  12.254  0.4235  0.1517 -0.6622
13055TIP3    H160656   1.452   1.292  12.286  1.8933  1.1567  0.0414
13055TIP3    H260657   1.523   1.165  12.329  3.2746  2.0947  0.6176
13056TIP3   OH260658   0.414   3.584   4.013 -0.2470  0.2609 -0.6994
13056TIP3    H160659   0.493   3.609   4.063  0.0862 -0.4200 -0.8787
13056TIP3    H260660   0.342   3.621   4.064  0.0288 -1.0931  0.7455
13057TIP3   OH260661   5.915   6.746   3.188  0.0110  0.1982  0.4625
13057TIP3    H160662   5.967   6.826   3.186 -0.8393  0.7502 -0.5054
13057TIP3    H260663   5.974   6.679   3.154  0.2608  0.7124 -0.1351
13058TIP3   OH260664   5.711   0.682   0.251 -0.4376  0.0398  0.4718
13058TIP3    H160665   5.746   0.740   0.184 -1.5334  1.2560  0.8945
13058TIP3    H260666   5.642   0.633   0.208  0.1993 -0.6458  0.2220
13059TIP3   OH260667   5.132   1.776  11.300  0.1802  0.0225 -0.5253
13059TIP3    H160668   5.175   1.811  11.378  1.1038  0.5056 -1.2270
13059TIP3    H260669   5.179   1.816  11.227 -1.9492  1.2138 -1.3591
13060TIP3   OH260670   1.708   1.336  13.257 -0.7579  0.2148 -0.0373
13060TIP3    H160671   1.688   1.246  13.230  0.2068 -0.3546  1.0567
13060TIP3    H260672   1.794   1.355  13.219 -1.0405  0.7636 -0.4258
13061TIP3   OH260673   6.698   6.536  16.121  0.7242  0.0345 -0.0359
13061TIP3    H160674   6.694   6.631  16.130  0.0619  0.0984 -0.8222
13061TIP3    H260675   6.635   6.503  16.185 -0.2813  0.2250 -0.8946
13062TIP3   OH260676   2.046   5.825   1.737 -0.0350  0.5864 -0.3636
13062TIP3    H160677   2.031   5.882   1.661 -0.3618  2.0780  0.7660
13062TIP3    H260678   1.959   5.816   1.777 -0.2907 -1.9832 -1.3106
13063TIP3   OH260679   0.512   0.051  12.779  0.7431 -0.2507  0.6468
13063TIP3    H160680   0.515   0.084  12.690 -0.2163  0.4298  0.8559
13063TIP3    H260681   0.513   0.129  12.834 -1.7234 -0.4871  1.1386
13064TIP3   OH260682   5.643   5.010  14.537 -0.5308 -0.2269 -0.2312
13064TIP3    H160683   5.661   4.922  14.505 -0.0110 -0.4358  0.6276
13064TIP3    H260684   5.549   5.023  14.521 -0.2833 -0.2884 -1.9091
13065TIP3   OH260685   2.106   3.600   1.313  0.0214  0.2502 -0.6873
13065TIP3    H160686   2.156   3.523   1.284 -1.2047 -0.7437 -0.2301
13065TIP3    H260687   2.173   3.659   1.350  1.0288 -0.3903 -1.4294
13066TIP3   OH260688   4.852   5.713   3.664  0.1722 -0.0737 -1.0411
13066TIP3    H160689   4.898   5.661   3.729 -0.6494 -1.2237 -1.3509
13066TIP3    H260690   4.901   5.700   3.583  0.9087  0.9636 -0.7809
13067TIP3   OH260691   3.796   1.886  17.083  0.3900  0.5490  0.2370
13067TIP3    H160692   3.870   1.947  17.077  1.8612 -1.0245  1.4339
13067TIP3    H260693   3.743   1.919  17.155 -0.3334  1.9048 -0.8709
13068TIP3   OH260694   2.785   6.485  11.956 -0.0260 -0.3536 -0.3205
13068TIP3    H160695   2.837   6.494  11.875  0.5170  0.4885  0.1033
13068TIP3    H260696   2.826   6.412  12.001  1.7437  1.1176  0.6392
13069TIP3   OH260697   2.490   3.236  14.551  0.1126 -0.4940  0.0306
13069TIP3    H160698   2.519   3.314  14.599 -2.6290  0.9263 -0.4322
13069TIP3    H260699   2.571   3.192  14.527  1.7388 -0.0765  3.8799
13070TIP3   OH260700   2.077   4.852   3.040 -0.2665 -0.5705  0.1135
13070TIP3    H160701   2.019   4.923   3.014  0.7346 -0.1455 -1.0106
13070TIP3    H260702   2.053   4.834   3.131  0.0080  1.7438  0.6900
13071TIP3   OH260703   0.506   3.102  14.630 -0.1770  0.0732 -0.4817
13071TIP3    H160704   0.598   3.126  14.642  0.1000 -0.6950 -0.9675
13071TIP3    H260705   0.508   3.033  14.564 -1.1059  0.0165 -0.4647
13072TIP3   OH260706   6.641   2.927   6.164  0.2730 -0.6178  0.5093
13072TIP3    H160707   6.670   3.000   6.218 -2.3951 -0.9815  2.7125
13072TIP3    H260708   6.664   2.951   6.075  1.5607  1.7934  1.4104
13073TIP3   OH260709   5.123   2.419   5.002  0.2916 -0.3390  0.1682
13073TIP3    H160710   5.038   2.376   5.009 -0.2040  0.6553  0.3912
13073TIP3    H260711   5.161   2.383   4.922  0.3483 -1.9509  0.8717
13074TIP3   OH260712   4.907   5.174   1.684 -0.0244  0.2558  0.2078
13074TIP3    H160713   4.943   5.110   1.746 -1.2529 -0.2983  0.3714
13074TIP3    H260714   4.813   5.173   1.701 -0.1232  1.7472 -0.1420
13075TIP3   OH260715   2.140   6.224  17.046  0.2853  0.2676  0.8530
13075TIP3    H160716   2.101   6.181  16.970  1.6147 -0.3318  0.4869
13075TIP3    H260717   2.115   6.316  17.036 -0.9923 -0.0780  0.6294
13076TIP3   OH260718   1.607   6.209  15.688 -0.0460 -0.2464 -0.0548
13076TIP3    H160719   1.667   6.154  15.740 -0.6688 -0.3283  0.5884
13076TIP3    H260720   1.580   6.279  15.748 -1.1302 -0.5981 -0.1126
13077TIP3   OH260721   5.180   3.456  12.936 -0.2345 -0.5456  0.2005
13077TIP3    H160722   5.144   3.436  12.850 -0.7846 -2.3813  0.7969
13077TIP3    H260723   5.274   3.446  12.927 -0.2747 -0.5089 -0.2370
13078TIP3   OH260724   3.055   1.554  16.361  0.5357  0.0732 -0.3449
13078TIP3    H160725   3.037   1.553  16.267  0.4229  1.8741 -0.3686
13078TIP3    H260726   3.025   1.640  16.390 -2.6357 -1.6156  1.9906
13079TIP3   OH260727   3.847   4.520   3.951  0.2219  0.0569  0.1780
13079TIP3    H160728   3.822   4.463   4.024 -0.4765  1.2074  0.8913
13079TIP3    H260729   3.934   4.491   3.925 -0.3950 -1.7737  0.0296
13080TIP3   OH260730   0.109   0.487   1.740  0.2863  0.8768  0.1119
13080TIP3    H160731   0.176   0.422   1.718 -0.8434 -0.0016 -0.8821
13080TIP3    H260732   0.064   0.504   1.657 -0.9423  1.1676  0.8051
13081TIP3   OH260733   2.070   1.320  13.517  0.1749 -0.0344  0.0208
13081TIP3    H160734   2.156   1.360  13.524  0.3893  0.1209 -2.4916
13081TIP3    H260735   2.009   1.394  13.523  0.4323  0.3551 -1.5720
13082TIP3   OH260736   2.732   0.050   3.682 -0.4905 -0.1542 -0.0423
13082TIP3    H160737   2.817   0.007   3.680  0.4936  1.7014 -1.5367
13082TIP3    H260738   2.738   0.113   3.754 -0.6243 -0.0858 -0.0887
13083TIP3   OH260739   3.929   4.225   0.704  0.5365  0.2776 -0.3919
13083TIP3    H160740   3.840   4.192   0.694  0.3474  1.1623 -1.7501
13083TIP3    H260741   3.961   4.182   0.784 -1.4682  0.7948  0.7461
13084TIP3   OH260742   5.711   6.674  11.242 -0.0698  0.7929 -0.4638
13084TIP3    H160743   5.719   6.766  11.268 -1.0048  0.8387 -0.2808
13084TIP3    H260744   5.684   6.678  11.150 -0.2088  0.7141 -0.4282
13085TIP3   OH260745   2.934   4.372   1.344  0.3585  0.0421 -0.2437
13085TIP3    H160746   2.881   4.327   1.410  0.5671  0.6730  0.3680
13085TIP3    H260747   2.881   4.447   1.318 -0.0991 -0.6626 -1.4462
13086TIP3   OH260748   4.874   0.228   0.130  0.2021 -0.0085 -0.0426
13086TIP3    H160749   4.895   0.135   0.139  0.2490  0.1411  1.8954
13086TIP3    H260750   4.958   0.271   0.113  0.0639 -0.3769 -1.8298
13087TIP3   OH260751   5.455   1.566   3.877 -0.2087 -0.0083  0.2777
13087TIP3    H160752   5.480   1.559   3.785  0.8560 -1.6642  0.6431
13087TIP3    H260753   5.382   1.505   3.887  2.5406 -3.4267  1.3745
13088TIP3   OH260754   3.011   4.536  16.698 -0.1745 -0.0364  0.3583
13088TIP3    H160755   2.996   4.599  16.768 -2.0365 -0.3068  0.2524
13088TIP3    H260756   2.935   4.478  16.701  0.8558 -1.4959 -0.3840
13089TIP3   OH260757   1.227   4.831   1.289 -0.2225  0.5626  0.1954
13089TIP3    H160758   1.186   4.864   1.368  0.0403  0.4864  0.3638
13089TIP3    H260759   1.155   4.792   1.239  0.0124 -1.9159  1.6498
13090TIP3   OH260760   6.171   0.996  15.551  0.3208  0.5028  0.0810
13090TIP3    H160761   6.176   1.090  15.566  1.6495  0.6661 -1.0625
13090TIP3    H260762   6.100   0.985  15.488 -0.4594  0.6218  0.9315
13091TIP3   OH260763   1.439   4.859   2.057 -0.9468  0.0983 -0.2411
13091TIP3    H160764   1.515   4.839   2.002 -0.7181  0.3366 -0.0086
13091TIP3    H260765   1.375   4.894   1.996 -0.4433  1.0241 -0.2569
13092TIP3   OH260766   5.406   2.141   3.564 -0.5345  0.4203  0.3767
13092TIP3    H160767   5.499   2.116   3.568 -0.3389  1.0165 -0.3046
13092TIP3    H260768   5.407   2.236   3.561 -1.0960  0.4006 -1.1860
13093TIP3   OH260769   6.496   3.152  11.121 -0.2173  0.4889  0.5228
13093TIP3    H160770   6.441   3.088  11.166 -0.6700 -0.9018 -1.8286
13093TIP3    H260771   6.573   3.103  11.094  0.2949  1.4071  0.2678
13094TIP3   OH260772   1.473   2.272  11.387 -0.3289  0.7793  0.6895
13094TIP3    H160773   1.552   2.314  11.423 -0.3102  1.4533 -0.0970
13094TIP3    H260774   1.501   2.184  11.364  0.3753  1.2054 -0.1480
13095TIP3   OH260775   1.573   3.044  11.836 -0.5414  0.3498  0.1911
13095TIP3    H160776   1.507   2.974  11.831  0.4416 -0.5601 -0.6199
13095TIP3    H260777   1.590   3.054  11.930 -0.3751 -0.8439  0.3086
13096TIP3   OH260778   0.892   4.575  16.924 -0.4112  0.7516  0.5244
13096TIP3    H160779   0.831   4.612  16.860 -0.4360 -0.8436 -0.4190
13096TIP3    H260780   0.898   4.641  16.993 -2.7374  1.1946  0.3558
13097TIP3   OH260781   1.770   0.936   2.273  0.1216 -0.3350 -0.4046
13097TIP3    H160782   1.839   0.990   2.234  0.5329  1.2011  2.1549
13097TIP3    H260783   1.689   0.971   2.237  0.5324  0.2326 -0.7916
13098TIP3   OH260784   1.390   0.433   2.986 -0.0573  0.5801 -0.4733
13098TIP3    H160785   1.350   0.479   3.060 -2.6612  1.4355 -2.2938
13098TIP3    H260786   1.382   0.494   2.913  1.7135 -0.5528 -1.6933
13099TIP3   OH260787   1.360   5.520  13.842 -0.1680 -0.4552 -0.4291
13099TIP3    H160788   1.368   5.551  13.932 -1.4877 -0.8862 -0.1408
13099TIP3    H260789   1.277   5.556  13.811 -0.4017 -1.4299 -0.9931
13100TIP3   OH260790   6.195   1.371   2.914 -0.1375 -0.2898 -0.4332
13100TIP3    H160791   6.262   1.312   2.949 -1.2412 -1.6589 -0.5102
13100TIP3    H260792   6.193   1.445   2.975  0.6405 -0.7871  0.2042
13101TIP3   OH260793   0.343   0.593  13.372 -0.4964  0.7389 -0.3572
13101TIP3    H160794   0.273   0.576  13.435  1.2036 -0.4713  1.3074
13101TIP3    H260795   0.422   0.558  13.413  0.7348 -0.1136 -3.1565
13102TIP3   OH260796   4.709   4.326   2.983 -0.0436 -0.0751 -0.2391
13102TIP3    H160797   4.626   4.305   2.940 -0.7446  3.7033 -1.0061
13102TIP3    H260798   4.776   4.289   2.925 -1.1164 -0.6264 -1.1742
13103TIP3   OH260799   4.011   0.040  14.044  0.4051 -0.1432 -0.4505
13103TIP3    H160800   3.975  -0.017  13.977  1.8780  0.4216 -1.7788
13103TIP3    H260801   4.105   0.024  14.042  0.4937 -0.1489  1.5416
13104TIP3   OH260802   2.833   4.926   0.354  0.0086 -0.2516 -0.0153
13104TIP3    H160803   2.923   4.935   0.321  0.3637 -1.4650  0.5658
13104TIP3    H260804   2.780   4.974   0.291  1.0974  0.8165 -0.1648
13105TIP3   OH260805   3.632   6.183  13.296 -0.0969 -0.3777 -0.1915
13105TIP3    H160806   3.697   6.253  13.299 -0.6209  0.1711 -1.0688
13105TIP3    H260807   3.648   6.130  13.374 -0.2298  1.2067  0.9413
13106TIP3   OH260808   3.456   6.142   5.366  0.1419 -0.3289 -0.0489
13106TIP3    H160809   3.421   6.170   5.451  0.9537  0.4223  0.0518
13106TIP3    H260810   3.462   6.223   5.314 -0.2864 -0.7719 -0.8048
13107TIP3   OH260811   1.687   0.428  11.031  0.4235  0.0570 -0.3192
13107TIP3    H160812   1.682   0.348  10.979  1.0918  0.0403 -0.3679
13107TIP3    H260813   1.781   0.447  11.037  0.2447  1.2722 -0.9909
13108TIP3   OH260814   4.374   1.734   6.676  0.0062 -0.2928  0.2633
13108TIP3    H160815   4.349   1.653   6.721 -0.6440  0.0154  0.4628
13108TIP3    H260816   4.294   1.787   6.675  0.3615  0.2463 -0.0866
13109TIP3   OH260817   6.194   1.756  15.956  0.1005 -0.5858  0.6382
13109TIP3    H160818   6.221   1.664  15.962 -1.1930 -0.9725  0.7641
13109TIP3    H260819   6.166   1.767  15.866 -0.8926 -0.6518  0.9318
13110TIP3   OH260820   1.154   2.921  11.643  0.4769  0.1085 -0.1096
13110TIP3    H160821   1.140   3.016  11.646  0.2976  0.1051 -0.7122
13110TIP3    H260822   1.125   2.895  11.555  1.9781 -0.2792 -0.5111
13111TIP3   OH260823   0.776   3.835   4.441  0.2190 -0.6364 -0.1201
13111TIP3    H160824   0.838   3.762   4.434  1.0671 -0.0261  0.8202
13111TIP3    H260825   0.830   3.913   4.433 -0.5080 -0.1030  0.1467
13112TIP3   OH260826   5.797   2.041   4.721 -0.1656 -0.3750  0.0752
13112TIP3    H160827   5.801   2.128   4.681  0.9864 -0.2723  0.3806
13112TIP3    H260828   5.787   1.981   4.647  3.4177 -0.3207 -0.6650
13113TIP3   OH260829   5.696   3.422  11.039  0.5016 -0.1491 -0.2097
13113TIP3    H160830   5.664   3.509  11.062 -0.7280 -0.3181 -1.1746
13113TIP3    H260831   5.617   3.368  11.033  0.3694  0.1059 -5.8330
13114TIP3   OH260832   3.074   4.161  11.079  0.0241  0.1401 -0.2075
13114TIP3    H160833   3.068   4.245  11.033  1.5531  0.4603  0.1413
13114TIP3    H260834   3.126   4.105  11.021  1.0447  0.2070  0.6178
13115TIP3   OH260835   0.601   0.952   5.218 -0.5247  0.1815 -0.2262
13115TIP3    H160836   0.573   0.921   5.304 -0.1636 -2.9086 -1.0973
13115TIP3    H260837   0.681   1.002   5.235 -1.2858  0.9214  1.3384
13116TIP3   OH260838   4.837   1.305  11.867  0.0751 -0.4261  0.0831
13116TIP3    H160839   4.871   1.384  11.824  0.2822 -0.8775 -0.5904
13116TIP3    H260840   4.749   1.294  11.832 -0.0349 -0.3817  0.3392
13117TIP3   OH260841   3.977   6.221  12.572  0.2535  0.2118  0.1915
13117TIP3    H160842   4.010   6.141  12.532 -1.0512 -0.7836  1.0572
13117TIP3    H260843   3.908   6.251  12.512  1.7295  1.6032 -0.9481
13118TIP3   OH260844   0.301   3.025   5.876  0.2867 -0.5643  0.5848
13118TIP3    H160845   0.265   3.070   5.952  0.2892 -2.1560  1.5715
13118TIP3    H260846   0.224   2.993   5.829  0.2762  0.6166 -0.2395
13119TIP3   OH260847   6.755   2.285  12.004  0.3080 -0.2546  0.1407
13119TIP3    H160848   6.820   2.322  12.063 -0.5204  0.1887  0.7931
13119TIP3    H260849   6.739   2.197  12.039  2.0208 -1.1501 -1.2075
13120TIP3   OH260850   2.608   4.731   0.184  0.5436  0.0963 -0.1507
13120TIP3    H160851   2.652   4.688   0.110 -0.0960 -0.4181 -0.2360
13120TIP3    H260852   2.515   4.719   0.167  0.3646  0.8912  0.2026
13121TIP3   OH260853   1.915   3.249  16.791 -0.5157  0.2795 -0.0814
13121TIP3    H160854   1.994   3.299  16.771 -0.2562 -0.4751 -1.0274
13121TIP3    H260855   1.880   3.290  16.870  0.1065  1.4507 -0.3903
13122TIP3   OH260856   6.334   3.562   4.444  0.3335 -0.1226 -0.5172
13122TIP3    H160857   6.260   3.547   4.502  0.8520 -1.3905 -0.1326
13122TIP3    H260858   6.311   3.514   4.364 -0.2119  1.3046 -1.2481
13123TIP3   OH260859   3.833   5.938  15.560  0.0330 -0.3751  0.2352
13123TIP3    H160860   3.921   5.945  15.597 -0.8019 -0.6184  2.3913
13123TIP3    H260861   3.798   5.857  15.596 -2.0665  1.0875  1.7841
13124TIP3   OH260862   0.107   6.201  12.748 -0.1248  0.4920 -0.0814
13124TIP3    H160863   0.194   6.194  12.785  0.1807 -2.6207 -1.0938
13124TIP3    H260864   0.102   6.291  12.714  3.0878  0.4654 -0.9210
13125TIP3   OH260865   1.981   2.840  14.522  0.4128 -0.5315 -0.1774
13125TIP3    H160866   1.991   2.747  14.544 -1.6932 -0.6471  0.5151
13125TIP3    H260867   2.066   2.879  14.544  1.1257 -2.1544  0.1527
13126TIP3   OH260868   1.236   1.157   3.906 -0.2224 -0.1142  0.0751
13126TIP3    H160869   1.222   1.251   3.910 -0.3327 -0.1638  1.0220
13126TIP3    H260870   1.213   1.133   3.816  0.2645  0.8278 -0.3069
13127TIP3   OH260871   5.396   2.306  14.164  0.6300  0.0921 -0.1981
13127TIP3    H160872   5.477   2.318  14.113 -0.0417  1.6086 -0.9737
13127TIP3    H260873   5.371   2.215  14.148  1.7334 -0.1504 -0.6307
13128TIP3   OH260874   3.060   0.649  14.711  0.9358  0.2513 -0.4880
13128TIP3    H160875   3.078   0.600  14.631  2.1456  1.8611 -1.2774
13128TIP3    H260876   3.133   0.627  14.769  0.5884 -0.1546 -0.2036
13129TIP3   OH260877   1.699   1.777  13.009 -0.7171 -0.1564  0.3827
13129TIP3    H160878   1.622   1.834  13.001 -1.1495 -0.7105  0.5070
13129TIP3    H260879   1.759   1.808  12.942 -1.3423 -0.1623 -0.1917
13130TIP3   OH260880   1.387   4.177   1.784 -0.3113 -0.4199 -0.1602
13130TIP3    H160881   1.362   4.265   1.759 -0.4913  0.0454  1.5478
13130TIP3    H260882   1.305   4.129   1.790 -0.2676 -0.5333 -0.4414
13131TIP3   OH260883   6.267   0.255   2.654  0.1851  0.6258  0.0588
13131TIP3    H160884   6.348   0.206   2.671 -0.1971  0.4833  1.6016
13131TIP3    H260885   6.212   0.194   2.604  0.0979 -0.1849  1.1093
13132TIP3   OH260886   6.495   4.681  10.817 -0.4166  0.2742  0.0949
13132TIP3    H160887   6.563   4.684  10.751  0.6325 -0.0396  1.1239
13132TIP3    H260888   6.413   4.680  10.768  0.2687  1.7278 -1.1450
13133TIP3   OH260889   6.414   0.742   3.955 -0.2836 -0.1345  0.0692
13133TIP3    H160890   6.488   0.796   3.928 -0.4639 -0.5452 -1.3417
13133TIP3    H260891   6.347   0.805   3.982 -0.3598  0.3761 -1.2212
13134TIP3   OH260892   1.456   0.430  12.221 -0.2297  0.0858 -0.0907
13134TIP3    H160893   1.541   0.421  12.180 -0.3844 -0.5297 -0.2878
13134TIP3    H260894   1.398   0.460  12.151  0.0857  1.8172  0.3473
13135TIP3   OH260895   2.663   6.635  11.552  0.5480 -0.2632  0.2624
13135TIP3    H160896   2.579   6.628  11.506  1.0246  1.1945 -0.8963
13135TIP3    H260897   2.716   6.692  11.497  1.6258  0.4616  1.9777
13136TIP3   OH260898   1.861   5.053   2.978  0.0669 -0.1861 -0.1799
13136TIP3    H160899   1.834   4.992   2.910 -0.0158 -0.2678 -0.0729
13136TIP3    H260900   1.857   5.139   2.936 -2.4415  0.0749  0.4225
13137TIP3   OH260901   0.428   3.578   0.314  0.1449  0.3972 -0.0301
13137TIP3    H160902   0.342   3.617   0.299  0.2980  0.7260 -0.0669
13137TIP3    H260903   0.488   3.652   0.311  0.3801  0.2311  0.4464
13138TIP3   OH260904   1.625   6.781   1.583  0.0545 -0.0787 -0.8190
13138TIP3    H160905   1.569   6.799   1.508  0.8977  2.2771 -0.9691
13138TIP3    H260906   1.679   6.707   1.555  0.1684  0.5790 -2.4648
13139TIP3   OH260907   0.158   3.486  11.319  0.0507  0.0814  0.2625
13139TIP3    H160908   0.128   3.530  11.399 -0.1129  0.0749  0.2071
13139TIP3    H260909   0.251   3.473  11.332 -0.1712 -0.9341  0.9468
13140TIP3   OH260910   0.895   2.473   2.276  0.4688  0.2832  0.2305
13140TIP3    H160911   0.902   2.562   2.309  1.7438  0.1154  0.4601
13140TIP3    H260912   0.838   2.429   2.339 -0.7542  1.0920 -0.2716
13141TIP3   OH260913   2.199   6.381  15.868  0.2062 -0.5673 -0.1096
13141TIP3    H160914   2.285   6.343  15.851  0.2242 -0.5175 -0.1290
13141TIP3    H260915   2.205   6.471  15.837  0.6660 -0.0472  1.3802
13142TIP3   OH260916   4.475   2.759  16.501 -0.2884  0.4482  0.1208
13142TIP3    H160917   4.403   2.720  16.451  0.0377  1.5898 -1.3075
13142TIP3    H260918   4.466   2.853  16.486  1.9745  0.5808 -0.7928
13143TIP3   OH260919   3.002   6.763   2.023 -0.1843 -0.7951  0.1543
13143TIP3    H160920   3.065   6.818   1.976  0.8102 -0.5862  1.6595
13143TIP3    H260921   2.922   6.814   2.024  0.6155  0.5231  1.1750
13144TIP3   OH260922   6.623   2.507   1.226 -0.1256 -0.3722 -0.3602
13144TIP3    H160923   6.579   2.592   1.218  1.6609  0.5216 -1.2722
13144TIP3    H260924   6.711   2.522   1.192  1.6754 -1.5066  3.2965
13145TIP3   OH260925   4.172   2.021  12.096  0.4803 -0.2371 -0.1475
13145TIP3    H160926   4.218   1.950  12.142 -2.0393 -1.3613  0.8516
13145TIP3    H260927   4.167   1.991  12.005 -1.7247 -2.1443  0.4916
13146TIP3   OH260928   0.538   1.676   3.318 -0.4767  0.0912 -0.1232
13146TIP3    H160929   0.444   1.662   3.324 -0.6708  0.4387 -1.7742
13146TIP3    H260930   0.563   1.714   3.403 -1.8786  0.3294  0.2036
13147TIP3   OH260931   5.504   1.988   1.260 -0.0461  0.4337  0.9465
13147TIP3    H160932   5.497   1.898   1.228 -0.3964  0.9730 -0.6119
13147TIP3    H260933   5.511   2.041   1.180  3.5510  1.5519  1.7854
13148TIP3   OH260934   1.039   1.803   1.658  0.7639  0.1685  0.3891
13148TIP3    H160935   1.075   1.770   1.740  1.8153 -0.7919 -0.4208
13148TIP3    H260936   1.116   1.826   1.605  0.1776 -0.5169 -0.8192
13149TIP3   OH260937   0.387   3.993  15.580 -0.2057  0.2269 -0.3472
13149TIP3    H160938   0.339   3.971  15.659  0.1965 -1.4779 -0.5498
13149TIP3    H260939   0.465   4.040  15.610  1.1755 -2.4520  0.5247
13150TIP3   OH260940   6.325   2.405  12.027 -0.6967 -0.4281 -0.2638
13150TIP3    H160941   6.264   2.466  11.984  0.2846 -0.1131 -1.2575
13150TIP3    H260942   6.410   2.447  12.019 -0.5870  0.2860  3.1947
13151TIP3   OH260943   2.103   0.146   2.292 -0.8668 -0.0386 -0.0096
13151TIP3    H160944   2.116   0.053   2.315  0.0112  0.3830  1.3404
13151TIP3    H260945   2.042   0.178   2.358  0.4455  0.8255  0.8280
13152TIP3   OH260946   0.217   3.441  10.471  0.5328 -0.0347  0.1769
13152TIP3    H160947   0.279   3.507  10.500  0.4110 -0.2706  1.0010
13152TIP3    H260948   0.131   3.476  10.494  0.3389  0.2827 -0.9390
13153TIP3   OH260949   5.389   0.478   4.212  0.0336 -0.7499  0.3230
13153TIP3    H160950   5.409   0.390   4.245 -2.8948 -1.7949 -0.3619
13153TIP3    H260951   5.344   0.520   4.286  1.4116  0.2196  0.6417
13154TIP3   OH260952   4.912   0.635  11.274 -0.3926 -0.0452  0.3299
13154TIP3    H160953   4.979   0.572  11.247 -0.6861 -0.8963  1.4795
13154TIP3    H260954   4.961   0.704  11.319 -0.1370  0.1632 -0.2695
13155TIP3   OH260955   2.223   5.583   2.025 -0.2718 -0.5089  0.1638
13155TIP3    H160956   2.129   5.593   2.017  0.0839  2.6124 -1.9606
13155TIP3    H260957   2.241   5.603   2.117 -1.5580  0.9734  0.1449
13156TIP3   OH260958   6.498   1.223   0.862  0.3408  0.3297  0.0257
13156TIP3    H160959   6.418   1.220   0.809  1.0943 -0.4754 -1.1028
13156TIP3    H260960   6.471   1.190   0.948 -0.1722 -1.7935 -0.8750
13157TIP3   OH260961   2.836   6.005  17.059 -0.2989  0.1869  0.9564
13157TIP3    H160962   2.910   5.977  17.005 -1.3007  0.3796 -0.5886
13157TIP3    H260963   2.847   5.959  17.141  1.2268 -0.2226  0.5507
13158TIP3   OH260964   2.807   4.991  15.725 -0.0482  0.6792 -0.0866
13158TIP3    H160965   2.823   4.994  15.819 -2.6430 -2.7496  0.6630
13158TIP3    H260966   2.761   5.073  15.706 -1.3447  0.5565  2.1177
13159TIP3   OH260967   1.564   3.392   3.886  0.9587 -0.2514 -1.0646
13159TIP3    H160968   1.558   3.298   3.870 -1.3012  0.1545 -3.1958
13159TIP3    H260969   1.539   3.432   3.803 -0.9714  2.2136  0.5563
13160TIP3   OH260970   0.756   5.861  13.338  0.3695 -0.7766 -0.5429
13160TIP3    H160971   0.680   5.804  13.348  0.9810 -1.5722 -0.3729
13160TIP3    H260972   0.827   5.815  13.383  0.1568  1.5889  2.5073
13161TIP3   OH260973   3.984   1.799   2.770  0.7122 -0.1063 -0.1300
13161TIP3    H160974   3.913   1.799   2.834  1.2396 -2.9774  0.6172
13161TIP3    H260975   4.042   1.869   2.798  0.7128 -0.9874  2.3706
13162TIP3   OH260976   6.572   6.252   1.751  0.5621  0.4864  0.8330
13162TIP3    H160977   6.520   6.196   1.809  1.7853  1.2692  2.7897
13162TIP3    H260978   6.605   6.193   1.684  1.3864 -1.0893  2.5339
13163TIP3   OH260979   5.401   1.382   4.586 -0.5667 -0.0112 -0.0549
13163TIP3    H160980   5.452   1.452   4.545 -0.4125 -0.4662 -0.6618
13163TIP3    H260981   5.420   1.389   4.679  0.5683 -0.1351 -0.2639
13164TIP3   OH260982   0.572   6.586   3.795 -0.5946  0.4075 -0.4863
13164TIP3    H160983   0.607   6.674   3.783  1.1199 -0.0594  0.6937
13164TIP3    H260984   0.614   6.534   3.726 -0.2984  0.2038 -0.1603
13165TIP3   OH260985   2.705   0.360   0.487 -0.0487  0.8859 -0.5918
13165TIP3    H160986   2.690   0.290   0.550  0.8818  1.0222 -0.1966
13165TIP3    H260987   2.689   0.441   0.536  0.1358  0.9792 -0.6855
13166TIP3   OH260988   1.066   0.070  12.642 -0.4714  0.3631  0.1643
13166TIP3    H160989   1.137   0.041  12.584 -1.0511  0.4081 -0.5749
13166TIP3    H260990   1.079   0.165  12.649  1.3857  0.0360  2.5329
13167TIP3   OH260991   3.345   0.312   5.654  0.0173 -0.5661  0.1975
13167TIP3    H160992   3.410   0.362   5.703  0.3008 -0.6461 -0.0909
13167TIP3    H260993   3.332   0.363   5.574 -0.4741 -0.4128  0.3753
13168TIP3   OH260994   3.472   0.983  11.647  0.2892 -0.1151  0.0972
13168TIP3    H160995   3.405   1.015  11.586  0.2121  0.1871  0.3375
13168TIP3    H260996   3.462   0.888  11.646  0.7875 -0.1756 -0.9378
13169TIP3   OH260997   3.059   0.274  16.356 -0.0708  0.4719 -0.4552
13169TIP3    H160998   3.090   0.356  16.393 -0.4341 -0.2638  1.5959
13169TIP3    H260999   2.976   0.257  16.402 -0.1320 -0.9070 -1.0297
13170TIP3   OH261000   5.187   0.320   3.553  0.1380 -0.4369  0.1374
13170TIP3    H161001   5.156   0.404   3.519  0.8995 -1.2578 -2.9874
13170TIP3    H261002   5.115   0.287   3.607 -1.5712  0.7824 -1.2774
13171TIP3   OH261003   6.536   5.373   1.468 -0.1800 -0.8317  0.5020
13171TIP3    H161004   6.493   5.425   1.399 -1.8587 -1.5702  0.9364
13171TIP3    H261005   6.465   5.322   1.507  0.6930 -0.3132  2.9262
13172TIP3   OH261006   3.652   0.981   1.383 -0.6699  0.6060  0.3688
13172TIP3    H161007   3.697   1.059   1.416 -0.2488  1.5036 -2.0925
13172TIP3    H261008   3.565   1.012   1.359 -0.2343  0.5716 -1.3760
13173TIP3   OH261009   3.980   3.346  15.295 -0.5351  0.0586 -0.2579
13173TIP3    H161010   4.037   3.283  15.250 -1.2519 -0.6527 -0.1835
13173TIP3    H261011   4.015   3.432  15.270  0.4112 -0.3630 -0.4141
13174TIP3   OH261012   2.854   3.688  12.207 -0.2260  0.9501  0.2541
13174TIP3    H161013   2.791   3.741  12.254 -0.1856  0.2337  1.1450
13174TIP3    H261014   2.801   3.628  12.154 -0.2720  1.9927 -0.9247
13175TIP3   OH261015   2.599   4.301  16.046  0.5095 -0.0879  0.0941
13175TIP3    H161016   2.667   4.234  16.051  0.0145 -0.5387  1.3281
13175TIP3    H261017   2.542   4.273  15.975  0.1831 -1.1138  0.7369
13176TIP3   OH261018   4.627   1.201   0.302 -0.4689 -0.0674 -0.1103
13176TIP3    H161019   4.556   1.243   0.351  0.1090 -1.6158  2.2050
13176TIP3    H261020   4.705   1.251   0.325 -0.2784 -0.4491  0.0696
13177TIP3   OH261021   3.103   3.322  11.670 -0.2330  0.5280  0.0144
13177TIP3    H161022   3.194   3.299  11.685  0.2902  0.2339 -3.0602
13177TIP3    H261023   3.106   3.408  11.628 -1.4646  1.0243  0.8731
13178TIP3   OH261024   5.286   4.835  15.165  0.2514  0.0436  0.5898
13178TIP3    H161025   5.370   4.791  15.177  0.2106 -0.2651 -0.2202
13178TIP3    H261026   5.238   4.818  15.246  0.9393  0.1633  1.0300
13179TIP3   OH261027   2.750   1.363  10.527 -0.6588 -0.9853 -0.5815
13179TIP3    H161028   2.707   1.410  10.598 -0.4517 -0.7020 -0.6427
13179TIP3    H261029   2.739   1.270  10.549  0.4150 -0.8989  0.4270
13180TIP3   OH261030   2.722   1.378  12.471 -0.3350 -0.1850 -0.5734
13180TIP3    H161031   2.702   1.469  12.494 -2.0897 -0.2590 -1.6450
13180TIP3    H261032   2.644   1.329  12.498  0.8753 -1.5410  0.6788
13181TIP3   OH261033   5.393   5.720  16.452 -0.2813 -0.0018  0.2258
13181TIP3    H161034   5.412   5.745  16.542 -1.8699 -1.0799  0.8928
13181TIP3    H261035   5.299   5.705  16.450 -0.1838 -0.5933 -1.4613
13182TIP3   OH261036   2.818   2.877  15.398 -0.4391 -0.1428  0.4120
13182TIP3    H161037   2.802   2.933  15.322 -0.3954 -1.1699 -0.3808
13182TIP3    H261038   2.734   2.874  15.444 -0.6481 -0.0399  0.0412
13183TIP3   OH261039   3.305   1.335   2.814  0.4145 -0.4655 -0.4094
13183TIP3    H161040   3.357   1.382   2.750  2.1607 -2.0851 -0.2767
13183TIP3    H261041   3.222   1.318   2.769 -0.6206  3.2528 -0.1800
13184TIP3   OH261042   0.577   5.370   4.710  0.5610  0.1742 -0.1237
13184TIP3    H161043   0.528   5.429   4.767  1.0352 -0.3056  0.8063
13184TIP3    H261044   0.612   5.426   4.641 -0.2265  0.7293 -0.0871
13185TIP3   OH261045   0.330   4.428  13.337  0.9314  0.3672  1.1672
13185TIP3    H161046   0.401   4.365  13.346  1.2425  0.4371 -0.4731
13185TIP3    H261047   0.373   4.511  13.318  0.4738 -0.0648 -2.4654
13186TIP3   OH261048   4.276   0.958   1.924  0.8908 -0.0038 -0.6668
13186TIP3    H161049   4.258   0.867   1.901 -0.2584  0.3487 -1.2388
13186TIP3    H261050   4.222   0.975   2.001  0.7107  0.3353 -0.8658
13187TIP3   OH261051   5.534   0.856  16.396  0.2738 -0.3809  0.1969
13187TIP3    H161052   5.478   0.933  16.383 -0.5995 -1.0432 -0.1161
13187TIP3    H261053   5.558   0.858  16.488  0.5570  0.4577  0.1086
13188TIP3   OH261054   5.428   5.235  16.369 -0.1644  0.1043 -0.3357
13188TIP3    H161055   5.365   5.172  16.404 -0.9091  1.0854  0.0996
13188TIP3    H261056   5.378   5.289  16.308  0.0844  1.2777  0.4609
13189TIP3   OH261057   3.510   1.939  13.229  0.7444 -0.5227  0.5491
13189TIP3    H161058   3.439   1.961  13.289  1.4112 -1.2407  1.6269
13189TIP3    H261059   3.466   1.902  13.153 -0.0774 -0.1721  0.8420
13190TIP3   OH261060   0.097   0.787  15.647 -0.1114 -0.2847  0.1771
13190TIP3    H161061   0.180   0.753  15.614 -0.2496 -0.3014 -0.1623
13190TIP3    H261062   0.045   0.708  15.664 -0.2769 -0.2617 -0.2000
13191TIP3   OH261063   2.379   0.586  16.762 -0.2242  0.7391  0.0668
13191TIP3    H161064   2.403   0.524  16.830  4.2747  1.1085 -0.8743
13191TIP3    H261065   2.357   0.532  16.686  1.1065  0.2528  0.0083
13192TIP3   OH261066   2.651   5.277  17.011  0.4935  1.1099 -0.0521
13192TIP3    H161067   2.733   5.310  16.973  1.7318  0.2558  1.7525
13192TIP3    H261068   2.647   5.316  17.098 -1.6326  2.0131 -0.4859
13193TIP3   OH261069   6.660   3.680   2.069  0.3222  0.0417  0.5021
13193TIP3    H161070   6.649   3.585   2.059  1.1162 -0.0782  0.7081
13193TIP3    H261071   6.584   3.717   2.024  1.4380 -0.6051 -2.1256
13194TIP3   OH261072   1.020   3.978  15.982 -0.0902 -0.1772 -0.5262
13194TIP3    H161073   0.987   3.962  15.894  1.2763  0.2035 -1.1268
13194TIP3    H261074   1.028   3.890  16.020 -0.5579 -0.3519 -0.8168
13195TIP3   OH261075   4.225   4.672   3.760  0.1941 -0.5319 -0.3504
13195TIP3    H161076   4.255   4.760   3.738 -1.5938  0.4931  0.9784
13195TIP3    H261077   4.143   4.662   3.710 -0.5958 -0.6548  0.9233
13196TIP3   OH261078   4.470   1.581   3.278 -0.0716  0.3376  0.0060
13196TIP3    H161079   4.412   1.539   3.215 -0.3761  3.2019 -1.7982
13196TIP3    H261080   4.519   1.509   3.317 -0.6488 -1.6848 -2.7060
13197TIP3   OH261081   0.644   2.780  15.757 -0.2304  0.3804  0.1608
13197TIP3    H161082   0.650   2.819  15.844  0.0018  0.4880  0.1000
13197TIP3    H261083   0.724   2.728  15.748  0.5164  1.5816 -0.5546
13198TIP3   OH261084   0.529   4.037  16.313 -0.0722  0.6490  0.4112
13198TIP3    H161085   0.566   4.055  16.227  0.1243  0.3889  0.4386
13198TIP3    H261086   0.593   4.074  16.374 -0.3659  1.1127  0.4422
13199TIP3   OH261087   0.876   1.680  14.192  0.5736 -0.4734  0.1641
13199TIP3    H161088   0.786   1.714  14.192 -0.2632 -2.5183 -0.9624
13199TIP3    H261089   0.917   1.723  14.267 -1.2492  0.7427  0.5458
13200TIP3   OH261090   5.632   1.699  13.341  0.2108 -0.1349 -0.3248
13200TIP3    H161091   5.544   1.676  13.371  0.3568  0.3795  0.5587
13200TIP3    H261092   5.687   1.686  13.418  0.5168  1.7482 -0.1680
13201TIP3   OH261093   5.715   3.883   3.860 -0.2853  0.3200 -0.0465
13201TIP3    H161094   5.785   3.935   3.899 -1.4875 -0.1822  3.0954
13201TIP3    H261095   5.656   3.947   3.820  1.4627  0.7997 -1.9889
13202TIP3   OH261096   0.651   4.284   2.043  0.8267  0.0874 -0.6747
13202TIP3    H161097   0.586   4.307   1.976 -0.5805  0.1063  0.6596
13202TIP3    H261098   0.651   4.359   2.102  2.2693  0.1903 -0.7800
13203TIP3   OH261099   4.021   1.975   0.585  0.1112  0.7664 -0.4848
13203TIP3    H161100   3.999   1.919   0.659  0.5905  2.4953  1.0345
13203TIP3    H261101   4.093   1.929   0.541  0.7314  0.3312  0.9195
13204TIP3   OH261102   3.108   0.006   4.698  0.0157  0.0101  0.1409
13204TIP3    H161103   3.105  -0.075   4.750 -0.2051 -0.0474  0.0379
13204TIP3    H261104   3.180  -0.009   4.637 -0.8020 -0.6127 -0.7004
13205TIP3   OH261105   3.471   4.553   4.802  1.2677 -0.1435 -0.3921
13205TIP3    H161106   3.471   4.630   4.744  2.0450 -0.0934 -0.3427
13205TIP3    H261107   3.454   4.589   4.889  1.6238 -0.0239 -0.3701
13206TIP3   OH261108   4.996   5.653  16.922 -0.6056  0.5945 -0.0909
13206TIP3    H161109   5.018   5.599  16.998 -3.4269  0.4706  0.7595
13206TIP3    H261110   5.023   5.741  16.947  2.2286 -0.0071 -0.6927
13207TIP3   OH261111   1.273   5.275   1.078 -0.5836 -0.3497  0.0385
13207TIP3    H161112   1.217   5.231   1.141  0.9915  0.1155  1.8605
13207TIP3    H261113   1.327   5.205   1.041 -2.9995 -0.9924 -2.5942
13208TIP3   OH261114   1.086   2.654   4.586  0.5201 -0.2754  0.6755
13208TIP3    H161115   1.142   2.578   4.605 -1.6879 -1.6990  1.9250
13208TIP3    H261116   1.039   2.631   4.507  0.9131  0.4773  0.2077
13209TIP3   OH261117   3.604   6.558   2.398 -0.1275  0.2820 -0.0512
13209TIP3    H161118   3.566   6.644   2.416 -0.3623  0.3295 -0.7423
13209TIP3    H261119   3.603   6.513   2.483  1.1778  1.4066  0.5965
13210TIP3   OH261120   0.122   2.456   2.873 -0.4399  0.4064  0.2364
13210TIP3    H161121   0.216   2.468   2.858 -0.1668 -1.9664 -0.2326
13210TIP3    H261122   0.117   2.418   2.961 -0.7909 -1.1984 -0.4505
13211TIP3   OH261123   3.341   5.663  17.015 -0.0349  0.2553 -0.7601
13211TIP3    H161124   3.283   5.716  17.070 -0.9825 -1.1014 -0.3820
13211TIP3    H261125   3.315   5.683  16.925 -0.4174  0.4034 -0.6179
13212TIP3   OH261126   3.124   3.654   5.644 -0.4422  0.0862 -0.1601
13212TIP3    H161127   3.151   3.693   5.728 -2.5506  0.1251  0.5556
13212TIP3    H261128   3.194   3.678   5.583  0.3804  1.3954  1.2238
13213TIP3   OH261129   4.335   6.342  10.587  0.5094  0.9376  0.0700
13213TIP3    H161130   4.407   6.293  10.547  1.2750  1.6943  0.4904
13213TIP3    H261131   4.366   6.364  10.674 -0.3926  0.9529  0.4025
13214TIP3   OH261132   3.355   1.159  15.281 -0.3392  0.6958  0.4493
13214TIP3    H161133   3.412   1.084  15.266 -1.6150 -0.4714  1.2245
13214TIP3    H261134   3.380   1.222  15.213 -1.9222 -1.9773 -2.9287
13215TIP3   OH261135   0.794   6.048   0.636 -0.2686  0.2780  0.4257
13215TIP3    H161136   0.703   6.077   0.624  0.0114  0.2120 -2.5427
13215TIP3    H261137   0.845   6.128   0.623  0.1955 -0.2514 -1.2768
13216TIP3   OH261138   4.639   1.246   1.068 -0.0910 -0.0935 -0.3337
13216TIP3    H161139   4.553   1.239   1.108  0.2428  1.5665  0.7689
13216TIP3    H261140   4.698   1.200   1.127  0.0325  0.2380 -0.1971
13217TIP3   OH261141   5.784   5.707  15.702  0.4839 -0.0884 -0.0984
13217TIP3    H161142   5.853   5.772  15.686  0.4661 -0.0914 -0.1867
13217TIP3    H261143   5.733   5.705  15.621 -0.1288  0.5243  0.2609
13218TIP3   OH261144   6.598   2.578  12.655  0.4083 -0.4657  0.2580
13218TIP3    H161145   6.627   2.557  12.566  0.9367 -1.4422  0.6470
13218TIP3    H261146   6.612   2.497  12.704 -0.9662 -0.2978  0.9686
13219TIP3   OH261147   1.940   0.274   1.270 -0.0734  0.6291  0.4780
13219TIP3    H161148   1.847   0.277   1.247  0.4025  2.0822 -1.4928
13219TIP3    H261149   1.982   0.228   1.197  0.8453  0.4646  1.0845
13220TIP3   OH261150   2.458   2.092   1.939 -0.3708  0.3071 -0.1000
13220TIP3    H161151   2.411   2.010   1.955  1.4839 -0.5370  1.3671
13220TIP3    H261152   2.475   2.128   2.026  0.8250  1.0536 -0.6143
13221TIP3   OH261153   0.501   0.364   2.742 -0.1782 -0.4047  0.4272
13221TIP3    H161154   0.533   0.347   2.830  1.3767  0.1842 -0.0060
13221TIP3    H261155   0.547   0.442   2.713 -2.0638  0.5419 -0.2327
13222TIP3   OH261156   3.604   1.521   6.027 -1.0292  0.9982 -0.3578
13222TIP3    H161157   3.588   1.470   6.107 -1.4060  0.3045 -0.8625
13222TIP3    H261158   3.539   1.591   6.030 -0.1415  1.7993  0.6227
13223TIP3   OH261159   0.323   4.383  16.005  0.1784  0.2238 -0.2777
13223TIP3    H161160   0.357   4.427  16.083 -1.5988  0.7235  0.2546
13223TIP3    H261161   0.251   4.439  15.975 -3.4826 -3.0177  1.5159
13224TIP3   OH261162   6.314   2.061   3.108 -0.2641  0.2403 -1.1089
13224TIP3    H161163   6.369   2.004   3.162 -0.4753  0.2572 -0.8695
13224TIP3    H261164   6.310   2.143   3.157 -2.8371 -0.6560  0.3806
13225TIP3   OH261165   0.530   3.174  11.268 -0.2756 -0.0791  0.2511
13225TIP3    H161166   0.568   3.224  11.196 -0.9686 -0.7010 -0.5723
13225TIP3    H261167   0.444   3.214  11.282  0.4284  0.9732  1.7356
13226TIP3   OH261168   0.848   5.848  13.758 -0.1853  0.1102 -0.3915
13226TIP3    H161169   0.905   5.833  13.834  0.7123 -0.0075 -1.0658
13226TIP3    H261170   0.795   5.923  13.782  1.2522  1.1279 -0.2668
13227TIP3   OH261171   5.915   2.000   2.293 -0.1944 -0.0694 -0.1222
13227TIP3    H161172   6.002   1.963   2.279 -0.3738 -1.3191  1.7180
13227TIP3    H261173   5.861   1.926   2.319 -1.5088  0.8984  0.0243
13228TIP3   OH261174   2.321   3.861   1.387 -0.3809  0.5602 -0.7674
13228TIP3    H161175   2.355   3.776   1.362 -1.5303 -0.2233  0.2041
13228TIP3    H261176   2.360   3.878   1.473 -2.1028 -0.2314  0.2426
13229TIP3   OH261177   3.565   3.698  15.996 -0.1596  0.1022 -0.2314
13229TIP3    H161178   3.574   3.758  16.070  2.3565 -1.0770  0.5308
13229TIP3    H261179   3.520   3.749  15.929 -0.2345  2.0356  1.2002
13230TIP3   OH261180   1.804   6.603   4.610 -0.1189 -0.2653 -0.2291
13230TIP3    H161181   1.829   6.662   4.682  0.7092 -0.2755 -0.4962
13230TIP3    H261182   1.711   6.621   4.596 -0.7309 -1.4755  1.9535
13231TIP3   OH261183   5.322   4.362   2.906  0.2702  0.2717 -0.2530
13231TIP3    H161184   5.346   4.387   2.995 -2.6402  0.8634  0.4688
13231TIP3    H261185   5.233   4.397   2.895  0.3049 -0.3517 -3.1655
13232TIP3   OH261186   0.976   6.014  15.175  0.5334 -0.4897 -0.6886
13232TIP3    H161187   0.939   5.973  15.254  1.6987  1.3200  0.8690
13232TIP3    H261188   0.902   6.058  15.134  0.0037 -1.0741 -0.3807
13233TIP3   OH261189   3.001   4.063   4.814 -0.9096 -0.3679  0.2689
13233TIP3    H161190   2.985   4.000   4.884 -3.0860 -1.4989 -1.1346
13233TIP3    H261191   2.919   4.111   4.806 -0.4566  0.2395 -1.0123
13234TIP3   OH261192   4.956   4.817   0.668  0.2744  0.0403 -0.4144
13234TIP3    H161193   4.949   4.913   0.671  1.9640  0.1826  0.0576
13234TIP3    H261194   4.939   4.790   0.758  0.2690 -0.0534 -0.4443
13235TIP3   OH261195   2.888   6.249  13.355  0.4602  0.1820 -0.1881
13235TIP3    H161196   2.932   6.269  13.438  0.3807  0.2925 -0.1719
13235TIP3    H261197   2.901   6.155  13.342 -0.9363 -0.1638  0.7736
13236TIP3   OH261198   3.256   3.334   3.184  0.2390  0.1590  0.0537
13236TIP3    H161199   3.234   3.406   3.243 -0.1524  0.8087 -0.8676
13236TIP3    H261200   3.318   3.372   3.122 -1.3882  0.2748 -1.5921
13237TIP3   OH261201   6.054   4.479   4.647 -0.8115 -0.3293  0.1862
13237TIP3    H161202   6.021   4.517   4.729  1.0488  0.0329  0.8225
13237TIP3    H261203   6.092   4.554   4.601 -0.2709 -0.8294 -0.1873
13238TIP3   OH261204   6.488   6.604   0.231  0.2056 -0.3819 -1.1230
13238TIP3    H161205   6.582   6.601   0.250  0.5773 -0.6540 -2.7914
13238TIP3    H261206   6.478   6.681   0.175 -0.6757 -0.0331 -0.4999
13239TIP3   OH261207   4.111   6.417  16.395 -0.1387 -0.4547  0.3826
13239TIP3    H161208   4.030   6.458  16.366 -0.8682 -1.8259  0.4010
13239TIP3    H261209   4.177   6.445  16.332 -0.6047  0.7060  0.3875
13240TIP3   OH261210   4.344   5.351   2.777 -0.0226  0.8128  0.5525
13240TIP3    H161211   4.319   5.259   2.779 -1.1514  1.0910 -0.1204
13240TIP3    H261212   4.417   5.357   2.838  3.2190 -1.4401 -2.6165
13241TIP3   OH261213   1.211   6.367   4.945  0.1602 -0.0785 -0.0369
13241TIP3    H161214   1.276   6.354   5.014 -0.3148 -0.4249  0.3584
13241TIP3    H261215   1.138   6.412   4.988  1.7647  4.1959 -1.3831
13242TIP3   OH261216   5.162   2.049  13.274 -0.0224 -0.1044 -0.3604
13242TIP3    H161217   5.210   2.097  13.207 -0.9253  1.0502 -0.2196
13242TIP3    H261218   5.123   1.975  13.227  0.0291  0.2311 -0.9442
13243TIP3   OH261219   4.550   4.937   0.708  0.3573 -0.6858 -0.2349
13243TIP3    H161220   4.604   4.954   0.631  0.1930 -0.2674 -0.2633
13243TIP3    H261221   4.461   4.931   0.674  0.4551 -2.0790 -0.2803
13244TIP3   OH261222   5.032   2.108   4.289 -0.3455 -0.2877 -0.0839
13244TIP3    H161223   5.001   2.188   4.247 -1.5710 -0.3147  0.7124
13244TIP3    H261224   5.125   2.123   4.305 -0.7061  1.2475  0.6740
13245TIP3   OH261225   4.869   4.559   0.097  0.3451  0.0124 -0.5571
13245TIP3    H161226   4.909   4.634   0.053 -0.2644 -0.6473 -2.3546
13245TIP3    H261227   4.939   4.493   0.100 -0.2352 -0.7958 -2.8206
13246TIP3   OH261228   4.037   1.570   2.943  0.7083 -0.0167  0.5329
13246TIP3    H161229   4.126   1.566   2.907  1.7382  0.2484  2.8745
13246TIP3    H261230   3.985   1.608   2.872  1.7099 -3.1039 -2.1104
13247TIP3   OH261231   2.339   5.607   6.875 -0.2817 -0.0131 -0.0826
13247TIP3    H161232   2.278   5.558   6.819  1.1401  0.1065 -1.8546
13247TIP3    H261233   2.288   5.682   6.906 -1.4911 -0.7689 -0.1739
13248TIP3   OH261234   1.917   5.828  16.644  0.4502  0.4660 -0.1779
13248TIP3    H161235   1.921   5.918  16.678  1.6525  0.3528 -0.0026
13248TIP3    H261236   1.969   5.831  16.564  2.8044 -0.6685  1.2237
13249TIP3   OH261237   6.115   6.600   3.032  0.0751  0.2735 -0.5265
13249TIP3    H161238   6.119   6.674   2.971  0.4480  1.7127  1.1745
13249TIP3    H261239   6.197   6.553   3.017  0.2336  0.6981 -1.0246
13250TIP3   OH261240   2.308   0.327  10.391  0.0429 -0.8811 -0.2696
13250TIP3    H161241   2.312   0.283  10.476  0.9686  1.4295  0.9691
13250TIP3    H261242   2.216   0.352  10.381  0.3441  1.1325  1.3803
13251TIP3   OH261243   3.915   3.511  16.364  0.1620 -0.4044  0.1405
13251TIP3    H161244   3.985   3.557  16.319 -0.3196  0.0731 -0.1296
13251TIP3    H261245   3.890   3.440  16.305 -1.5421  1.1485 -1.1262
13252TIP3   OH261246   2.916   4.996   3.910 -0.1768 -0.3036  0.2292
13252TIP3    H161247   2.895   5.074   3.860  0.9652 -0.6042 -0.7669
13252TIP3    H261248   2.902   5.021   4.001 -0.8688  0.7087 -0.1456
13253TIP3   OH261249   6.568   1.907  11.054 -0.0292  0.0223 -0.2566
13253TIP3    H161250   6.521   1.974  11.105  0.0023  0.7192 -1.1181
13253TIP3    H261251   6.584   1.837  11.117  0.9004  1.2761  0.9812
13254TIP3   OH261252   0.160   5.620  16.995 -0.0271 -0.1958  0.2973
13254TIP3    H161253   0.227   5.632  16.928  1.1442  1.5953  1.6693
13254TIP3    H261254   0.209   5.596  17.074 -0.8558  1.6355  1.4578
13255TIP3   OH261255   6.238   6.308  13.154 -0.0774 -0.1414  0.3191
13255TIP3    H161256   6.263   6.400  13.149  0.0078 -0.2327 -1.2936
13255TIP3    H261257   6.150   6.309  13.190 -0.0882  0.5745  0.2772
13256TIP3   OH261258   3.478   2.285  14.559  0.5094 -0.1027 -0.1412
13256TIP3    H161259   3.454   2.195  14.585  0.2895 -0.0764 -0.2458
13256TIP3    H261260   3.417   2.340  14.607  1.5478  0.0751  0.9972
13257TIP3   OH261261   0.467   4.221  16.859  0.3398 -0.0889 -0.2627
13257TIP3    H161262   0.436   4.216  16.949 -0.6456  2.4369 -0.3846
13257TIP3    H261263   0.478   4.130  16.832 -1.4800 -0.9669  1.6844
13258TIP3   OH261264   3.168   5.389  15.405 -0.0869  0.4862 -0.1238
13258TIP3    H161265   3.229   5.369  15.334 -0.1834 -2.4361  0.4981
13258TIP3    H261266   3.182   5.318  15.469 -3.1464  0.4831  0.6653
13259TIP3   OH261267   2.668   3.027   2.360  0.3449  0.2574  0.3497
13259TIP3    H161268   2.583   3.063   2.384 -0.3527 -0.2712 -1.1916
13259TIP3    H261269   2.700   3.086   2.291  0.3193 -0.6227 -0.4370
13260TIP3   OH261270   1.098   6.512   4.498  0.2231  0.2188 -0.2876
13260TIP3    H161271   1.111   6.419   4.518  0.2464 -0.2671 -2.3388
13260TIP3    H261272   1.162   6.531   4.429  0.6081  1.9274  0.4935
13261TIP3   OH261273   2.427   5.318  13.901  0.4123 -0.1671  0.7481
13261TIP3    H161274   2.403   5.232  13.866 -0.2920  0.6794 -0.9519
13261TIP3    H261275   2.392   5.319  13.990  1.1147 -1.9049  1.0911
13262TIP3   OH261276   4.089   6.314   4.946 -0.3138  0.4896  0.3896
13262TIP3    H161277   4.184   6.303   4.944 -0.4019 -0.3107 -0.0331
13262TIP3    H261278   4.060   6.285   4.860 -1.0862 -0.9741  1.0982
13263TIP3   OH261279   1.669   4.447  10.705  0.0675 -0.4615  0.2676
13263TIP3    H161280   1.649   4.469  10.796 -0.1974 -1.6715  0.5201
13263TIP3    H261281   1.584   4.454  10.660  0.3731  1.0941 -0.1097
13264TIP3   OH261282   5.030   0.381  13.355  0.2821  0.1813 -0.5935
13264TIP3    H161283   5.036   0.289  13.329  1.6318  0.3698 -1.0050
13264TIP3    H261284   4.940   0.390  13.387  0.1534 -1.3005 -0.4358
13265TIP3   OH261285   5.475   2.955  14.180 -0.2960  0.1902  0.0568
13265TIP3    H161286   5.569   2.954  14.201 -0.2672  0.9084 -0.0086
13265TIP3    H261287   5.435   2.902  14.248  0.1333  0.0782  0.2274
13266TIP3   OH261288   4.252   5.513   5.445  0.1901 -0.1943  0.7949
13266TIP3    H161289   4.208   5.439   5.488  0.1138 -1.2860 -1.0402
13266TIP3    H261290   4.334   5.475   5.412  1.6465  1.3339  2.4651
13267TIP3   OH261291   2.428   1.809   2.380  0.0430 -0.0004  0.2031
13267TIP3    H161292   2.386   1.781   2.299  0.0690  0.3382  0.0724
13267TIP3    H261293   2.438   1.904   2.371  1.3515 -0.1446 -0.0143
13268TIP3   OH261294   1.893   5.288   2.072 -0.3096 -0.1872  0.1370
13268TIP3    H161295   1.949   5.323   2.142 -0.4881  0.9649 -0.2779
13268TIP3    H261296   1.891   5.357   2.006 -0.9855 -0.8427 -0.5453
13269TIP3   OH261297   1.983   0.464  14.357 -0.2211 -0.2650  0.1829
13269TIP3    H161298   2.010   0.407  14.429 -1.2605 -2.2922 -0.9238
13269TIP3    H261299   1.891   0.484  14.375 -0.9116 -1.8997 -1.1353
13270TIP3   OH261300   1.639   3.518   1.661  0.1868  0.1647 -0.3322
13270TIP3    H161301   1.714   3.465   1.689 -0.4060 -0.2259  0.5347
13270TIP3    H261302   1.563   3.463   1.677 -0.4067  1.1093  0.1782
13271TIP3   OH261303   5.417   2.943  16.674 -0.1250  0.4516 -0.0875
13271TIP3    H161304   5.351   2.884  16.710 -1.5772  1.1885 -1.4037
13271TIP3    H261305   5.426   2.917  16.583 -0.4808  1.9275 -0.5820
13272TIP3   OH261306   0.492   6.332   4.157  0.5975  0.3774  0.2997
13272TIP3    H161307   0.413   6.290   4.122  1.8176 -0.9768 -0.9988
13272TIP3    H261308   0.512   6.283   4.237 -0.6897  1.7277  1.5026
13273TIP3   OH261309   2.126   5.352   2.292 -0.2298  0.0868  0.0640
13273TIP3    H161310   2.134   5.442   2.324  0.5990  0.4464 -1.0670
13273TIP3    H261311   2.211   5.335   2.251 -1.3770 -0.1428 -2.3726
13274TIP3   OH261312   6.697   4.942  13.890  1.3110 -0.1893 -0.0430
13274TIP3    H161313   6.766   4.876  13.897 -0.5111 -2.5918 -2.6852
13274TIP3    H261314   6.716   4.988  13.808  0.4548 -0.0591 -0.1765
13275TIP3   OH261315   2.607   3.432  12.472  0.2051 -0.5196 -0.3226
13275TIP3    H161316   2.525   3.480  12.489  0.1201 -1.2359  1.5598
13275TIP3    H261317   2.584   3.370  12.403 -0.3934  0.3747 -0.9501
13276TIP3   OH261318   1.842   6.234  11.451  0.0440  0.2430 -0.0876
13276TIP3    H161319   1.893   6.261  11.375  1.5085 -0.1569  0.7193
13276TIP3    H261320   1.780   6.169  11.417  1.1498 -0.4518 -0.8377
13277TIP3   OH261321   0.573   5.999   1.699 -0.3979  0.0008  0.3545
13277TIP3    H161322   0.604   6.064   1.636  0.1706 -1.2440 -0.6859
13277TIP3    H261323   0.549   6.051   1.776  1.1082  1.3400 -0.0118
13278TIP3   OH261324   4.167   3.275  12.321  0.0327  0.3211  0.2195
13278TIP3    H161325   4.186   3.311  12.234 -1.2210  0.8083  0.1135
13278TIP3    H261326   4.140   3.352  12.372  2.4682  0.3534  1.6116
13279TIP3   OH261327   3.313   1.245   4.470 -1.0607 -0.0851  0.0985
13279TIP3    H161328   3.329   1.175   4.407  0.5341 -0.6133  1.0275
13279TIP3    H261329   3.364   1.319   4.437 -0.6105 -0.2139  0.4849
13280TIP3   OH261330   0.716   5.167   2.495  0.4475 -0.6068 -0.3412
13280TIP3    H161331   0.691   5.113   2.570  1.9444 -1.3008 -0.3115
13280TIP3    H261332   0.806   5.193   2.512  0.4197  0.2152 -1.3389
13281TIP3   OH261333   1.424   4.320  15.280  0.2717 -0.5438  0.0040
13281TIP3    H161334   1.328   4.322  15.284  0.0495  2.3804 -2.7203
13281TIP3    H261335   1.451   4.392  15.338  0.7076 -0.2352 -0.5795
13282TIP3   OH261336   0.035   6.412  15.252 -0.4266 -0.6408  0.1629
13282TIP3    H161337   0.080   6.438  15.332  1.0853 -2.3924 -0.0547
13282TIP3    H261338   0.028   6.317  15.257 -1.4864 -0.6728 -1.1880
13283TIP3   OH261339   2.740   5.244  12.094  0.6404 -0.3586  0.1900
13283TIP3    H161340   2.716   5.154  12.075  1.1858 -0.1432 -1.6730
13283TIP3    H261341   2.755   5.245  12.189  1.5599 -2.4404  0.1139
13284TIP3   OH261342   0.625   5.426  13.210  0.0723  0.3789 -0.7237
13284TIP3    H161343   0.588   5.345  13.246  1.3440  0.3118  0.4972
13284TIP3    H261344   0.675   5.464  13.282  1.5194  0.9879 -2.0070
13285TIP3   OH261345   6.314   1.098   6.394 -0.0069 -0.0037  0.4671
13285TIP3    H161346   6.256   1.171   6.374  0.7638  0.5036  0.0377
13285TIP3    H261347   6.295   1.032   6.327  0.8996  0.7370 -0.5542
13286TIP3   OH261348   1.458   6.073  12.915  0.0739  0.0893 -0.7283
13286TIP3    H161349   1.382   6.061  12.972  0.1738 -0.3540 -0.6911
13286TIP3    H261350   1.498   5.987  12.909 -0.2445  0.0058 -1.9074
13287TIP3   OH261351   0.063   4.170  11.706 -0.4637 -0.1525  0.3544
13287TIP3    H161352  -0.025   4.136  11.692 -1.2254  0.5827  2.9056
13287TIP3    H261353   0.052   4.264  11.717  1.0839  0.4418 -2.2255
13288TIP3   OH261354   4.398   2.475   1.074  0.0662 -0.4799 -0.0724
13288TIP3    H161355   4.392   2.387   1.036 -0.7866 -0.0462 -1.0007
13288TIP3    H261356   4.376   2.534   1.002  1.8421  0.5822  0.2073
13289TIP3   OH261357   6.480   2.563  11.091  0.1864 -0.3309 -0.1824
13289TIP3    H161358   6.568   2.534  11.113  0.6222  0.3362 -1.0170
13289TIP3    H261359   6.435   2.484  11.059  0.5083 -0.6440  0.1317
13290TIP3   OH261360   5.837   4.926   5.089 -0.1618 -0.2509  0.5831
13290TIP3    H161361   5.804   4.992   5.027 -1.5095  0.2929  1.8296
13290TIP3    H261362   5.931   4.921   5.071 -0.2434  1.1120 -0.3730
13291TIP3   OH261363   2.434   0.772   6.069  0.5917 -0.2410 -0.4099
13291TIP3    H161364   2.372   0.731   6.129 -0.2403  1.8305  0.2621
13291TIP3    H261365   2.487   0.700   6.035  1.1515 -1.5422  2.8281
13292TIP3   OH261366   4.309   2.113  13.094 -0.7472 -0.4710  0.1200
13292TIP3    H161367   4.397   2.148  13.079  0.2024 -2.6250  0.4214
13292TIP3    H261368   4.275   2.164  13.168 -0.2546  1.1654 -0.7235
13293TIP3   OH261369   2.916   2.900   2.424  0.4221  0.2179  0.0008
13293TIP3    H161370   2.939   2.845   2.349  0.4848 -0.1900  0.3161
13293TIP3    H261371   2.821   2.910   2.419  0.3820 -0.1309  0.0889
13294TIP3   OH261372   5.250   1.459   6.308  0.5809 -0.2202 -0.4500
13294TIP3    H161373   5.168   1.507   6.316  1.0511  0.3343  1.5333
13294TIP3    H261374   5.242   1.410   6.226 -1.2084  0.7729 -0.9001
13295TIP3   OH261375   4.746   5.069   2.655  0.5278  0.0662  0.2372
13295TIP3    H161376   4.746   5.163   2.634  1.1839 -0.1503 -0.8138
13295TIP3    H261377   4.818   5.058   2.717  0.5581  0.2370  0.2323
13296TIP3   OH261378   1.111   1.439   2.048  0.1888 -0.0583 -0.5436
13296TIP3    H161379   1.193   1.447   1.999  1.8365 -1.4541  1.7828
13296TIP3    H261380   1.132   1.468   2.136 -2.0807  0.3272 -0.0629
13297TIP3   OH261381   4.126   0.401  13.502  0.1972  0.4126  0.0943
13297TIP3    H161382   4.147   0.474  13.444 -1.7615  2.2747  1.5365
13297TIP3    H261383   4.180   0.415  13.579  1.0077 -0.6425 -0.2632
13298TIP3   OH261384   1.124   0.357  13.758  0.2821 -0.2184 -0.1700
13298TIP3    H161385   1.218   0.369  13.750  0.2044 -0.8297 -3.7854
13298TIP3    H261386   1.114   0.279  13.813  1.6893  1.0851  2.1106
13299TIP3   OH261387   2.223   2.882   3.463 -0.4834 -0.5698  0.0876
13299TIP3    H161388   2.164   2.827   3.515 -1.1651  1.5401  1.7451
13299TIP3    H261389   2.282   2.921   3.528  0.8075 -0.3361 -1.1805
13300TIP3   OH261390   4.917   4.947   1.451  0.0827 -0.3612 -0.1521
13300TIP3    H161391   4.856   5.016   1.480  0.4439 -0.8518  1.9764
13300TIP3    H261392   4.867   4.898   1.386 -1.9386 -0.8147  1.5879
13301TIP3   OH261393   1.450   0.123   4.652  0.2632  0.2759  0.2784
13301TIP3    H161394   1.445   0.198   4.713  0.1494  0.4531  0.0527
13301TIP3    H261395   1.376   0.136   4.593  0.7697  0.4698 -0.3234
13302TIP3   OH261396   6.297   1.409  12.886  0.3155 -0.0940 -0.0855
13302TIP3    H161397   6.278   1.316  12.888  0.5713 -0.1469  1.6205
13302TIP3    H261398   6.347   1.422  12.806  2.0670 -1.8129  0.6624
13303TIP3   OH261399   4.008   5.822  13.695 -0.2453 -0.0642  0.1146
13303TIP3    H161400   4.037   5.793  13.781  0.9055 -0.7595 -0.4837
13303TIP3    H261401   4.053   5.905  13.681 -0.4025  0.0299  0.1641
13304TIP3   OH261402   0.084   6.814  11.584 -0.2458  0.3310 -0.0376
13304TIP3    H161403  -0.002   6.771  11.587 -0.1363  0.1098 -0.0604
13304TIP3    H261404   0.117   6.806  11.673 -0.8006  1.5540  0.3023
13305TIP3   OH261405   2.534   1.951  10.980  0.0205 -0.4419  0.2180
13305TIP3    H161406   2.599   2.000  10.930 -0.8001  1.4101  0.8834
13305TIP3    H261407   2.477   1.911  10.914 -0.2932  0.9245 -0.3777
13306TIP3   OH261408   5.277   0.110   2.177  0.6594  0.6114  0.6416
13306TIP3    H161409   5.219   0.067   2.114  0.8828 -1.6076  1.8758
13306TIP3    H261410   5.233   0.193   2.197 -0.6830  0.2142 -0.5029
13307TIP3   OH261411   2.229   4.498  12.020 -0.1124 -0.1664 -0.3230
13307TIP3    H161412   2.302   4.489  12.081 -0.3887 -0.8328 -0.0738
13307TIP3    H261413   2.229   4.417  11.969 -0.0048  0.3030 -1.0812
13308TIP3   OH261414   6.472   0.057  10.924 -1.1779 -0.2330  0.2007
13308TIP3    H161415   6.553   0.098  10.892 -2.7413  1.3510 -2.0715
13308TIP3    H261416   6.463  -0.022  10.871 -1.3138 -0.1895  0.1581
13309TIP3   OH261417   4.181   5.477  15.802  0.3302  0.1794  0.6509
13309TIP3    H161418   4.261   5.502  15.850  1.2521 -0.1015 -0.6946
13309TIP3    H261419   4.203   5.491  15.710 -0.5256 -1.6834  0.1143
13310TIP3   OH261420   4.838   1.139  13.550  0.0875 -0.1978 -0.2781
13310TIP3    H161421   4.895   1.132  13.626  1.2273  0.2327 -1.0511
13310TIP3    H261422   4.814   1.232  13.547 -1.7308 -0.5996  0.7633
13311TIP3   OH261423   0.849   0.891  10.934  0.1544  0.1043  0.1756
13311TIP3    H161424   0.771   0.922  10.979 -0.1005 -2.6924  1.8396
13311TIP3    H261425   0.922   0.929  10.983 -0.1517  0.0037  0.7145
13312TIP3   OH261426   4.515   2.415  11.511  0.0259 -0.5700  0.9395
13312TIP3    H161427   4.553   2.374  11.589  1.5970 -0.3011  0.3434
13312TIP3    H261428   4.467   2.491  11.546  0.2359 -0.7697  1.6894
13313TIP3   OH261429   4.850   6.449  12.124  0.0930  0.1957 -0.6676
13313TIP3    H161430   4.760   6.427  12.099 -0.9167  1.5924  1.4006
13313TIP3    H261431   4.884   6.369  12.164 -0.6517 -0.0042 -0.4167
13314TIP3   OH261432   4.029   1.072   5.278 -0.1389 -0.0170 -0.1290
13314TIP3    H161433   4.066   1.120   5.351  0.7815  0.2571 -0.7627
13314TIP3    H261434   4.060   1.118   5.200 -1.2129 -0.2185 -0.7058
13315TIP3   OH261435   3.924   2.865  16.721 -0.0910  0.6381 -0.4830
13315TIP3    H161436   3.843   2.887  16.676 -0.5224 -1.2047 -0.7105
13315TIP3    H261437   3.984   2.837  16.652 -0.1521 -0.4900 -0.1048
13316TIP3   OH261438   0.767   6.193   5.858  0.9098 -0.2311 -0.4441
13316TIP3    H161439   0.804   6.155   5.938  3.9147  0.9209 -1.1556
13316TIP3    H261440   0.740   6.117   5.807 -0.9007 -0.9968  1.5151
13317TIP3   OH261441   0.528   5.524  12.988 -0.3446 -0.2808  0.3346
13317TIP3    H161442   0.589   5.481  13.047  0.6529  1.3702  0.5860
13317TIP3    H261443   0.443   5.516  13.031 -0.0474 -1.2112  0.7760
13318TIP3   OH261444   4.321   2.783  13.939 -0.0123  0.2499 -0.2963
13318TIP3    H161445   4.409   2.762  13.970 -0.3045  0.1092  0.4539
13318TIP3    H261446   4.299   2.712  13.879  0.3670  0.2623 -0.4533
13319TIP3   OH261447   6.107   4.647  11.264 -0.1573 -0.1440 -0.9088
13319TIP3    H161448   6.044   4.693  11.319  0.7652 -0.2408  0.2754
13319TIP3    H261449   6.075   4.557  11.259  0.5612 -0.5304  0.8164
13320TIP3   OH261450   0.120   5.673   5.357 -0.0337 -0.3704 -0.7516
13320TIP3    H161451   0.212   5.696   5.345  0.4917 -1.3000  1.1322
13320TIP3    H261452   0.115   5.582   5.329 -0.5424 -0.1191 -1.4961
13321TIP3   OH261453   2.334   4.921   3.115  0.2244 -0.1835  0.4382
13321TIP3    H161454   2.394   4.865   3.066  1.0403  1.1653 -0.1566
13321TIP3    H261455   2.247   4.895   3.084  0.5804 -1.0746  0.1440
13322TIP3   OH261456   2.255   2.569  13.187  0.0131 -0.7967 -0.0556
13322TIP3    H161457   2.288   2.612  13.108  0.5316 -1.2358 -0.0817
13322TIP3    H261458   2.332   2.562  13.244 -0.1674 -1.2814  0.1297
13323TIP3   OH261459   6.303   2.002   2.816  0.0421  0.7042 -0.1632
13323TIP3    H161460   6.297   2.022   2.910  0.6506 -0.9742  0.2597
13323TIP3    H261461   6.395   2.016   2.795 -0.0831  1.0211 -0.5080
13324TIP3   OH261462   3.729   0.402   5.304 -0.3271 -0.4757  0.1315
13324TIP3    H161463   3.644   0.365   5.328  0.2845 -1.8575  0.2528
13324TIP3    H261464   3.791   0.330   5.318  0.9433  0.6723  0.5917
13325TIP3   OH261465   5.445   6.106   5.600 -0.1296  0.1633  0.6632
13325TIP3    H161466   5.359   6.077   5.632 -1.5404  1.4178 -1.6757
13325TIP3    H261467   5.463   6.049   5.525  0.1106  1.1606 -0.0625
13326TIP3   OH261468   2.989   6.037  15.051  0.2698 -0.1485  0.6864
13326TIP3    H161469   3.070   6.017  15.097 -0.0618 -2.8205  0.2408
13326TIP3    H261470   3.008   6.016  14.960 -0.5272  0.5743  0.3413
13327TIP3   OH261471   6.373   0.897  12.049 -0.4386  0.5061  0.4564
13327TIP3    H161472   6.387   0.967  12.112  0.6786  0.3132  0.4361
13327TIP3    H261473   6.459   0.879  12.012 -0.7245 -0.7640  0.3434
13328TIP3   OH261474   1.127   2.335  16.525  0.2738  0.0886 -0.0386
13328TIP3    H161475   1.220   2.319  16.545  0.6214  1.6387 -0.2979
13328TIP3    H261476   1.094   2.249  16.498  1.8240 -0.3555 -0.6796
13329TIP3   OH261477   0.632   1.915  12.262  0.5908  0.2723  0.4087
13329TIP3    H161478   0.671   1.949  12.182  1.1345  1.7709  1.2772
13329TIP3    H261479   0.612   1.823  12.242 -1.4314  1.1490 -2.1992
13330TIP3   OH261480   3.200   6.705  14.164 -0.6288  0.0245 -0.6817
13330TIP3    H161481   3.166   6.715  14.075 -0.1955 -0.5061 -0.9173
13330TIP3    H261482   3.247   6.621  14.162 -1.1306 -0.2963  0.2158
13331TIP3   OH261483   6.688   1.616  16.448 -0.5773  0.2669 -0.2547
13331TIP3    H161484   6.696   1.707  16.474 -0.4960  0.1953 -0.0286
13331TIP3    H261485   6.728   1.612  16.361 -0.2499  0.3722 -0.1113
13332TIP3   OH261486   4.303   4.480   2.642  0.5260 -0.8859  0.5125
13332TIP3    H161487   4.337   4.544   2.580  0.3411 -0.7826  0.5185
13332TIP3    H261488   4.212   4.469   2.618 -0.3406  1.2032  2.4548
13333TIP3   OH261489   4.406   6.668  16.795  0.0126 -1.0131 -0.5720
13333TIP3    H161490   4.331   6.620  16.831 -0.2313  0.5842  1.2184
13333TIP3    H261491   4.367   6.736  16.740  0.0989 -0.2241  0.3066
13334TIP3   OH261492   4.538   4.777  16.689 -0.5542 -0.4539  0.0119
13334TIP3    H161493   4.476   4.737  16.628  1.3443 -1.8792 -1.0966
13334TIP3    H261494   4.509   4.868  16.697 -2.1623 -0.8120 -1.2530
13335TIP3   OH261495   1.252   4.334   3.302  0.3125 -0.3827  0.2106
13335TIP3    H161496   1.266   4.317   3.209 -3.1588 -0.9853 -0.3376
13335TIP3    H261497   1.195   4.411   3.304 -0.3041 -0.8453  1.7759
13336TIP3   OH261498   5.450   1.606   2.320 -0.0486  0.2430  0.4656
13336TIP3    H161499   5.469   1.568   2.406 -1.1073 -0.8801  0.2261
13336TIP3    H261500   5.441   1.700   2.336  3.4937  0.6218  0.9336
13337TIP3   OH261501   0.407   5.438   4.914 -0.0578  0.0938  0.2998
13337TIP3    H161502   0.398   5.360   4.859 -2.5294 -0.0285  0.7990
13337TIP3    H261503   0.427   5.404   5.001 -2.4720 -0.1300  0.8183
13338TIP3   OH261504   1.883   1.315   2.206 -0.1547 -0.0101 -0.4626
13338TIP3    H161505   1.884   1.400   2.249  0.6872 -0.3013  0.1148
13338TIP3    H261506   1.965   1.311   2.157 -0.5895 -0.1413 -1.1986
13339TIP3   OH261507   6.002   6.166  14.053 -0.2236  0.2063 -0.1771
13339TIP3    H161508   6.011   6.133  14.142  0.3451  0.8343  0.0098
13339TIP3    H261509   5.992   6.088  13.999  1.5489 -0.3241  0.1974
13340TIP3   OH261510   2.910   1.814  16.406  0.6285 -0.2655  0.5628
13340TIP3    H161511   2.900   1.813  16.311  1.7801 -1.2768  0.4196
13340TIP3    H261512   2.881   1.901  16.433  0.3677  0.0646 -0.7210
13341TIP3   OH261513   1.512   5.650  15.904  0.6477 -0.2754 -0.2207
13341TIP3    H161514   1.497   5.732  15.950  0.0471  1.2382 -2.8716
13341TIP3    H261515   1.463   5.659  15.822 -0.0039 -3.5942 -0.3567
13342TIP3   OH261516   3.286   3.668   1.114 -0.0798 -0.6664 -0.5070
13342TIP3    H161517   3.238   3.741   1.074  2.1665  0.4837 -1.2890
13342TIP3    H261518   3.375   3.678   1.082  1.4228 -0.9671  3.0463
13343TIP3   OH261519   4.220   3.122  11.074 -0.1083 -0.5557  0.1965
13343TIP3    H161520   4.146   3.105  11.016  0.8160  0.1658 -1.2506
13343TIP3    H261521   4.287   3.160  11.017  1.4869 -1.4265  1.4046
13344TIP3   OH261522   0.255   0.961   9.860  0.1390 -0.1481 -0.7245
13344TIP3    H161523   0.205   1.042   9.847 -1.9884 -1.4739 -1.3804
13344TIP3    H261524   0.216   0.899   9.798  0.8110 -2.0387  0.6442
13345TIP3   OH261525   3.795   0.824  13.122  0.0772  0.2700  0.1805
13345TIP3    H161526   3.742   0.900  13.143  0.0436  0.3504 -0.1768
13345TIP3    H261527   3.828   0.792  13.206  0.9842  1.3216  0.2484
13346TIP3   OH261528   4.002   3.264  17.120  0.7979 -0.1110 -0.2993
13346TIP3    H161529   3.969   3.273  17.031 -3.7984  3.4989  1.3338
13346TIP3    H261530   3.971   3.177  17.148  0.5456 -0.4523 -1.5735
13347TIP3   OH261531   5.616   2.598   3.571 -0.0516 -0.1618  0.0745
13347TIP3    H161532   5.696   2.632   3.609  0.3632 -0.9648 -0.0628
13347TIP3    H261533   5.641   2.568   3.484 -0.6468  0.1884 -0.2258
13348TIP3   OH261534   0.805   5.620  16.868 -0.1115  0.0876  0.3018
13348TIP3    H161535   0.804   5.534  16.910  1.7729 -0.2595 -0.2662
13348TIP3    H261536   0.791   5.601  16.775 -1.6125  0.6176  0.3808
13349TIP3   OH261537   4.528   6.329   4.572 -0.2026 -0.2518 -0.4940
13349TIP3    H161538   4.486   6.352   4.655  0.8951  2.1973 -0.5222
13349TIP3    H261539   4.616   6.302   4.596 -0.3138 -0.8544 -0.7605
13350TIP3   OH261540   0.069   3.862   4.425  0.1754  0.1922  0.5108
13350TIP3    H161541   0.130   3.791   4.404  0.7598  0.0007  2.6379
13350TIP3    H261542   0.097   3.893   4.511  0.3413  3.4658 -0.5804
13351TIP3   OH261543   3.744   5.147  15.703  0.5308 -0.5179 -0.3062
13351TIP3    H161544   3.759   5.052  15.708 -0.0733 -0.6351 -0.6368
13351TIP3    H261545   3.707   5.170  15.788  0.4013 -0.6300 -0.3324
13352TIP3   OH261546   6.663   5.589  14.697  0.2573  0.4812  0.5673
13352TIP3    H161547   6.597   5.547  14.754  0.7299  0.7054  1.2948
13352TIP3    H261548   6.677   5.527  14.626  0.0846 -0.0695  1.0107
13353TIP3   OH261549   2.746   5.243  10.998  0.0477  0.1177 -0.1499
13353TIP3    H161550   2.823   5.187  10.989 -0.3545 -0.5021  0.1797
13353TIP3    H261551   2.746   5.296  10.918  0.8782  0.2140 -0.0948
13354TIP3   OH261552   0.705   2.666  13.517  0.0914  0.1263 -0.3370
13354TIP3    H161553   0.642   2.665  13.446  0.1052 -1.4817 -0.3660
13354TIP3    H261554   0.773   2.605  13.490 -1.0663 -2.3931  2.0149
13355TIP3   OH261555   5.318   5.392  16.865 -0.4310 -0.2415 -0.5974
13355TIP3    H161556   5.341   5.450  16.938 -2.0830 -0.2900  0.0024
13355TIP3    H261557   5.381   5.414  16.797  1.1514 -0.1744  0.8070
13356TIP3   OH261558   3.016   4.527  16.418 -0.2424  0.3114 -0.6712
13356TIP3    H161559   2.999   4.549  16.510 -1.2007 -1.1291 -0.4769
13356TIP3    H261560   2.930   4.532  16.376  0.3311  1.9603 -1.7494
13357TIP3   OH261561   4.892   1.541   4.549  0.2489 -0.3737 -0.3907
13357TIP3    H161562   4.929   1.619   4.509  0.2140 -0.1226  0.0649
13357TIP3    H261563   4.960   1.508   4.607  0.0135 -0.2877 -0.0586
13358TIP3   OH261564   4.912   0.287   0.732  0.1437  0.1485 -0.0498
13358TIP3    H161565   4.841   0.343   0.764 -1.1054 -2.0466  1.2949
13358TIP3    H261566   4.869   0.227   0.672  1.1581 -0.2747 -0.3615
13359TIP3   OH261567   2.655   5.490   1.267  0.0658  0.2738  0.6559
13359TIP3    H161568   2.685   5.480   1.357  1.9512  1.8898  0.2662
13359TIP3    H261569   2.721   5.447   1.214  0.4891  1.7543 -0.0858
13360TIP3   OH261570   0.826   1.429   5.035  0.3003 -0.5044 -0.2482
13360TIP3    H161571   0.846   1.500   4.974  2.6318 -1.6395 -0.9299
13360TIP3    H261572   0.870   1.456   5.116  0.0300 -0.5417 -0.0894
13361TIP3   OH261573   1.592   5.848  13.479  0.2890 -0.1591 -0.6994
13361TIP3    H161574   1.527   5.786  13.514  1.1317 -0.8192 -0.2680
13361TIP3    H261575   1.642   5.876  13.555 -0.3272  1.3941 -0.8239
13362TIP3   OH261576   2.707   2.454   4.702 -0.1584 -0.5157 -0.0346
13362TIP3    H161577   2.678   2.384   4.645 -0.7864 -1.3602  1.2880
13362TIP3    H261578   2.641   2.460   4.771 -0.4315  1.7619 -0.3957
13363TIP3   OH261579   1.214   2.977  12.068  0.4420  0.2196 -0.3015
13363TIP3    H161580   1.223   3.026  12.150 -0.3985  0.7561 -0.5254
13363TIP3    H261581   1.145   3.022  12.020 -1.1859 -1.8165 -0.0332
13364TIP3   OH261582   3.424   6.828   3.397  0.0178 -0.1680  0.1129
13364TIP3    H161583   3.353   6.764   3.412 -0.5407  0.6466  1.0574
13364TIP3    H261584   3.473   6.829   3.479  1.3180 -0.9173 -0.6234
13365TIP3   OH261585   2.115   5.747  12.846 -0.2794 -0.5214 -0.2718
13365TIP3    H161586   2.132   5.841  12.840  1.4618 -0.8191 -0.4481
13365TIP3    H261587   2.181   5.707  12.789  0.2239 -1.9506  1.2453
13366TIP3   OH261588   1.732   3.772  13.731  0.5222 -0.2374 -0.0362
13366TIP3    H161589   1.762   3.681  13.733 -0.6636 -0.6538 -0.7242
13366TIP3    H261590   1.645   3.769  13.691  0.3250  1.1638  0.2199
13367TIP3   OH261591   5.878   1.365   0.594  0.5233  0.0882 -0.6161
13367TIP3    H161592   5.913   1.438   0.646 -0.3820  1.3803 -1.7420
13367TIP3    H261593   5.784   1.383   0.589  0.1844 -1.5314 -0.3847
13368TIP3   OH261594   3.404   3.653   2.245  0.4099  0.3074  0.1002
13368TIP3    H161595   3.478   3.593   2.251  1.8134  1.9319 -0.4807
13368TIP3    H261596   3.442   3.737   2.221 -1.6124  1.2268 -0.1024
13369TIP3   OH261597   3.733   2.116   2.479 -0.4088 -0.3988  0.3856
13369TIP3    H161598   3.651   2.163   2.494  0.6556  1.4496  0.8194
13369TIP3    H261599   3.791   2.182   2.439  0.7904 -1.7156 -0.1341
13370TIP3   OH261600   3.807   4.453  11.997  0.4376 -0.5846  0.2723
13370TIP3    H161601   3.750   4.427  12.070 -0.1939 -0.8469 -0.3004
13370TIP3    H261602   3.869   4.514  12.036 -1.8488  1.8365  0.4636
13371TIP3   OH261603   3.273   1.468  11.535 -0.5960 -0.2049  0.3985
13371TIP3    H161604   3.248   1.393  11.481 -0.7199 -0.4815  0.8331
13371TIP3    H261605   3.190   1.498  11.573 -0.4693 -0.2044  0.6747
13372TIP3   OH261606   2.342   4.698  11.719 -0.4400  0.7497 -0.1828
13372TIP3    H161607   2.257   4.688  11.761 -1.0603 -2.3372 -1.8711
13372TIP3    H261608   2.398   4.634  11.762 -0.0666  0.0993 -1.5750
13373TIP3   OH261609   4.434   0.742   1.459 -0.6240  0.3841 -0.1733
13373TIP3    H161610   4.352   0.777   1.494 -2.1620 -1.4965 -1.6882
13373TIP3    H261611   4.409   0.659   1.418  1.8432  0.3115 -1.7152
13374TIP3   OH261612   0.514   1.680   5.556  0.1668 -0.7893 -0.4565
13374TIP3    H161613   0.451   1.745   5.529 -0.1968 -1.5327 -1.4383
13374TIP3    H261614   0.480   1.597   5.523  0.4785 -1.5296  0.9808
13375TIP3   OH261615   2.606   3.233   3.330 -0.0659 -0.4828  0.0489
13375TIP3    H161616   2.536   3.252   3.392  0.0339 -0.7891  0.2623
13375TIP3    H261617   2.679   3.287   3.359 -0.2343 -0.1070 -0.2185
13376TIP3   OH261618   3.625   4.920  14.145 -0.1050  0.5462  0.6753
13376TIP3    H161619   3.571   4.975  14.090 -0.1756 -0.1641  0.0173
13376TIP3    H261620   3.715   4.942  14.120 -0.1400  0.0376  0.0704
13377TIP3   OH261621   2.770   0.338   1.736 -0.1261  0.2659 -0.2439
13377TIP3    H161622   2.718   0.261   1.759  3.5623 -2.2076  0.7281
13377TIP3    H261623   2.809   0.316   1.651  1.0077  1.0270  0.0596
13378TIP3   OH261624   2.370   3.719  16.455  0.2968  0.2794 -0.1305
13378TIP3    H161625   2.365   3.674  16.371 -0.5176  2.4927 -1.3290
13378TIP3    H261626   2.285   3.702  16.496  0.4852 -0.3366  0.0146
13379TIP3   OH261627   5.917   3.556   1.057 -0.0615 -0.1108  0.0379
13379TIP3    H161628   5.825   3.541   1.076 -1.6726  5.6540 -1.3599
13379TIP3    H261629   5.947   3.613   1.128  1.5154  0.4964 -1.0543
13380TIP3   OH261630   2.428   4.085  16.576 -0.1746  0.6021  0.7493
13380TIP3    H161631   2.377   4.157  16.614 -1.8812  0.2339 -0.6717
13380TIP3    H261632   2.363   4.035  16.526  0.8660 -2.1638  2.0042
13381TIP3   OH261633   6.277   4.479   3.795 -0.0735 -0.5697 -0.0595
13381TIP3    H161634   6.264   4.528   3.714  2.8818 -0.7568 -0.7527
13381TIP3    H261635   6.212   4.409   3.791 -0.3213 -0.2904 -2.0306
13382TIP3   OH261636   3.423   5.903   1.140 -0.5417  0.0399 -0.1175
13382TIP3    H161637   3.499   5.896   1.082  1.0906  3.5933  1.2923
13382TIP3    H261638   3.453   5.865   1.223 -0.2260  1.3902  0.4209
13383TIP3   OH261639   3.440   4.071   2.851  0.2654  0.2631  0.0949
13383TIP3    H161640   3.512   4.024   2.808  2.2238  0.8323  2.5291
13383TIP3    H261641   3.420   4.143   2.791  2.1815  0.4514 -0.4132
13384TIP3   OH261642   0.300   5.773   4.947  1.2817  0.2575 -0.0371
13384TIP3    H161643   0.356   5.759   4.870  1.2987 -1.3177  0.2278
13384TIP3    H261644   0.250   5.691   4.955  0.7860  0.6681  1.2281
13385TIP3   OH261645   3.242   0.417  10.683 -0.0280  0.3766  0.2703
13385TIP3    H161646   3.233   0.490  10.622  1.2478  0.0295 -0.3783
13385TIP3    H261647   3.319   0.440  10.736  1.8275 -1.4558 -1.4381
13386TIP3   OH261648   6.386   4.386   0.801 -0.2331 -0.7717 -0.1087
13386TIP3    H161649   6.454   4.428   0.749 -0.8014  1.1528  0.6236
13386TIP3    H261650   6.387   4.433   0.885 -1.5650 -1.5870  0.3949
13387TIP3   OH261651   1.165   2.195   3.974 -0.3230 -0.0141 -0.4487
13387TIP3    H161652   1.215   2.269   3.940  1.1018 -0.0085  1.4629
13387TIP3    H261653   1.225   2.120   3.967 -0.5758 -0.3215  0.4955
13388TIP3   OH261654   6.683   0.261   1.554  0.0659  0.0675  0.2512
13388TIP3    H161655   6.724   0.205   1.488 -2.5638 -2.3646  0.4693
13388TIP3    H261656   6.700   0.216   1.637 -0.9784  0.2652  0.5921
13389TIP3   OH261657   4.415   4.579   2.262 -0.1502  0.4685 -0.4171
13389TIP3    H161658   4.407   4.630   2.342  0.7158 -2.2951  1.5806
13389TIP3    H261659   4.505   4.595   2.232  0.5612 -0.8048  0.9396
13390TIP3   OH261660   3.117   4.616  13.156 -0.0243 -0.6491  0.2745
13390TIP3    H161661   3.091   4.631  13.247  1.5115  1.1553  0.4754
13390TIP3    H261662   3.212   4.627  13.156 -0.0821  0.2307 -1.6782
13391TIP3   OH261663   5.993   3.570   6.220  0.0008  0.0059  0.0921
13391TIP3    H161664   5.981   3.663   6.240  1.2221  0.6295 -1.7565
13391TIP3    H261665   6.019   3.531   6.303  0.4341  1.5062  0.7042
13392TIP3   OH261666   3.960   5.671  14.368 -0.6731  0.1866 -0.1165
13392TIP3    H161667   3.987   5.741  14.308  0.6636 -0.0446  0.1650
13392TIP3    H261668   3.950   5.715  14.452  1.2984 -0.0913  0.3203
13393TIP3   OH261669   4.748   5.129  13.599  0.2882 -0.2164  0.2903
13393TIP3    H161670   4.842   5.141  13.615  0.4549 -0.6019 -0.3768
13393TIP3    H261671   4.719   5.214  13.565  1.3543 -1.2789 -3.8478
13394TIP3   OH261672   0.186   6.672  13.570  0.9934 -0.1995  0.8518
13394TIP3    H161673   0.165   6.681  13.477  1.1972 -1.0586  0.7164
13394TIP3    H261674   0.268   6.622  13.571  0.2396 -1.4679  1.5308
13395TIP3   OH261675   4.695   0.325   0.329 -0.3779 -0.4069 -0.4374
13395TIP3    H161676   4.724   0.278   0.250  1.6075  0.1641 -0.1106
13395TIP3    H261677   4.637   0.393   0.296  0.1294 -0.4117 -1.3942
13396TIP3   OH261678   4.918   4.006  14.821  0.2517  0.0924 -0.2602
13396TIP3    H161679   4.993   4.059  14.795  0.9906 -0.4762  0.6432
13396TIP3    H261680   4.921   3.930  14.763  0.9222 -0.3722  0.3706
13397TIP3   OH261681   2.550   0.961   0.672  0.1415 -0.6626 -0.0140
13397TIP3    H161682   2.511   1.044   0.645 -1.4286 -1.1106  0.7511
13397TIP3    H261683   2.517   0.947   0.761  0.9216 -1.7839  0.1237
13398TIP3   OH261684   0.868   4.101  10.219  0.0480  0.5223  0.1681
13398TIP3    H161685   0.799   4.108  10.153  0.4528 -1.5531 -0.5604
13398TIP3    H261686   0.941   4.152  10.184  0.6195 -1.3333 -1.5907
13399TIP3   OH261687   2.126   1.061   3.128 -0.1675 -0.0530 -0.3256
13399TIP3    H161688   2.068   1.137   3.125  1.1455  1.0329  0.5661
13399TIP3    H261689   2.128   1.029   3.037 -1.2666  0.5397 -0.5832
13400TIP3   OH261690   6.304   2.711   1.869 -0.9170  0.3894  0.3228
13400TIP3    H161691   6.397   2.700   1.890 -1.4690 -1.2552  2.1940
13400TIP3    H261692   6.287   2.645   1.802 -0.8155  0.4566  0.2304
13401TIP3   OH261693   1.841   4.696  12.035 -0.3083 -0.1299 -0.6175
13401TIP3    H161694   1.815   4.782  12.003 -1.9023 -0.9877 -1.7693
13401TIP3    H261695   1.777   4.675  12.103 -0.1793 -0.5648 -0.6246
13402TIP3   OH261696   3.401   4.100   6.546 -0.4875 -0.2903  0.8844
13402TIP3    H161697   3.445   4.023   6.581  0.5878 -0.2417 -0.2865
13402TIP3    H261698   3.466   4.141   6.488 -0.6325  2.1248  2.3002
13403TIP3   OH261699   4.914   6.653   5.674 -0.2080  0.1103  0.4153
13403TIP3    H161700   4.916   6.743   5.706  1.1577  0.4429 -0.5284
13403TIP3    H261701   4.864   6.657   5.593  0.5950  0.1915 -0.0843
13404TIP3   OH261702   0.328   1.908   2.785  0.2021 -0.1162 -0.0112
13404TIP3    H161703   0.313   1.965   2.710  0.7109  0.2718  0.1719
13404TIP3    H261704   0.321   1.966   2.861  3.3762  0.3360  0.0709
13405TIP3   OH261705   4.933   0.467  15.932  0.0412 -0.3082 -0.1511
13405TIP3    H161706   4.983   0.404  15.984 -0.0340 -0.7380 -0.5950
13405TIP3    H261707   4.905   0.534  15.995 -0.5209 -1.1098  0.4592
13406TIP3   OH261708   2.738   3.429  11.850  0.5716 -0.0539 -0.3567
13406TIP3    H161709   2.768   3.513  11.816  0.7451 -0.6996 -1.9102
13406TIP3    H261710   2.667   3.404  11.791 -0.0163 -0.6331  0.5734
13407TIP3   OH261711   0.732   3.323   0.595  0.4960  0.7683  0.5452
13407TIP3    H161712   0.827   3.309   0.588  0.1405 -1.7255 -0.2522
13407TIP3    H261713   0.709   3.287   0.681 -0.0516 -1.2197 -0.3742
13408TIP3   OH261714   0.870   2.564  13.308  0.0515  0.3421 -0.4567
13408TIP3    H161715   0.951   2.614  13.305  0.0141  0.3509 -1.5318
13408TIP3    H261716   0.889   2.483  13.260 -0.4686  0.1885 -0.4181
13409TIP3   OH261717   6.233   1.781   3.871 -0.3373  0.0785  0.1304
13409TIP3    H161718   6.308   1.724   3.857 -0.0381  0.3329  0.6895
13409TIP3    H261719   6.259   1.866   3.834  0.4231  0.7303  2.0521
13410TIP3   OH261720   2.971   3.875  13.316 -0.2389  0.2280  0.1194
13410TIP3    H161721   2.976   3.965  13.283  0.9599  0.1338 -0.0018
13410TIP3    H261722   2.914   3.830  13.254  0.3823  0.5479 -0.7065
13411TIP3   OH261723   6.838   5.460  11.982  0.1303 -0.4779  0.1452
13411TIP3    H161724   6.837   5.364  11.979 -0.9736 -0.4945  0.5523
13411TIP3    H261725   6.801   5.487  11.898  1.1074 -0.3787 -0.2725
13412TIP3   OH261726   1.494   0.101  12.314  0.0634 -0.2892 -0.4143
13412TIP3    H161727   1.564   0.162  12.336 -0.7381 -0.0545  1.7147
13412TIP3    H261728   1.538   0.017  12.300  0.8697  0.1171 -0.3314
13413TIP3   OH261729   3.128   6.549  13.173 -0.5282  0.7170 -0.2728
13413TIP3    H161730   3.145   6.501  13.091 -1.7271 -0.1771 -0.0168
13413TIP3    H261731   3.048   6.599  13.155 -1.0596  0.1659  0.4761
13414TIP3   OH261732   3.030   3.478  10.795  0.3970 -0.3150 -0.3982
13414TIP3    H161733   3.101   3.481  10.858  0.3526  0.8225 -0.3887
13414TIP3    H261734   3.033   3.563  10.751 -0.9690 -0.2292 -0.3721
13415TIP3   OH261735   2.179   1.213   5.980  0.2259  0.3789  0.1519
13415TIP3    H161736   2.167   1.259   6.063 -2.0696  0.8457 -0.3861
13415TIP3    H261737   2.272   1.190   5.979  0.7801  2.2913  1.8251
13416TIP3   OH261738   5.757   5.228   1.927 -0.7694 -0.1873 -0.1866
13416TIP3    H161739   5.744   5.187   1.842  0.1352 -2.8250  0.8240
13416TIP3    H261740   5.845   5.266   1.923 -0.9292  0.1457 -0.5780
13417TIP3   OH261741   3.293   2.414   5.618  0.4887  0.4058  0.0248
13417TIP3    H161742   3.310   2.412   5.712  0.2230 -2.0963  0.0823
13417TIP3    H261743   3.209   2.460   5.610 -0.6639 -1.3337  1.2808
13418TIP3   OH261744   2.763   2.774   3.907  0.2929 -0.3406 -0.2546
13418TIP3    H161745   2.851   2.787   3.941 -0.5766  0.7762  1.7296
13418TIP3    H261746   2.710   2.752   3.984 -1.2279 -0.7434 -1.3562
13419TIP3   OH261747   1.631   6.412  14.409  0.0035 -0.3174 -0.5207
13419TIP3    H161748   1.726   6.422  14.406 -0.2756  3.9283 -1.0408
13419TIP3    H261749   1.601   6.446  14.325 -2.0242 -0.8479 -0.0604
13420TIP3   OH261750   6.673   0.727  14.950  0.4456 -0.0746  0.6870
13420TIP3    H161751   6.713   0.739  15.036  0.2449 -0.3893  0.8307
13420TIP3    H261752   6.744   0.741  14.888  0.7778 -0.6080  0.9358
13421TIP3   OH261753   0.429   2.111  16.191 -0.0617 -0.4101  0.3770
13421TIP3    H161754   0.514   2.074  16.168  0.1944  0.2314  0.2682
13421TIP3    H261755   0.438   2.205  16.175 -1.1068 -0.4425 -0.6194
13422TIP3   OH261756   3.691   0.421   2.950 -0.2748  0.0259 -0.3671
13422TIP3    H161757   3.622   0.478   2.916  0.5432  0.2433 -1.6996
13422TIP3    H261758   3.648   0.374   3.022 -1.1874  1.7218  0.2682
13423TIP3   OH261759   2.713   5.436  16.575  0.1830 -0.3980 -0.3757
13423TIP3    H161760   2.644   5.501  16.562 -1.2889 -2.0616 -1.3247
13423TIP3    H261761   2.785   5.466  16.519 -0.1166  0.8645 -0.1158
13424TIP3   OH261762   4.441   2.665   0.631 -0.5953 -0.5892 -1.0441
13424TIP3    H161763   4.531   2.675   0.601  0.1427  0.3713  1.2944
13424TIP3    H261764   4.438   2.581   0.676  0.2563  0.9446  2.1717
13425TIP3   OH261765   0.887   1.947   5.562  0.3492 -0.2055  0.3614
13425TIP3    H161766   0.951   1.923   5.629  1.5768 -0.9168 -0.9991
13425TIP3    H261767   0.804   1.909   5.593  0.4579  0.9977  2.3014
13426TIP3   OH261768   5.090   5.887   1.289 -0.2107 -0.2200 -0.2933
13426TIP3    H161769   5.162   5.828   1.267  0.0906  0.2819 -0.6561
13426TIP3    H261770   5.124   5.939   1.362 -0.5180 -0.5669  0.1030
13427TIP3   OH261771   5.819   1.415  15.090 -0.2047  0.1540  0.2907
13427TIP3    H161772   5.786   1.325  15.100 -2.2754  0.4449 -2.7027
13427TIP3    H261773   5.886   1.407  15.022  0.4762  0.7232  0.8871
13428TIP3   OH261774   4.394   0.794  12.858  0.0775 -0.3315 -0.5927
13428TIP3    H161775   4.381   0.837  12.773 -2.4868 -2.2673 -1.3280
13428TIP3    H261776   4.472   0.740  12.846  0.5572  0.4820 -1.2232
13429TIP3   OH261777   0.151   0.639  16.641 -0.0665  0.0014 -0.1150
13429TIP3    H161778   0.058   0.639  16.617 -0.4922  1.1710  1.3981
13429TIP3    H261779   0.182   0.726  16.617  0.7951 -0.5343 -1.0438
13430TIP3   OH261780   5.180   2.379  16.729  0.1166  0.4106 -0.0342
13430TIP3    H161781   5.090   2.358  16.706 -0.2611 -0.1257  1.7766
13430TIP3    H261782   5.215   2.298  16.767  0.7253  1.1649  1.0779
13431TIP3   OH261783   4.962   3.081   5.426 -0.1745 -0.4101  0.1347
13431TIP3    H161784   4.945   3.164   5.383 -0.4615 -0.0318  0.9686
13431TIP3    H261785   5.042   3.048   5.383  0.6336  0.8547  0.6187
13432TIP3   OH261786   1.137   3.237   0.914 -0.1567  0.2877 -0.6761
13432TIP3    H161787   1.121   3.321   0.957  1.1910 -0.7478  2.1579
13432TIP3    H261788   1.233   3.228   0.913 -0.2750 -1.3404 -0.5913
13433TIP3   OH261789   2.837   4.243  15.011 -0.0742 -0.0429  0.0183
13433TIP3    H161790   2.796   4.214  15.092 -0.5928 -2.4964 -1.0412
13433TIP3    H261791   2.764   4.261  14.952  0.2505 -1.8722 -1.0287
13434TIP3   OH261792   2.145   1.381  15.372 -0.1090 -0.1476 -0.0686
13434TIP3    H161793   2.199   1.460  15.372 -0.4806  0.2345  3.2430
13434TIP3    H261794   2.057   1.413  15.350  0.0370  0.0973 -0.3009
13435TIP3   OH261795   4.092   4.620   1.709  0.1326 -0.6542  0.3747
13435TIP3    H161796   4.187   4.614   1.705  0.3104  0.2155  2.2633
13435TIP3    H261797   4.061   4.545   1.657  1.8060 -0.5385 -0.8801
13436TIP3   OH261798   0.518   3.417   3.062 -0.1304  0.2535 -0.2479
13436TIP3    H161799   0.554   3.347   3.117 -0.8501  1.5673  2.0409
13436TIP3    H261800   0.425   3.397   3.056 -0.2226  0.6466 -0.1514
13437TIP3   OH261801   0.161   1.332   5.500  0.3903 -0.1666  0.5231
13437TIP3    H161802   0.155   1.389   5.577  1.1886 -1.2211  1.4060
13437TIP3    H261803   0.251   1.343   5.469  0.4965 -0.7971  0.5944
13438TIP3   OH261804   5.758   6.828  15.284 -0.3620  0.0677  0.2807
13438TIP3    H161805   5.776   6.911  15.328 -0.6139  0.1563  0.2194
13438TIP3    H261806   5.841   6.802  15.246  0.0153 -0.3235  1.3387
13439TIP3   OH261807   0.215   6.766  14.638 -0.2345  0.5414  0.4985
13439TIP3    H161808   0.227   6.760  14.543 -0.1459  1.6992  0.4154
13439TIP3    H261809   0.155   6.841  14.649 -0.3936  0.2971  1.3450
13440TIP3   OH261810   5.926   5.294   4.389  0.1971  0.2967  0.0091
13440TIP3    H161811   5.831   5.297   4.381  0.1825 -0.3083 -0.0296
13440TIP3    H261812   5.951   5.385   4.406 -0.2794  0.6822 -1.2266
13441TIP3   OH261813   2.106   5.407  11.691  0.1648  0.0415  0.2832
13441TIP3    H161814   2.091   5.497  11.664 -3.0709 -0.0403  1.4143
13441TIP3    H261815   2.158   5.414  11.771  1.0944  0.7963 -0.3715
13442TIP3   OH261816   5.980   1.963  14.665  0.2933 -0.4519  0.1832
13442TIP3    H161817   5.909   1.941  14.726  0.2310 -0.7047  0.0204
13442TIP3    H261818   6.019   2.041  14.702  0.5468 -0.8604  0.8008
13443TIP3   OH261819   4.126   1.021   4.248 -0.4488 -0.5001 -0.4292
13443TIP3    H161820   4.041   1.049   4.283  0.6858 -0.6812  2.8304
13443TIP3    H261821   4.142   1.080   4.175 -2.2082  1.3272  0.5450
13444TIP3   OH261822   3.147   0.259  15.024  0.1986 -0.0602  0.2101
13444TIP3    H161823   3.239   0.277  15.004  0.1534  0.0026  0.0619
13444TIP3    H261824   3.100   0.336  14.993  0.1688  0.2019  0.8842
13445TIP3   OH261825   4.710   3.410  11.042  0.3295  0.5040  0.2605
13445TIP3    H161826   4.756   3.326  11.033  0.4881  0.4437  1.5046
13445TIP3    H261827   4.758   3.469  10.984 -0.9184 -0.6627 -2.1268
13446TIP3   OH261828   3.312   3.087  15.290 -0.0507 -0.2640  0.0046
13446TIP3    H161829   3.308   3.049  15.377  2.5658  0.5618  0.5893
13446TIP3    H261830   3.262   3.168  15.296 -0.5008 -0.5745  0.5075
13447TIP3   OH261831   3.521   4.429  12.986 -0.0591  0.4383  0.2260
13447TIP3    H161832   3.560   4.465  13.066 -0.4165  4.1357 -1.0905
13447TIP3    H261833   3.593   4.427  12.923 -0.6983  2.0122 -0.6185
13448TIP3   OH261834   3.988   3.633  14.538  0.2410 -0.9018  0.3809
13448TIP3    H161835   3.991   3.609  14.631 -0.5870 -0.0703  0.6354
13448TIP3    H261836   4.074   3.672  14.521 -0.2639  0.7382  1.3329
13449TIP3   OH261837   6.305   0.911  17.028  0.3094 -0.1555 -0.0502
13449TIP3    H161838   6.297   0.839  17.091  0.5016 -0.1726 -0.0455
13449TIP3    H261839   6.326   0.868  16.945  3.4768  0.0673  0.5301
13450TIP3   OH261840   6.309   0.160   1.565  0.3582  0.4431 -0.1356
13450TIP3    H161841   6.366   0.097   1.521  0.4463  0.4769 -0.0682
13450TIP3    H261842   6.223   0.118   1.565  1.1403 -1.4819  3.5208
13451TIP3   OH261843   3.736   2.289  12.797 -0.0085 -0.0770  0.1937
13451TIP3    H161844   3.670   2.298  12.728 -0.8999 -0.0131  1.0382
13451TIP3    H261845   3.690   2.247  12.869  0.5192  1.1352  1.2791
13452TIP3   OH261846   5.558   2.213  12.045  0.1585 -0.2318 -0.6390
13452TIP3    H161847   5.547   2.282  11.979 -0.3321  0.1018 -0.2084
13452TIP3    H261848   5.534   2.254  12.128  1.0823 -0.5626 -0.1980
13453TIP3   OH261849   2.244   5.988   4.508  0.5392 -0.4610  0.9138
13453TIP3    H161850   2.206   6.041   4.437  2.0893  1.2503  1.2968
13453TIP3    H261851   2.276   5.909   4.463  0.2178 -0.0661 -0.0523
13454TIP3   OH261852   3.751   1.821  16.510 -0.6339  0.4766  0.2361
13454TIP3    H161853   3.685   1.753  16.496 -2.2458  2.2833 -1.6264
13454TIP3    H261854   3.829   1.788  16.466 -1.4006 -0.1663 -0.6809
13455TIP3   OH261855   3.202   5.484   4.944 -0.3359  0.0274  0.2276
13455TIP3    H161856   3.178   5.576   4.957  0.8679  0.7540 -2.0760
13455TIP3    H261857   3.120   5.440   4.922 -0.8691  0.5851  1.0424
13456TIP3   OH261858   2.881   1.528   4.906 -0.0085 -0.3451  0.2154
13456TIP3    H161859   2.899   1.560   4.994  0.6086  0.6118 -0.2462
13456TIP3    H261860   2.941   1.576   4.850 -2.7050  1.6487 -1.1755
13457TIP3   OH261861   5.655   5.341   4.354 -0.2241  0.4695  0.2914
13457TIP3    H161862   5.572   5.373   4.387 -0.4021  0.4237 -0.1007
13457TIP3    H261863   5.674   5.397   4.279 -1.5672 -1.5762 -1.7174
13458TIP3   OH261864   3.046   5.948  13.786 -0.2146  0.3934 -0.1680
13458TIP3    H161865   2.965   5.999  13.778 -1.0156 -1.0935 -2.2876
13458TIP3    H261866   3.089   5.957  13.701  0.7134 -0.7242  0.1585
13459TIP3   OH261867   0.842   6.304  17.040 -0.4475  0.3702  0.3435
13459TIP3    H161868   0.907   6.258  16.985  0.1738 -1.4648  2.4532
13459TIP3    H261869   0.888   6.382  17.070 -0.6371  1.1568 -1.3030
13460TIP3   OH261870   1.162   0.604   0.772  0.1439 -0.1110 -0.2102
13460TIP3    H161871   1.121   0.565   0.695 -0.3299  0.2765 -0.1636
13460TIP3    H261872   1.088   0.628   0.828  0.4899 -0.5984  0.4686
13461TIP3   OH261873   1.169   0.100   0.489 -0.1449 -0.1240 -0.2477
13461TIP3    H161874   1.238   0.167   0.493  1.6350 -1.8846  0.0390
13461TIP3    H261875   1.147   0.094   0.396 -0.0670  0.5787 -0.3197
13462TIP3   OH261876   4.854   0.249  12.677  0.9373 -0.2091  0.3339
13462TIP3    H161877   4.908   0.179  12.641  1.2045 -0.2681  0.8405
13462TIP3    H261878   4.846   0.313  12.606 -0.4789 -1.3929 -0.6290
13463TIP3   OH261879   6.668   3.284   5.307  0.0993  0.1083  0.0528
13463TIP3    H161880   6.667   3.371   5.348 -0.3958  0.1694 -0.0862
13463TIP3    H261881   6.728   3.293   5.232 -0.0741  0.3714 -0.0541
13464TIP3   OH261882   1.543   5.618  14.595  0.0200 -0.4233  0.2884
13464TIP3    H161883   1.571   5.585  14.681  0.9676 -2.3911 -0.7188
13464TIP3    H261884   1.605   5.689  14.576 -0.2033  0.0449  1.1996
13465TIP3   OH261885   3.645   2.743  11.046 -0.0070  0.0500  0.1941
13465TIP3    H161886   3.723   2.768  10.998  0.4698 -1.1031  0.3597
13465TIP3    H261887   3.593   2.824  11.050  0.4136  0.4227 -1.3258
13466TIP3   OH261888   5.280   5.515  15.809 -0.3827  0.3522  0.3052
13466TIP3    H161889   5.276   5.463  15.729 -1.0373 -0.6976  0.9884
13466TIP3    H261890   5.374   5.529  15.824 -0.2722  1.3199 -1.0846
13467TIP3   OH261891   5.538   2.624   4.023  0.2805 -0.1476 -0.2594
13467TIP3    H161892   5.464   2.566   4.041 -0.7987  1.2254 -0.0393
13467TIP3    H261893   5.500   2.697   3.975  1.6531  0.2289 -0.8311
13468TIP3   OH261894   4.990   6.055   1.099 -0.0021 -0.0205  0.6143
13468TIP3    H161895   4.964   6.122   1.162 -2.8731 -0.1524 -0.3172
13468TIP3    H261896   5.017   5.980   1.153 -1.0210  0.3632  1.6850
13469TIP3   OH261897   1.855   3.187  12.845  1.5075  0.0525 -0.3277
13469TIP3    H161898   1.761   3.176  12.830  1.8276 -2.9159 -0.7604
13469TIP3    H261899   1.888   3.230  12.766  0.8567 -1.1768 -1.2924
13470TIP3   OH261900   2.425   1.751   1.514 -0.3679  0.3423  0.5399
13470TIP3    H161901   2.354   1.810   1.489  0.4694  2.4168  2.6615
13470TIP3    H261902   2.503   1.788   1.472  0.4000  1.7062  2.9429
13471TIP3   OH261903   2.409   1.086   6.347  0.0625  0.2122  0.1830
13471TIP3    H161904   2.467   1.018   6.315 -0.7811 -0.8599  0.8459
13471TIP3    H261905   2.429   1.163   6.293  2.8295  0.2413  1.0707
13472TIP3   OH261906   0.495   1.060  13.308  0.0500  0.1266  0.0416
13472TIP3    H161907   0.469   0.973  13.279 -0.3613  0.8532 -1.9045
13472TIP3    H261908   0.587   1.050  13.333 -0.0712 -0.9265  0.1046
13473TIP3   OH261909   3.596   1.815   1.250 -0.0396  0.2320  0.1206
13473TIP3    H161910   3.629   1.857   1.171  3.9964  0.6519  1.7977
13473TIP3    H261911   3.618   1.722   1.238  1.0047  0.3660  0.8701
13474TIP3   OH261912   0.182   1.169   6.476  0.3955 -0.1866  0.5501
13474TIP3    H161913   0.235   1.146   6.400 -1.0447  0.1627 -0.5997
13474TIP3    H261914   0.150   1.085   6.509  0.6891 -0.3092  0.5258
13475TIP3   OH261915   4.128   1.162  16.944 -0.2716  0.1697 -0.1698
13475TIP3    H161916   4.053   1.104  16.955 -0.2728 -0.2237 -2.0316
13475TIP3    H261917   4.126   1.218  17.022 -1.9863 -0.3780  0.2288
13476TIP3   OH261918   1.051   5.485  16.044 -0.2252 -0.1721 -0.2847
13476TIP3    H161919   1.078   5.394  16.052  1.5193  0.3467  0.1599
13476TIP3    H261920   1.045   5.517  16.134  2.5809  1.0342 -0.4275
13477TIP3   OH261921   5.681   2.258  10.509  0.5287  0.0887  0.0283
13477TIP3    H161922   5.679   2.347  10.473 -0.8940 -0.3243 -0.9956
13477TIP3    H261923   5.643   2.203  10.440  2.2737 -1.4891  0.2492
13478TIP3   OH261924   5.289   0.352   1.495 -0.5644  0.2564 -0.1931
13478TIP3    H161925   5.334   0.279   1.537 -0.6644  0.4946  0.3331
13478TIP3    H261926   5.300   0.336   1.401 -0.4021 -0.3164 -0.0798
13479TIP3   OH261927   6.123   1.901   6.102 -0.2007  0.3726 -0.9592
13479TIP3    H161928   6.066   1.978   6.091 -1.1789  0.0606  1.4296
13479TIP3    H261929   6.183   1.925   6.172 -0.5720 -1.0455 -0.1182
13480TIP3   OH261930   0.366   0.253   4.115 -0.1387  0.9012 -0.7382
13480TIP3    H161931   0.286   0.216   4.152 -0.9866  1.6756 -1.7211
13480TIP3    H261932   0.356   0.347   4.125  0.7873  0.9998 -0.6269
13481TIP3   OH261933   2.344   3.826  15.335 -0.9756  0.3822  0.1437
13481TIP3    H161934   2.355   3.754  15.273 -0.4122  0.7495 -0.1984
13481TIP3    H261935   2.301   3.787  15.411 -3.0807  0.2300 -1.0551
13482TIP3   OH261936   1.963   0.999  14.182 -0.3696  0.0845 -0.3782
13482TIP3    H161937   1.910   1.077  14.170  3.4656  2.7199 -2.0547
13482TIP3    H261938   2.004   1.011  14.268  1.7789  1.1276 -1.4652
13483TIP3   OH261939   4.422   6.508  15.857  0.5162  0.4346 -0.1985
13483TIP3    H161940   4.495   6.569  15.842  2.6302 -2.0550 -0.6598
13483TIP3    H261941   4.410   6.509  15.952  0.8650  1.1440 -0.1493
13484TIP3   OH261942   1.184   1.844  10.733 -0.3968  0.4083  0.3453
13484TIP3    H161943   1.257   1.786  10.753 -2.1715 -1.8777  0.5437
13484TIP3    H261944   1.158   1.879  10.819 -0.1976  0.4331  0.3969
13485TIP3   OH261945   4.673   4.116  13.163 -0.2941 -0.1384 -1.0641
13485TIP3    H161946   4.656   4.046  13.099 -0.4822  0.2765 -1.4687
13485TIP3    H261947   4.615   4.187  13.136  1.3981  0.9706 -1.9334
13486TIP3   OH261948   2.949   4.313   2.847  0.1641  0.6481  0.0204
13486TIP3    H161949   2.867   4.347   2.810  1.0029  1.4656 -1.1402
13486TIP3    H261950   2.976   4.244   2.786 -1.0321 -1.5643  1.8521
13487TIP3   OH261951   1.552   3.100   0.104 -0.2009 -0.0004  0.5268
13487TIP3    H161952   1.647   3.091   0.099  0.3082  2.5979  3.1761
13487TIP3    H261953   1.528   3.061   0.188 -1.4269 -0.0361  0.1946
13488TIP3   OH261954   2.375   3.425   4.772 -0.0935  0.3468  0.3500
13488TIP3    H161955   2.330   3.433   4.855  0.4926 -0.4454  0.7643
13488TIP3    H261956   2.467   3.412   4.795 -0.4207 -4.7626 -0.1003
13489TIP3   OH261957   5.043   4.589   2.702  0.0695 -0.3167  0.0410
13489TIP3    H161958   5.080   4.673   2.679  3.2557 -2.2069 -2.5872
13489TIP3    H261959   4.980   4.570   2.632 -0.5114 -0.2187  0.5279
13490TIP3   OH261960   1.101   3.039   5.730 -0.1094  0.2790  0.3738
13490TIP3    H161961   1.165   3.010   5.796 -0.9962  1.7105  1.9565
13490TIP3    H261962   1.051   2.961   5.709  1.2863 -0.5840  0.0920
13491TIP3   OH261963   6.750   1.579  13.171  0.0052  0.0049  0.4362
13491TIP3    H161964   6.777   1.671  13.168 -1.9848  0.6298 -0.4345
13491TIP3    H261965   6.731   1.557  13.079 -0.3722 -1.0107  0.7440
13492TIP3   OH261966   2.486   6.360   3.455 -0.7388 -0.1785 -0.2395
13492TIP3    H161967   2.516   6.391   3.540  2.0277  0.0108 -1.1754
13492TIP3    H261968   2.391   6.373   3.456 -0.7205  0.2845  2.5811
13493TIP3   OH261969   1.446   0.621   1.380 -0.0156  0.4708  0.2360
13493TIP3    H161970   1.471   0.672   1.457  0.3827  0.7790 -0.0976
13493TIP3    H261971   1.486   0.666   1.306 -2.0677  1.3490 -0.4099
13494TIP3   OH261972   6.130   4.588   4.387  0.4114  0.2005 -0.5297
13494TIP3    H161973   6.215   4.577   4.345  1.0497  1.9232  0.2102
13494TIP3    H261974   6.080   4.641   4.325  0.7662  1.2900  0.0817
13495TIP3   OH261975   5.742   3.401  16.332  0.0084 -0.2109  0.5758
13495TIP3    H161976   5.710   3.360  16.251  1.2973 -1.1107  0.5077
13495TIP3    H261977   5.672   3.463  16.355 -0.5350 -0.1518 -1.0444
13496TIP3   OH261978   3.188   3.709  17.091  0.4337  0.5863 -0.2960
13496TIP3    H161979   3.255   3.775  17.109 -0.4188  1.2650  0.5195
13496TIP3    H261980   3.126   3.753  17.034 -0.0076  0.4040  0.0386
13497TIP3   OH261981   1.151   1.997  11.228 -0.1609  0.0256  0.0198
13497TIP3    H161982   1.176   2.082  11.192  0.0945 -0.3349 -0.6767
13497TIP3    H261983   1.117   2.017  11.315 -1.2440  0.9837 -0.5882
13498TIP3   OH261984   1.772   3.658   3.687  0.7909  0.5836  0.0696
13498TIP3    H161985   1.788   3.655   3.781  1.1794 -1.8751 -0.0242
13498TIP3    H261986   1.837   3.600   3.648  0.7031  1.6092 -1.7579
13499TIP3   OH261987   2.075   6.253   1.395 -0.0443  0.0599  0.2296
13499TIP3    H161988   2.000   6.198   1.374  0.8622 -0.3611 -2.3880
13499TIP3    H261989   2.136   6.196   1.442 -1.0321  0.2154  1.7453
13500TIP3   OH261990   2.817   2.544  12.421 -0.3846 -0.2816 -0.0709
13500TIP3    H161991   2.777   2.457  12.422  0.1970 -0.5734  1.8877
13500TIP3    H261992   2.910   2.529  12.436 -0.1833  0.6511 -0.2982
13501TIP3   OH261993   5.046   2.062  12.174  0.6095  0.3039 -0.6268
13501TIP3    H161994   5.101   2.037  12.248 -0.5393 -1.8585 -0.4441
13501TIP3    H261995   4.996   1.984  12.153  1.1602  0.6935 -3.9780
13502TIP3   OH261996   2.830   1.123   5.950  0.2647 -0.4394  0.0706
13502TIP3    H161997   2.828   1.219   5.953  2.5060 -0.3170  0.0511
13502TIP3    H261998   2.870   1.097   6.033  0.8781 -1.2580 -0.4649
13503TIP3   OH261999   6.286   0.636   3.249 -0.4587  0.2709 -0.1131
13503TIP3    H162000   6.258   0.665   3.336 -2.2187  0.2455 -0.6354
13503TIP3    H262001   6.379   0.618   3.259 -0.6736 -0.0137  1.8457
13504TIP3   OH262002   0.486   3.604  16.392  0.1210 -0.3781  0.6844
13504TIP3    H162003   0.403   3.598  16.344  0.0074  0.5002  0.7535
13504TIP3    H262004   0.490   3.695  16.421  1.9972  0.1034 -0.8937
13505TIP3   OH262005   5.863   1.169   0.126  0.5686 -0.3258 -0.1723
13505TIP3    H162006   5.781   1.201   0.164 -0.2216 -0.7820 -1.4096
13505TIP3    H262007   5.875   1.222   0.047  1.4306 -0.3194 -0.0473
13506TIP3   OH262008   3.081   2.374   3.356 -0.1828  0.3246  0.5921
13506TIP3    H162009   2.995   2.332   3.362  0.8958 -2.1196  0.4194
13506TIP3    H262010   3.088   2.400   3.264 -2.0490  3.8151  1.2920
13507TIP3   OH262011   2.627   5.747  12.875 -0.3554  0.3917 -0.7768
13507TIP3    H162012   2.645   5.676  12.936 -0.2836  2.4392  1.7866
13507TIP3    H262013   2.710   5.796  12.870 -0.8733  1.2769 -1.0616
13508TIP3   OH262014   5.217   6.465   1.322 -0.6060  0.0892  0.2531
13508TIP3    H162015   5.295   6.429   1.280 -0.7878  0.0624 -0.0586
13508TIP3    H262016   5.223   6.434   1.413 -0.8426 -0.8719 -0.0432
13509TIP3   OH262017   3.756   3.099  12.330 -0.4589  0.2570  0.2023
13509TIP3    H162018   3.755   3.063  12.418  1.1538 -0.0742  0.1230
13509TIP3    H262019   3.786   3.027  12.275  1.8794  1.3806 -0.1040
13510TIP3   OH262020   4.078   5.033   6.423 -0.6844  0.2743  0.4145
13510TIP3    H162021   3.989   5.022   6.389 -0.8380 -1.0710  1.1670
13510TIP3    H262022   4.081   4.976   6.501  1.0164 -0.1828  0.0617
13511TIP3   OH262023   5.718   4.590   0.023  0.0935  0.6365 -0.1815
13511TIP3    H162024   5.772   4.663  -0.008  0.4652  0.5706  0.3085
13511TIP3    H262025   5.761   4.560   0.103 -0.3734  0.2407 -0.0738
13512TIP3   OH262026   0.731   1.510  13.674 -0.1279  0.1529  0.1243
13512TIP3    H162027   0.742   1.433  13.731 -2.0387  0.5621  1.1394
13512TIP3    H262028   0.639   1.508  13.649 -0.2853  2.2202  0.3668
13513TIP3   OH262029   5.641   3.432   1.116 -0.4573 -0.7105  0.0798
13513TIP3    H162030   5.597   3.498   1.063  0.4067  1.1909  1.6039
13513TIP3    H262031   5.573   3.368   1.136 -2.2295  1.3989  1.1941
13514TIP3   OH262032   5.531   2.077  11.604 -0.0923 -0.1011  0.4811
13514TIP3    H162033   5.506   2.169  11.610  1.9061  0.4550  1.2713
13514TIP3    H262034   5.600   2.067  11.670  2.0483 -1.3219 -1.7614
13515TIP3   OH262035   4.218   1.144   0.393  0.8923 -0.2263  0.3726
13515TIP3    H162036   4.302   1.113   0.427  0.4166 -1.2823  0.5997
13515TIP3    H262037   4.183   1.198   0.464  1.3946  0.2688  0.2549
13516TIP3   OH262038   1.773   6.074   4.078 -0.2258 -0.4375 -0.3199
13516TIP3    H162039   1.709   6.011   4.046 -1.3267 -0.1307  1.1537
13516TIP3    H262040   1.720   6.146   4.114  0.9217 -0.3638  1.3251
13517TIP3   OH262041   4.360   3.463   1.455 -0.1051  0.3870  0.1682
13517TIP3    H162042   4.427   3.525   1.482  1.2761 -0.6497 -0.7293
13517TIP3    H262043   4.289   3.517   1.422  0.0878  1.5232  1.5056
13518TIP3   OH262044   4.347   5.095   6.315 -0.3670 -0.1087 -0.2339
13518TIP3    H162045   4.268   5.072   6.364 -0.4278  0.5991  0.0188
13518TIP3    H262046   4.419   5.061   6.367 -0.3470  1.7917  1.0866
13519TIP3   OH262047   2.579   0.070   0.950 -0.0612 -0.1911 -0.2061
13519TIP3    H162048   2.536   0.025   0.878 -0.3165  0.8536 -0.7238
13519TIP3    H262049   2.626   0.001   0.997 -2.4096 -1.3984  0.5047
13520TIP3   OH262050   4.544   2.211   1.394 -0.5481  0.5728 -0.1307
13520TIP3    H162051   4.569   2.237   1.483 -0.5004 -0.0202  0.0332
13520TIP3    H262052   4.626   2.202   1.348 -0.5298  0.0491  0.0025
13521TIP3   OH262053   2.407   1.260   4.647  0.7327  0.1211 -0.7364
13521TIP3    H162054   2.486   1.231   4.691  0.5460  0.1483 -0.3772
13521TIP3    H262055   2.347   1.284   4.718  0.3837  0.0487 -1.0010
13522TIP3   OH262056   1.800   1.240   5.353  0.1331  0.6361 -0.0306
13522TIP3    H162057   1.717   1.197   5.335 -0.0061  1.0454 -0.3649
13522TIP3    H262058   1.854   1.221   5.276  0.3378  0.4109  0.1651
13523TIP3   OH262059   6.767   0.169   3.001  0.6874  0.0430 -0.0495
13523TIP3    H162060   6.732   0.256   2.985  0.5990  0.4804  2.1857
13523TIP3    H262061   6.859   0.174   2.975  0.3779  0.4035 -1.1260
13524TIP3   OH262062   5.222   2.676  12.814 -0.0918 -0.2972  0.1132
13524TIP3    H162063   5.138   2.713  12.844 -0.1785  0.7330 -1.2919
13524TIP3    H262064   5.215   2.583  12.833 -1.2800 -0.1279  0.6392
13525TIP3   OH262065   1.126   1.666  15.329  0.3068  0.5800  0.0364
13525TIP3    H162066   1.072   1.713  15.265  2.2835  1.3110 -1.1575
13525TIP3    H262067   1.183   1.733  15.367  1.8742 -0.5097 -0.3210
13526TIP3   OH262068   5.053   4.062  11.137  0.0815  0.6999 -0.2626
13526TIP3    H162069   5.001   4.141  11.152  1.1270  1.1142  1.4929
13526TIP3    H262070   4.989   3.991  11.138 -0.6251  1.3216  0.5889
13527TIP3   OH262071   4.142   3.284   4.915 -0.6662  0.7640 -0.2917
13527TIP3    H162072   4.165   3.278   5.008  0.0631 -0.1100 -0.5112
13527TIP3    H262073   4.168   3.372   4.890 -1.3023  1.1742  0.4366
13528TIP3   OH262074   2.465   3.334   1.813 -0.0145 -0.1357  0.3449
13528TIP3    H162075   2.520   3.308   1.739 -0.4830  1.1139 -0.4755
13528TIP3    H262076   2.433   3.251   1.849  0.4517 -0.7854 -0.6771
13529TIP3   OH262077   5.704   5.173  10.964  0.3199 -0.4330  0.0259
13529TIP3    H162078   5.698   5.257  11.009  0.1038  0.4042 -1.4948
13529TIP3    H262079   5.796   5.167  10.937  0.7695 -1.5421  1.6254
13530TIP3   OH262080   3.115   6.016  16.261  0.3011  0.2643  0.7840
13530TIP3    H162081   3.115   6.089  16.323  0.0981 -0.1843  1.3191
13530TIP3    H262082   3.130   6.057  16.176  1.4444  0.7982  1.2213
13531TIP3   OH262083   3.031   3.007   5.148  0.5408  0.1303 -0.1188
13531TIP3    H162084   2.940   3.019   5.176 -0.4867 -1.4179 -2.4665
13531TIP3    H262085   3.056   2.921   5.183  2.0419  1.5490  2.5748
13532TIP3   OH262086   3.153   2.680  15.059  0.4171 -0.5573 -0.1797
13532TIP3    H162087   3.223   2.731  15.098 -0.5150 -0.1049  0.9325
13532TIP3    H262088   3.132   2.727  14.978  0.7286 -0.1513 -0.0309
13533TIP3   OH262089   3.463   5.024  13.961 -0.7350 -0.2404 -0.1162
13533TIP3    H162090   3.392   5.002  14.021 -0.8551  1.3244  0.3742
13533TIP3    H262091   3.427   5.095  13.906  0.2425  0.1687 -0.2486
13534TIP3   OH262092   1.547   5.196   1.866 -0.4042  0.2255  0.4424
13534TIP3    H162093   1.527   5.248   1.789 -2.3120 -0.9346  0.0948
13534TIP3    H262094   1.481   5.127   1.867  0.3214 -0.5309  2.4307
13535TIP3   OH262095   3.278   2.362  11.272 -0.4626  0.5415 -0.3063
13535TIP3    H162096   3.297   2.361  11.366  1.3297 -0.7147 -0.6174
13535TIP3    H262097   3.264   2.454  11.251  1.0729  1.0873  0.8723
13536TIP3   OH262098   0.271   3.174  12.043  0.2135 -0.0430 -0.3332
13536TIP3    H162099   0.245   3.258  12.082  0.6274 -0.0827  0.0309
13536TIP3    H262100   0.263   3.111  12.114  3.1807  0.2620  0.4064
13537TIP3   OH262101   3.967   4.479   6.149 -0.6801 -0.4138 -0.2529
13537TIP3    H162102   3.972   4.470   6.054 -1.5283 -2.0676 -0.1716
13537TIP3    H262103   3.936   4.568   6.164  0.9719  0.4038 -1.4610
13538TIP3   OH262104   2.728   0.454  11.374 -0.4482  0.4050 -1.1395
13538TIP3    H162105   2.761   0.429  11.461 -1.5888 -1.8358 -1.3015
13538TIP3    H262106   2.659   0.517  11.392 -0.2721  0.4137 -0.4612
13539TIP3   OH262107   4.756   2.051  14.432  0.1244  0.1888 -0.0044
13539TIP3    H162108   4.690   2.004  14.382  2.3650 -1.9649 -1.1437
13539TIP3    H262109   4.797   2.110  14.368  0.3035  0.4043  0.3029
13540TIP3   OH262110   6.286   2.998  11.161  0.8230 -0.3274  0.1506
13540TIP3    H162111   6.305   2.919  11.111  2.2185 -0.9154  1.5431
13540TIP3    H262112   6.221   3.045  11.108  0.3286 -2.1492 -0.9338
13541TIP3   OH262113   2.150   0.520  13.644  0.2163  0.3476  0.0771
13541TIP3    H162114   2.099   0.514  13.563  1.6290  0.8178 -0.8731
13541TIP3    H262115   2.163   0.429  13.671  0.2866  0.1623 -0.5747
13542TIP3   OH262116   2.133   1.702  13.453  0.1041 -0.9846 -0.6466
13542TIP3    H162117   2.203   1.650  13.413 -0.1009 -1.5298 -0.3075
13542TIP3    H262118   2.139   1.787  13.409  1.4410 -0.7776 -0.0992
13543TIP3   OH262119   1.360   1.643  10.807  0.5837  0.0388  0.3248
13543TIP3    H162120   1.418   1.682  10.872  0.4753 -1.8938  1.6630
13543TIP3    H262121   1.348   1.552  10.836 -0.7877 -0.4365 -1.5063
13544TIP3   OH262122   5.030   2.199   0.758  0.5119  0.5311 -0.7692
13544TIP3    H162123   5.098   2.225   0.820  0.2735  1.6223 -0.9293
13544TIP3    H262124   5.022   2.274   0.699 -2.1189  1.2782  0.3519
13545TIP3   OH262125   6.272   1.364  16.391  0.5712  0.4067  0.2044
13545TIP3    H162126   6.280   1.372  16.486  1.2615  1.6408  0.0676
13545TIP3    H262127   6.230   1.446  16.364 -0.5901 -0.3871 -0.4622
13546TIP3   OH262128   1.132   4.842   4.962 -0.2397  0.3933 -0.1463
13546TIP3    H162129   1.068   4.791   4.913 -0.3752 -1.0031  1.3850
13546TIP3    H262130   1.171   4.901   4.898 -1.1181 -0.6450 -1.6818
13547TIP3   OH262131   4.577   0.634   3.326 -0.1440  0.0553 -0.2673
13547TIP3    H162132   4.649   0.693   3.344  0.2061 -0.9963  2.2558
13547TIP3    H262133   4.618   0.554   3.294 -0.1447 -0.4536  0.9259
13548TIP3   OH262134   6.645   1.464   0.518  0.3579  0.1361  0.0781
13548TIP3    H162135   6.563   1.513   0.523  0.9460  1.0759  1.0297
13548TIP3    H262136   6.645   1.410   0.598 -0.0795 -1.1210 -0.7401
13549TIP3   OH262137   6.297   1.871  16.859 -0.4442  0.3342  0.0958
13549TIP3    H162138   6.339   1.897  16.942  0.3551 -0.5557 -0.0150
13549TIP3    H262139   6.344   1.921  16.792  2.1827 -2.3596 -0.2917
13550TIP3   OH262140   1.981   6.791  11.569  0.3568  0.7438 -0.4023
13550TIP3    H162141   1.995   6.702  11.601  0.4875  1.0559  0.4472
13550TIP3    H262142   1.997   6.786  11.475 -1.4321 -0.4984 -0.6789
13551TIP3   OH262143   5.825   4.353  16.826 -0.2313  0.0706 -0.2210
13551TIP3    H162144   5.849   4.290  16.894  0.9101 -0.8861 -1.4572
13551TIP3    H262145   5.747   4.396  16.860  0.8211  0.3026  2.1145
13552TIP3   OH262146   5.289   2.071   3.815  0.4677  0.3298  0.0096
13552TIP3    H162147   5.344   2.099   3.742  0.5347  2.4170  0.7966
13552TIP3    H262148   5.317   1.981   3.833  1.9293  0.5094 -1.1477
13553TIP3   OH262149   2.927   4.460  15.287 -0.5502 -0.1208  0.1470
13553TIP3    H162150   2.913   4.378  15.334  0.7100 -0.1135  0.5785
13553TIP3    H262151   2.955   4.433  15.200 -1.3474 -0.1379 -0.1097
13554TIP3   OH262152   0.451   6.413   5.544  0.3601  0.1457 -0.4209
13554TIP3    H162153   0.420   6.324   5.562  0.3260  0.0059 -1.1192
13554TIP3    H262154   0.530   6.422   5.597 -1.1488  0.7174  1.8577
13555TIP3   OH262155   3.154   6.547  13.484  0.2613 -0.2022  0.2043
13555TIP3    H162156   3.239   6.575  13.517  0.7861 -1.3891 -0.0772
13555TIP3    H262157   3.166   6.539  13.389 -0.3479  0.2229  0.0826
13556TIP3   OH262158   6.550   6.117   1.002 -0.2872  0.1304  0.8207
13556TIP3    H162159   6.533   6.066   0.923  0.7409 -1.2011  1.4242
13556TIP3    H262160   6.526   6.206   0.978 -0.7547 -0.3750 -0.7321
13557TIP3   OH262161   0.624   4.668   1.804  0.0947  0.3665  0.5017
13557TIP3    H162162   0.680   4.617   1.745  1.8069  0.0636  2.2908
13557TIP3    H262163   0.653   4.758   1.793 -1.4264  0.7108 -1.0345
13558TIP3   OH262164   6.247   4.161   6.284 -0.2156  0.0080  0.7130
13558TIP3    H162165   6.334   4.121   6.289 -0.8100 -1.4131  0.3444
13558TIP3    H262166   6.241   4.215   6.363  0.8216 -0.2313  0.9802
13559TIP3   OH262167   1.821   3.637  15.379 -0.3422  0.1382  0.2039
13559TIP3    H162168   1.763   3.692  15.326  0.7357 -0.6694 -1.9142
13559TIP3    H262169   1.765   3.565  15.410 -0.5140 -0.6765 -1.8782
13560TIP3   OH262170   3.968   2.953  16.009  0.0269 -0.2625 -0.1876
13560TIP3    H162171   3.908   3.017  16.048 -0.3674 -0.4819 -0.4255
13560TIP3    H262172   4.026   2.928  16.081  2.0041  2.3881 -0.7099
13561TIP3   OH262173   5.648   2.609   6.047 -0.2636  0.1699 -0.3898
13561TIP3    H162174   5.571   2.580   5.998  0.3484 -1.1007 -0.6335
13561TIP3    H262175   5.619   2.688   6.093 -1.6140 -0.1025 -0.7397
13562TIP3   OH262176   4.685   2.418  12.524  0.0049  0.7996  0.0917
13562TIP3    H162177   4.752   2.436  12.458  0.4081  0.0324  0.2862
13562TIP3    H262178   4.678   2.323  12.526 -0.2102  0.8289  0.9544
13563TIP3   OH262179   2.334   4.888   1.542 -0.6566 -0.3912  0.5069
13563TIP3    H162180   2.393   4.839   1.599  0.5817 -1.5392 -1.6295
13563TIP3    H262181   2.310   4.825   1.473 -0.6320  1.4164 -1.2269
13564TIP3   OH262182   5.869   3.040   2.132  0.1537  0.7230  0.3010
13564TIP3    H162183   5.936   2.978   2.104  1.9034  3.1291 -1.2823
13564TIP3    H262184   5.818   3.058   2.053  1.2203  2.9998  0.0516
13565TIP3   OH262185   5.579   1.078  13.747  0.5631  0.1878 -0.2606
13565TIP3    H162186   5.505   1.062  13.689  0.4011  0.1215 -0.0376
13565TIP3    H262187   5.584   1.173  13.754 -1.4019  0.2021  2.1219
13566TIP3   OH262188   2.957   2.469  15.147  0.3638  0.3671  0.3557
13566TIP3    H162189   2.921   2.515  15.071  1.3090  0.3026 -0.1504
13566TIP3    H262190   3.008   2.535  15.194  1.3345 -0.0105 -0.1167
13567TIP3   OH262191   5.421   3.611   5.589 -0.3726  0.2060  0.3417
13567TIP3    H162192   5.488   3.645   5.648 -1.7128 -0.3157  2.2540
13567TIP3    H262193   5.470   3.562   5.523  1.1114 -0.5527  1.9381
13568TIP3   OH262194   6.454   4.323   5.157 -0.2629  0.1448 -0.0861
13568TIP3    H162195   6.424   4.370   5.235 -2.3245 -1.3666  0.1362
13568TIP3    H262196   6.502   4.248   5.190 -0.7580 -0.2568 -0.2537
13569TIP3   OH262197   2.077   1.146   2.427 -0.3302  0.1930  0.5198
13569TIP3    H162198   2.069   1.071   2.487 -0.5115  0.4270  0.7903
13569TIP3    H262199   2.054   1.110   2.341 -3.0909  0.5068  1.0344
13570TIP3   OH262200   2.737   0.829  12.717 -0.1117  0.0400  0.3770
13570TIP3    H162201   2.654   0.875  12.730  0.1543 -0.0437  3.0953
13570TIP3    H262202   2.739   0.806  12.625 -3.0213  0.2032  0.2046
13571TIP3   OH262203   3.305   5.020   3.534 -0.1492 -0.2558  0.2522
13571TIP3    H162204   3.251   4.964   3.478 -0.6021  0.6228 -0.2076
13571TIP3    H262205   3.325   4.966   3.610 -3.9400  0.2193  1.7555
13572TIP3   OH262206   4.700   4.280   2.648 -0.2313  0.3342  0.6716
13572TIP3    H162207   4.694   4.223   2.571  0.6332 -0.4363  1.1547
13572TIP3    H262208   4.794   4.291   2.662 -0.3844  0.9623  1.2625
13573TIP3   OH262209   5.672   2.990  13.333  0.2410  0.2384  0.7820
13573TIP3    H162210   5.681   2.898  13.359  1.4053  0.2115  0.3234
13573TIP3    H262211   5.758   3.028  13.348 -0.4391  1.4698  1.7188
13574TIP3   OH262212   4.068   4.616  15.374  0.0727 -0.2949  0.5037
13574TIP3    H162213   4.033   4.705  15.377 -1.6475 -0.9490  1.5428
13574TIP3    H262214   4.056   4.588  15.283  0.2182  0.3813  0.2738
13575TIP3   OH262215   3.587   6.606  14.009 -0.2974 -0.5270  0.1905
13575TIP3    H162216   3.549   6.666  13.945  0.2345 -0.5885 -0.1831
13575TIP3    H262217   3.551   6.636  14.093  1.4194  1.5463  0.2854
13576TIP3   OH262218   2.700   1.131   2.855  0.6541  0.4173  0.6043
13576TIP3    H162219   2.661   1.047   2.830  0.5717  0.2917  1.1482
13576TIP3    H262220   2.794   1.112   2.861  0.7269  0.5484  0.0011
13577TIP3   OH262221   2.915   4.699  12.126  0.2290  0.5999  0.0897
13577TIP3    H162222   2.831   4.675  12.086 -0.9134 -0.5907  2.8906
13577TIP3    H262223   2.944   4.775  12.077 -3.3766  2.1623  0.0096
13578TIP3   OH262224   1.933   1.139  11.965 -0.5591 -0.7669 -0.0460
13578TIP3    H162225   1.945   1.222  11.920 -0.1804 -1.0489 -0.4774
13578TIP3    H262226   1.842   1.141  11.994 -0.1632  0.3916  1.1926
13579TIP3   OH262227   0.973   4.972   1.031 -0.3419 -0.9035 -0.4404
13579TIP3    H162228   1.021   5.014   0.960 -0.1930 -1.1994 -0.5162
13579TIP3    H262229   1.001   4.881   1.029  2.0844 -0.3402  1.9764
13580TIP3   OH262230   5.286   6.274   5.885  0.3301  0.0798 -0.0756
13580TIP3    H162231   5.203   6.302   5.845  1.2080  3.6585  0.2863
13580TIP3    H262232   5.353   6.300   5.822  1.3787  0.7635  1.2689
13581TIP3   OH262233   3.627   1.618   0.227 -0.2695  0.4032  0.0477
13581TIP3    H162234   3.653   1.528   0.248  1.2781  0.5541 -1.0781
13581TIP3    H262235   3.662   1.671   0.299 -2.0510  0.0420  1.2458
13582TIP3   OH262236   5.025   0.558   5.043 -0.1663 -0.2406 -0.6743
13582TIP3    H162237   4.990   0.573   4.955 -0.2522 -1.0696 -0.7936
13582TIP3    H262238   4.993   0.632   5.094 -1.8439 -0.7917 -0.8539
13583TIP3   OH262239   3.780   0.241   2.253 -0.8106  0.1077  0.2265
13583TIP3    H162240   3.702   0.203   2.295 -1.9614  0.5097 -1.4637
13583TIP3    H262241   3.790   0.191   2.172  0.3633  0.4357  0.1616
13584TIP3   OH262242   4.876   6.759  13.329 -0.1529 -0.1530 -0.5096
13584TIP3    H162243   4.865   6.664  13.328 -0.6356 -0.0995 -1.7698
13584TIP3    H262244   4.842   6.786  13.414  0.2620 -1.1266 -0.0127
13585TIP3   OH262245   3.221   1.105  16.246  0.3199 -0.1449 -0.0346
13585TIP3    H162246   3.227   1.081  16.338 -1.7562  1.7004  0.6597
13585TIP3    H262247   3.294   1.165  16.232  1.6093 -1.6602 -0.0718
13586TIP3   OH262248   4.022   5.936  15.302  0.1226 -0.2045  0.0311
13586TIP3    H162249   4.052   5.846  15.289 -0.5864 -0.5271  0.5299
13586TIP3    H262250   4.078   5.970  15.372  1.4985  0.3131 -1.2787
13587TIP3   OH262251   2.109   5.370  15.032  0.2360 -0.0343  0.5856
13587TIP3    H162252   2.042   5.428  15.069 -0.0330 -0.1322  0.2552
13587TIP3    H262253   2.095   5.286  15.075  0.9562  0.2728  1.4498
13588TIP3   OH262254   2.753   1.356   0.467 -0.2962  0.2293 -0.2751
13588TIP3    H162255   2.737   1.262   0.468  1.6564 -0.1534  1.5687
13588TIP3    H262256   2.796   1.372   0.383 -0.4225 -0.5535 -0.4963
13589TIP3   OH262257   3.610   1.495  14.428 -0.2662  0.0512  0.0782
13589TIP3    H162258   3.547   1.502  14.500 -0.4029 -2.1880  0.2565
13589TIP3    H262259   3.692   1.528  14.465 -0.2392 -1.4156  1.4716
13590TIP3   OH262260   2.966   6.771   5.684  0.0916  0.5854 -0.7607
13590TIP3    H162261   2.985   6.732   5.598 -1.2867  0.8831 -1.2315
13590TIP3    H262262   3.003   6.859   5.679  4.0833 -0.7955  0.6509
13591TIP3   OH262263   2.609   3.164  12.015  0.0649  0.4236 -0.4208
13591TIP3    H162264   2.524   3.204  11.996 -0.0259 -0.4719 -2.1310
13591TIP3    H262265   2.646   3.145  11.929  2.4254  1.5991  0.2569
13592TIP3   OH262266   2.475   1.795  16.961  0.8722  0.4071  0.4818
13592TIP3    H162267   2.563   1.815  16.930  0.4603  1.5696  0.0261
13592TIP3    H262268   2.417   1.823  16.891  0.1530 -0.9832  0.4838
13593TIP3   OH262269   5.362   5.035   5.964  0.0153  0.2849 -0.3822
13593TIP3    H162270   5.374   4.946   5.931 -1.0311  0.5798 -1.6001
13593TIP3    H262271   5.291   5.027   6.028  0.9442  0.0069  0.6576
13594TIP3   OH262272   1.786   1.010   2.613 -0.1938 -0.2503 -0.0919
13594TIP3    H162273   1.761   1.060   2.536  0.0965  1.4247  0.8456
13594TIP3    H262274   1.880   0.997   2.604 -0.1510 -0.0089 -0.0143
13595TIP3   OH262275   2.125   5.374  13.174  0.3240  1.1710  0.4843
13595TIP3    H162276   2.132   5.423  13.091  1.8724  0.4066  0.1210
13595TIP3    H262277   2.054   5.417  13.221  0.8758  3.0600 -0.3053
13596TIP3   OH262278   6.590   3.767  16.425  0.1690  0.0229  0.0536
13596TIP3    H162279   6.567   3.818  16.347  2.3055  1.3814  0.2369
13596TIP3    H262280   6.561   3.822  16.498  0.7242  0.0741  0.2373
13597TIP3   OH262281   2.343   1.681  11.283  0.0883  0.0147  0.7004
13597TIP3    H162282   2.437   1.700  11.284  0.7816 -2.8297 -0.3109
13597TIP3    H262283   2.325   1.656  11.192 -1.2061 -1.2356  1.2604
13598TIP3   OH262284   3.412   5.729  14.051 -0.5581 -0.0849  0.0384
13598TIP3    H162285   3.484   5.791  14.036 -0.2257 -1.0104 -2.6403
13598TIP3    H262286   3.338   5.767  14.003 -1.8821  0.6677  2.4558
13599TIP3   OH262287   2.946   3.472   3.588 -0.0654 -0.0138 -0.7476
13599TIP3    H162288   2.914   3.562   3.598  0.4105  0.0245  0.8007
13599TIP3    H262289   3.005   3.475   3.514  1.8467  1.5474  0.7434
13600TIP3   OH262290   6.012   5.809   1.300  0.4335  0.3487 -0.0182
13600TIP3    H162291   5.985   5.717   1.294  0.7609  0.3420 -3.2204
13600TIP3    H262292   6.101   5.807   1.334 -0.6409 -0.1785  3.1031
13601TIP3   OH262293   1.654   6.289   5.331 -0.0607  0.4371  0.5015
13601TIP3    H162294   1.637   6.232   5.256  0.1566 -0.4822  1.1379
13601TIP3    H262295   1.749   6.280   5.346 -0.0105  1.0294  0.5603
13602TIP3   OH262296   2.430   0.720   5.648  0.2313  0.0884  0.4537
13602TIP3    H162297   2.427   0.644   5.706 -1.0495  0.3262  0.7333
13602TIP3    H262298   2.345   0.762   5.659 -0.1657 -0.0190 -1.8038
13603TIP3   OH262299   3.428   3.118  16.665  0.4971 -0.1779 -0.0776
13603TIP3    H162300   3.400   3.156  16.581 -1.1830  0.4598  0.7284
13603TIP3    H262301   3.371   3.159  16.730  1.1690 -1.3204  1.2805
13604TIP3   OH262302   1.922   5.425   2.472 -0.1312 -0.3506 -0.0705
13604TIP3    H162303   1.926   5.509   2.518 -0.3630 -0.9576  1.1102
13604TIP3    H262304   1.899   5.447   2.382 -0.2437  0.8421  0.2389
13605TIP3   OH262305   1.611   2.938   3.686  0.0399  0.2893  0.1099
13605TIP3    H162306   1.545   2.918   3.620 -0.2210 -1.4691  0.8534
13605TIP3    H262307   1.695   2.917   3.645 -0.0095  0.5841 -0.1433
13606TIP3   OH262308   6.078   6.063   0.066 -0.1103 -0.3118 -0.4262
13606TIP3    H162309   6.133   5.985   0.058 -1.4544 -1.3420 -0.1378
13606TIP3    H262310   6.137   6.133   0.092  0.8051 -1.7211  1.4898
13607TIP3   OH262311   6.744   3.483   5.892 -0.0444 -0.0533 -0.5392
13607TIP3    H162312   6.798   3.561   5.905 -1.0458  0.4127  1.2031
13607TIP3    H262313   6.800   3.411   5.920 -0.0042  0.3360  0.4435
13608TIP3   OH262314   6.456   1.762  10.627 -0.6701  0.3560  0.2299
13608TIP3    H162315   6.371   1.790  10.663 -2.2090 -2.9542 -0.4558
13608TIP3    H262316   6.506   1.733  10.704 -1.7063 -1.2634  0.3417
13609TIP3   OH262317   0.831   0.822   1.305  0.2530 -0.5035  0.5016
13609TIP3    H162318   0.848   0.809   1.212  1.5045 -2.1303  0.8990
13609TIP3    H262319   0.896   0.767   1.349 -1.6579 -1.4692  2.3114
13610TIP3   OH262320   6.144   1.927   0.229 -0.2372 -0.4902 -0.2857
13610TIP3    H162321   6.054   1.910   0.257 -0.4597  0.8345 -0.1191
13610TIP3    H262322   6.198   1.878   0.291 -0.8377 -1.6928 -0.6841
13611TIP3   OH262323   5.422   6.743  16.428  0.4509 -0.8379 -0.6259
13611TIP3    H162324   5.517   6.758  16.426  0.0870  1.8823 -1.8440
13611TIP3    H262325   5.404   6.690  16.351  1.1084 -2.7731  0.4847
13612TIP3   OH262326   6.719   4.366   3.007 -0.0046  0.2315  0.3189
13612TIP3    H162327   6.790   4.320   3.052  0.2659  1.5485  1.3139
13612TIP3    H262328   6.646   4.363   3.069 -0.2564  0.4037  0.0339
13613TIP3   OH262329   6.693   5.261   4.604 -0.0404  0.2694  0.0205
13613TIP3    H162330   6.778   5.302   4.615 -0.6450  2.1887 -1.6885
13613TIP3    H262331   6.707   5.195   4.536  0.2825 -0.2045  0.5357
13614TIP3   OH262332   4.362   0.412   0.399  0.3176 -0.1952 -0.0311
13614TIP3    H162333   4.383   0.379   0.486 -0.2210  0.1653  0.2392
13614TIP3    H262334   4.396   0.501   0.397  1.8626 -0.7650 -0.7981
13615TIP3   OH262335   1.721   3.823  12.218  0.3209  0.7109  0.4567
13615TIP3    H162336   1.630   3.795  12.214 -0.3307  2.6869  0.1228
13615TIP3    H262337   1.734   3.852  12.308 -0.1276  2.5999 -0.0473
13616TIP3   OH262338   3.325   1.756   1.651  0.0964 -0.1238  0.5630
13616TIP3    H162339   3.414   1.792   1.651  0.3137 -0.6292 -0.3226
13616TIP3    H262340   3.320   1.705   1.570  0.0818 -2.7478  2.0948
13617TIP3   OH262341   4.959   6.824   0.232  0.0266  0.0618 -0.0260
13617TIP3    H162342   4.889   6.765   0.205  0.0481 -0.2498  0.5729
13617TIP3    H262343   4.958   6.820   0.328  2.3548 -1.7689 -0.0014
13618TIP3   OH262344   2.050   1.977  14.591 -0.3134 -0.0174  0.0145
13618TIP3    H162345   2.100   1.967  14.510 -1.7793 -0.7835 -0.8285
13618TIP3    H262346   2.110   2.022  14.651  1.4372 -1.0628 -0.8815
13619TIP3   OH262347   5.186   5.108   1.981  0.2494  0.5529  0.0295
13619TIP3    H162348   5.091   5.100   1.990  0.0861  1.2753 -0.8247
13619TIP3    H262349   5.211   5.032   1.927  0.1931  0.2586  0.4109
13620TIP3   OH262350   3.067   4.631  15.790  0.0747 -0.0537 -0.2755
13620TIP3    H162351   3.130   4.631  15.718 -1.2595  2.1914 -1.5915
13620TIP3    H262352   3.081   4.714  15.834 -1.1351 -0.0478  0.1396
13621TIP3   OH262353   1.438   3.830   2.986  0.2105  0.4552  0.2778
13621TIP3    H162354   1.381   3.757   3.007 -0.0354  0.5178 -0.1476
13621TIP3    H262355   1.512   3.790   2.939 -1.0929  0.7003 -2.1644
13622TIP3   OH262356   5.206   0.882  13.327 -0.3532  0.2076  0.2099
13622TIP3    H162357   5.143   0.918  13.264  1.2112  1.8458 -0.4858
13622TIP3    H262358   5.184   0.789  13.331 -3.3412  0.8363  0.6515
13623TIP3   OH262359   3.681   6.649  16.019 -0.4741 -0.1789  0.3456
13623TIP3    H162360   3.731   6.696  16.085 -0.6016  1.1947 -0.4919
13623TIP3    H262361   3.696   6.557  16.038  0.4835  0.1989  1.5227
13624TIP3   OH262362   3.654   5.885   4.574  0.1707  0.1560 -0.4254
13624TIP3    H162363   3.696   5.945   4.635 -0.4576  0.1668  0.0065
13624TIP3    H262364   3.695   5.903   4.489  0.3371  0.8433 -0.1991
13625TIP3   OH262365   4.523   6.220   2.344 -0.0355  0.3081  0.2369
13625TIP3    H162366   4.618   6.229   2.352  0.6883 -1.5238 -3.9435
13625TIP3    H262367   4.504   6.135   2.384  0.3920 -0.1500 -0.5215
13626TIP3   OH262368   3.420   6.324   4.919  0.3463 -0.3376 -0.1392
13626TIP3    H162369   3.438   6.417   4.909 -0.2038 -0.4524 -2.7947
13626TIP3    H262370   3.482   6.280   4.860 -0.1778 -1.5807  0.1911
13627TIP3   OH262371   6.063   5.572   6.211  0.3233 -0.0573 -0.2691
13627TIP3    H162372   6.129   5.624   6.165  0.8368  0.4994  1.0629
13627TIP3    H262373   6.031   5.629   6.281 -1.0927 -0.5670 -0.4707
13628TIP3   OH262374   5.107   4.803   1.185  0.6662  0.5198 -0.1608
13628TIP3    H162375   5.026   4.769   1.224 -0.3394  1.9043 -0.9520
13628TIP3    H262376   5.173   4.793   1.254 -0.3707  0.1362  0.8048
13629TIP3   OH262377   5.810   4.233   5.600  0.0617  0.3823  0.0356
13629TIP3    H162378   5.768   4.269   5.679  0.1560 -0.1857  0.3480
13629TIP3    H262379   5.887   4.288   5.587 -0.7132  1.3892 -0.4970
13630TIP3   OH262380   5.151   4.241   4.265 -0.3812  0.4299  0.3955
13630TIP3    H162381   5.155   4.146   4.276 -0.9259  0.6606  3.1466
13630TIP3    H262382   5.062   4.258   4.235 -0.8052  0.1844  1.4976
13631TIP3   OH262383   5.017   3.444   2.695  0.3773  0.3786 -0.2580
13631TIP3    H162384   5.012   3.454   2.600 -0.2687  0.0607 -0.2668
13631TIP3    H262385   5.077   3.513   2.723  0.5849  0.4706 -0.8939
13632TIP3   OH262386   6.107   4.390   0.061  0.2406  0.3294  0.1121
13632TIP3    H162387   6.136   4.305   0.094 -0.1902 -0.2957 -1.0548
13632TIP3    H262388   6.129   4.452   0.131  2.6849 -0.3735  0.0625
13633TIP3   OH262389   3.867   2.385   5.367 -0.1980 -0.2302  0.7281
13633TIP3    H162390   3.834   2.296   5.363  0.4436 -0.4694  0.5583
13633TIP3    H262391   3.959   2.377   5.342 -0.4090  0.6294 -0.3710
13634TIP3   OH262392   0.528   1.083  16.282  0.3118  0.0743  0.2986
13634TIP3    H162393   0.595   1.107  16.345  1.5207 -1.0919 -0.4879
13634TIP3    H262394   0.466   1.156  16.284  0.7933  0.4803  2.1401
13635TIP3   OH262395   5.999   5.086  15.650 -0.1228 -0.2773 -0.5956
13635TIP3    H162396   5.928   5.147  15.671 -1.2786 -2.2531  1.8056
13635TIP3    H262397   5.955   5.001  15.639  1.7695 -1.4876  0.5926
13636TIP3   OH262398   0.079   4.012  13.029  0.0417 -0.3450  0.4407
13636TIP3    H162399   0.159   4.053  12.997  0.3530 -0.6479  0.8269
13636TIP3    H262400   0.009   4.063  12.988  0.4250  0.1796  0.4168
13637TIP3   OH262401   1.060   6.543   1.403 -0.1902 -0.2527 -0.1305
13637TIP3    H162402   1.150   6.550   1.371 -0.9392  0.1880 -2.2947
13637TIP3    H262403   1.069   6.511   1.493  2.2304  2.2119  0.6169
13638TIP3   OH262404   4.954   2.548  15.624  0.8425 -0.2039 -0.3799
13638TIP3    H162405   4.988   2.598  15.550  0.1333  0.6622 -0.1358
13638TIP3    H262406   4.954   2.611  15.697 -1.7795  0.0194 -0.4949
13639TIP3   OH262407   1.912   0.781   3.560 -0.1089 -0.7488  0.4299
13639TIP3    H162408   1.951   0.701   3.526 -1.7166 -1.2090 -0.4256
13639TIP3    H262409   1.883   0.829   3.482  1.2415  0.9143  0.8968
13640TIP3   OH262410   5.572   1.243   3.229 -0.3346 -0.1312 -0.1468
13640TIP3    H162411   5.604   1.247   3.319 -0.4007  0.6080 -0.1456
13640TIP3    H262412   5.507   1.173   3.229 -1.6835  1.0735  0.8359
13641TIP3   OH262413   2.199   1.032  16.376  0.4003  0.0635 -0.7987
13641TIP3    H162414   2.156   0.948  16.360  0.2761 -0.1923  0.7110
13641TIP3    H262415   2.127   1.094  16.388  0.4105 -0.2129  0.9564
13642TIP3   OH262416   1.732   3.318  15.726  0.4637 -0.1056 -0.1490
13642TIP3    H162417   1.674   3.346  15.655 -0.0773 -0.4578  0.1489
13642TIP3    H262418   1.702   3.229  15.748  0.0783  0.3108  1.0844
13643TIP3   OH262419   4.376   0.164  15.925  0.8573 -0.6040  0.3380
13643TIP3    H162420   4.308   0.105  15.892 -0.0723  1.0241 -0.8191
13643TIP3    H262421   4.457   0.115  15.913  0.0197 -2.2002  0.8004
13644TIP3   OH262422   1.601   3.877   2.009  0.1072 -0.4948  0.6543
13644TIP3    H162423   1.645   3.950   1.965 -1.4211  0.1888  0.2082
13644TIP3    H262424   1.581   3.909   2.097 -1.2995 -0.0361  0.1968
13645TIP3   OH262425   0.034   0.452  15.081 -0.6995 -0.2101 -0.3869
13645TIP3    H162426   0.106   0.406  15.124 -1.5675  0.8630  2.4598
13645TIP3    H262427   0.065   0.542  15.072 -1.7874  0.4341  1.4990
13646TIP3   OH262428   2.359   0.071  13.800  0.3941 -0.1336 -0.1529
13646TIP3    H162429   2.378   0.130  13.873 -0.0787  0.0570 -0.1814
13646TIP3    H262430   2.433   0.011  13.798  0.4078 -0.1454  0.4904
13647TIP3   OH262431   2.833   4.486   3.874 -0.1241  0.3853  0.4495
13647TIP3    H162432   2.807   4.525   3.791 -1.0423  0.3435  0.7076
13647TIP3    H262433   2.887   4.410   3.850 -2.6101 -1.2848 -0.2289
13648TIP3   OH262434   0.834   4.763  13.921 -0.4081 -0.0630  0.1146
13648TIP3    H162435   0.799   4.841  13.880 -0.0015 -0.7495 -1.6134
13648TIP3    H262436   0.782   4.691  13.886 -0.2025 -0.6638  0.9880
13649TIP3   OH262437   2.066   4.472  15.564 -0.4211  0.4548  0.3189
13649TIP3    H162438   1.993   4.494  15.621 -2.2585 -0.4314 -1.5453
13649TIP3    H262439   2.055   4.379  15.545  2.8196 -0.4476  2.1117
13650TIP3   OH262440   6.248   2.374  11.704 -0.1606  0.1233 -0.2851
13650TIP3    H162441   6.254   2.448  11.765  0.0737 -0.4746  0.4382
13650TIP3    H262442   6.287   2.406  11.623  2.6174 -0.0540  0.8650
13651TIP3   OH262443   3.447   6.224  16.269  0.1288 -0.9480 -0.4186
13651TIP3    H162444   3.478   6.201  16.356 -0.6470 -2.4915 -0.5305
13651TIP3    H262445   3.526   6.226  16.215  0.4378 -1.4131  0.0149
13652TIP3   OH262446   5.958   1.766  11.148  0.3031  0.3885 -0.0926
13652TIP3    H162447   5.870   1.801  11.164  0.0568 -0.2213 -0.1134
13652TIP3    H262448   5.979   1.794  11.058  0.1533  0.5697 -0.0724
13653TIP3   OH262449   4.931   3.251   5.200 -0.5749 -0.4372  0.5421
13653TIP3    H162450   4.890   3.168   5.177 -1.8775  0.4642 -0.5032
13653TIP3    H262451   4.885   3.317   5.148  1.1515  0.8277  0.5050
13654TIP3   OH262452   0.416   3.158   4.615  0.0151 -0.2403  0.3731
13654TIP3    H162453   0.476   3.096   4.657  0.0326 -1.1902 -0.9753
13654TIP3    H262454   0.417   3.132   4.523 -1.1198  0.8592  0.0368
13655TIP3   OH262455   6.238   5.077   2.057 -0.3743  0.2643 -0.3474
13655TIP3    H162456   6.329   5.056   2.077  0.0909  1.0685 -1.5161
13655TIP3    H262457   6.190   4.997   2.076  0.2503  0.3886  2.1853
13656TIP3   OH262458   6.488   0.919   4.936  0.5932 -0.6827 -0.0828
13656TIP3    H162459   6.533   0.891   5.016 -0.5412  0.1585  0.9129
13656TIP3    H262460   6.557   0.933   4.872  1.7074  0.1105  1.2419
13657TIP3   OH262461   5.478   0.430   4.850 -0.0284  0.3132 -0.1612
13657TIP3    H162462   5.497   0.507   4.904 -0.3425 -1.2081  2.2598
13657TIP3    H262463   5.564   0.393   4.830  0.1676  1.6134 -1.9426
13658TIP3   OH262464   4.875   4.330   6.734  0.3997  0.8751 -0.2033
13658TIP3    H162465   4.862   4.237   6.751 -1.9108  1.3889  1.4017
13658TIP3    H262466   4.805   4.354   6.673 -0.5865  1.9447  1.2484
13659TIP3   OH262467   0.659   5.809  14.084  0.2879 -0.4826  0.1755
13659TIP3    H162468   0.604   5.735  14.061 -0.9116  0.0912  1.0956
13659TIP3    H262469   0.658   5.865  14.007  1.3443 -1.4634 -0.5910
13660TIP3   OH262470   0.111   5.279  16.311  0.1534 -0.2123  0.3436
13660TIP3    H162471   0.055   5.332  16.254  0.4777  1.2132  1.2968
13660TIP3    H262472   0.051   5.244  16.378  0.1843  0.2791  0.6348
13661TIP3   OH262473   0.381   4.392   0.917  0.2150  0.2179  0.4717
13661TIP3    H162474   0.382   4.358   1.006  1.2787  3.7839  1.9754
13661TIP3    H262475   0.464   4.438   0.908 -0.2598  0.7153 -2.0703
13662TIP3   OH262476   1.970   3.924   2.711 -0.0663  0.0018  0.1613
13662TIP3    H162477   1.982   3.879   2.794  0.5591  0.8254  0.5422
13662TIP3    H262478   1.922   4.004   2.734  0.3009  0.3394 -0.2195
13663TIP3   OH262479   0.020   5.260  15.327  0.6207  0.5509 -0.1647
13663TIP3    H162480   0.047   5.178  15.287  1.7790 -0.4444  2.4317
13663TIP3    H262481   0.098   5.291  15.374 -0.4839  1.8684  0.9099
13664TIP3   OH262482   5.201   2.814   6.313 -0.0488  0.4696  0.3558
13664TIP3    H162483   5.243   2.737   6.275 -1.9401 -1.3021  1.6070
13664TIP3    H262484   5.259   2.841   6.385 -1.0225 -2.1355  2.2880
13665TIP3   OH262485   5.254   2.070  15.844 -0.0389  0.0119  0.1610
13665TIP3    H162486   5.340   2.054  15.882  0.2924 -0.6099 -0.8382
13665TIP3    H262487   5.253   2.020  15.763 -1.7224 -0.8518  0.6631
13666TIP3   OH262488   6.280   1.536  15.674 -0.2113 -0.3276  0.1529
13666TIP3    H162489   6.319   1.616  15.639 -1.0201  0.1280  0.2712
13666TIP3    H262490   6.332   1.465  15.636 -0.0510  0.2255 -0.6746
13667TIP3   OH262491   4.376   3.192  16.300  0.1582  0.1286 -0.3975
13667TIP3    H162492   4.348   3.278  16.332  1.1040  0.6837 -1.0296
13667TIP3    H262493   4.439   3.211  16.231  2.1617 -1.0475  0.9903
13668TIP3   OH262494   0.741   3.537   0.840  0.0209 -0.7232  0.1996
13668TIP3    H162495   0.832   3.553   0.867 -0.3251  0.8273  0.4900
13668TIP3    H262496   0.732   3.584   0.758 -0.4884 -1.0015  0.0949
13669TIP3   OH262497   1.238   6.590   4.041 -0.3250 -0.3403 -0.1542
13669TIP3    H162498   1.225   6.524   4.109 -1.0419  0.0068  0.0613
13669TIP3    H262499   1.193   6.668   4.074  2.9217  1.2446  0.9604
13670TIP3   OH262500   6.619   4.277   1.046 -0.1417 -0.0215 -0.1396
13670TIP3    H162501   6.648   4.222   0.973 -1.4469 -1.0569  0.0918
13670TIP3    H262502   6.551   4.333   1.009  1.8574  2.2412 -0.6227
13671TIP3   OH262503   6.539   1.871  13.386 -0.2485  0.0446 -0.1476
13671TIP3    H162504   6.584   1.846  13.306 -1.0046  0.9564 -0.8962
13671TIP3    H262505   6.456   1.909  13.355  0.0159  1.6435  0.9675
13672TIP3   OH262506   6.013   6.153  12.932 -0.3043 -0.4065  0.1688
13672TIP3    H162507   6.067   6.081  12.964  0.8392  0.2610 -0.2052
13672TIP3    H262508   6.039   6.163  12.841  0.1135  0.9577  0.4135
13673TIP3   OH262509   1.912   1.733  15.484  0.2507  0.2788  0.5892
13673TIP3    H162510   1.904   1.647  15.444  0.0553  0.8646 -0.6694
13673TIP3    H262511   1.840   1.737  15.547 -0.1794 -0.2051  0.1362
13674TIP3   OH262512   2.915   1.199  16.117  0.5420 -0.1805 -0.1871
13674TIP3    H162513   2.866   1.270  16.158 -0.3482 -0.8805 -0.0008
13674TIP3    H262514   3.000   1.199  16.162  1.4616  2.2367 -1.7777
13675TIP3   OH262515   6.584   4.690  11.453  0.1400  0.0197 -0.2834
13675TIP3    H162516   6.592   4.737  11.536  1.6749  0.0265 -0.4150
13675TIP3    H262517   6.497   4.650  11.457 -1.3307  2.9471 -0.2181
13676TIP3   OH262518   3.228   3.108   4.950  0.0380  0.5678  0.5891
13676TIP3    H162519   3.229   3.202   4.968  1.5500  0.5229  0.8695
13676TIP3    H262520   3.167   3.072   5.014 -0.4495  1.3277  0.5709
13677TIP3   OH262521   0.633   0.440  16.555 -0.2530 -0.0621 -0.1375
13677TIP3    H162522   0.577   0.431  16.478 -0.3292  1.4579 -0.2702
13677TIP3    H262523   0.716   0.472  16.521 -0.3441  0.7863  0.4262
13678TIP3   OH262524   5.106   5.801  13.233  0.4402  0.2666 -0.5590
13678TIP3    H162525   5.074   5.724  13.280  1.0508  0.5912  0.4186
13678TIP3    H262526   5.053   5.804  13.153  1.4175 -2.0412 -1.3880
13679TIP3   OH262527   3.214   4.726  16.592  0.1695 -0.2239 -0.2536
13679TIP3    H162528   3.158   4.650  16.606 -0.5274  0.0046 -1.5878
13679TIP3    H262529   3.233   4.759  16.680  0.3390 -1.8126  0.3368
13680TIP3   OH262530   2.347   5.762   1.866  0.0670  0.1195 -0.7226
13680TIP3    H162531   2.325   5.707   1.941  0.7257  0.5547 -0.1885
13680TIP3    H262532   2.296   5.842   1.880 -0.8285 -0.3155 -1.4535
13681TIP3   OH262533   4.247   4.207  14.640 -0.1990  0.2549  0.4451
13681TIP3    H162534   4.172   4.215  14.581  0.7569 -0.5865 -0.9403
13681TIP3    H262535   4.208   4.182  14.724 -1.3701 -2.2470 -0.7307
13682TIP3   OH262536   5.048   1.634  16.779 -0.0035 -1.0639 -0.3533
13682TIP3    H162537   4.971   1.660  16.830 -0.1252  1.7056 -1.7604
13682TIP3    H262538   5.104   1.712  16.778  2.1761 -2.5315 -0.6137
13683TIP3   OH262539   0.307   4.963   2.153  0.8040 -0.4032 -0.1480
13683TIP3    H162540   0.321   5.023   2.226 -0.8126 -1.7854  1.4069
13683TIP3    H262541   0.308   5.018   2.075  1.6131  1.2713  1.0037
13684TIP3   OH262542   6.240   5.079   6.380  0.1812 -0.9833  0.1052
13684TIP3    H162543   6.150   5.063   6.406 -0.6861  2.8492  0.1020
13684TIP3    H262544   6.272   5.144   6.443  2.1832 -0.5909 -1.2023
13685TIP3   OH262545   1.303   6.357   0.778 -0.0266  0.2329  0.2389
13685TIP3    H162546   1.272   6.368   0.688  1.8451 -0.9221 -0.6010
13685TIP3    H262547   1.357   6.278   0.775  1.9875  1.4692  1.8388
13686TIP3   OH262548   2.577   6.437   3.697 -0.0783  0.5303  0.4454
13686TIP3    H162549   2.671   6.449   3.683 -0.1460  3.1614  1.6916
13686TIP3    H262550   2.564   6.457   3.790 -1.4676 -3.1023  1.1811
13687TIP3   OH262551   3.510   5.266  12.227  0.1909 -0.2548 -0.4238
13687TIP3    H162552   3.601   5.294  12.229 -0.2460  1.4426 -1.7676
13687TIP3    H262553   3.508   5.184  12.277  2.4632 -0.4267 -0.5430
13688TIP3   OH262554   1.161   1.285   3.046  0.2853 -0.2734  0.2686
13688TIP3    H162555   1.091   1.285   2.982  0.6709  1.9145 -0.2628
13688TIP3    H262556   1.120   1.313   3.128  0.4380  0.7350  0.0216
13689TIP3   OH262557   5.147   5.895  13.984 -0.2987 -0.0003 -0.0682
13689TIP3    H162558   5.236   5.882  13.953  0.0652  0.8538  0.5988
13689TIP3    H262559   5.093   5.842  13.925  0.6255 -0.3936 -0.5721
13690TIP3   OH262560   4.844   5.525  11.888 -0.4239 -0.5078 -0.1141
13690TIP3    H162561   4.794   5.575  11.953 -0.3885 -1.8805  1.0235
13690TIP3    H262562   4.933   5.560  11.894 -0.4548 -0.5231  0.4630
13691TIP3   OH262563   3.042   2.153  12.798 -0.1860 -0.0752  0.5536
13691TIP3    H162564   3.113   2.200  12.753  0.3956 -0.3591  1.1525
13691TIP3    H262565   2.962   2.198  12.771  0.3666  1.4186  1.3137
13692TIP3   OH262566   5.068   5.216   5.818 -0.4732 -0.4970  0.0733
13692TIP3    H162567   5.136   5.213   5.886 -1.1861 -0.8667  0.7957
13692TIP3    H262568   5.055   5.310   5.801  0.9146 -0.4516 -0.8104
13693TIP3   OH262569   1.187   3.862   0.236 -0.1888 -0.0173  0.4163
13693TIP3    H162570   1.098   3.876   0.269 -0.8072  0.9781 -1.5201
13693TIP3    H262571   1.196   3.923   0.163  2.6048  0.8859  1.3641
13694TIP3   OH262572   5.319   5.047  11.789  0.2051  0.1730  0.0024
13694TIP3    H162573   5.260   5.056  11.714 -1.0969 -1.0879  0.8275
13694TIP3    H262574   5.341   5.137  11.813 -1.4500  0.6884 -0.2878
13695TIP3   OH262575   5.209   2.196   0.449  0.2545 -1.0867 -0.1017
13695TIP3    H162576   5.136   2.238   0.404 -0.3034 -0.6634  1.1663
13695TIP3    H262577   5.269   2.267   0.469  2.0700 -1.6489 -2.8805
13696TIP3   OH262578   4.231   6.201   5.425 -0.3690 -0.5173  0.6100
13696TIP3    H162579   4.293   6.206   5.498  0.0415 -2.5598  0.4760
13696TIP3    H262580   4.286   6.197   5.347 -0.5841 -2.6854  0.5125
13697TIP3   OH262581   6.162   6.537  13.625  0.4833  0.2988  0.3108
13697TIP3    H162582   6.142   6.532  13.532  0.8922 -0.4558  0.2581
13697TIP3    H262583   6.180   6.630  13.641 -1.0497  0.6840 -0.0466
13698TIP3   OH262584   0.030   5.979   0.169 -0.2608 -0.2095 -0.5867
13698TIP3    H162585   0.031   5.944   0.080  0.1411 -0.1404 -0.6113
13698TIP3    H262586   0.097   6.047   0.169 -0.4928  0.0249 -0.3225
13699TIP3   OH262587   4.660   1.315  13.324  0.4151 -0.2278 -0.1072
13699TIP3    H162588   4.612   1.336  13.245 -1.6376  2.1444  1.6307
13699TIP3    H262589   4.700   1.230  13.306 -1.8528 -0.8485 -2.8279
13700TIP3   OH262590   3.299   1.903  14.419 -0.0221  0.4001 -0.1138
13700TIP3    H162591   3.230   1.932  14.359 -2.4062 -0.9189  1.7870
13700TIP3    H262592   3.310   1.810  14.398  1.3909  0.6277 -0.5099
13701TIP3   OH262593   3.632   4.351   5.467  0.5536  0.2283 -0.3634
13701TIP3    H162594   3.678   4.434   5.452 -0.7941  0.7995 -1.6246
13701TIP3    H262595   3.573   4.343   5.393 -0.8536 -0.8412  0.8152
13702TIP3   OH262596   4.295   0.043  16.631  0.3297  0.0713 -0.7798
13702TIP3    H162597   4.215   0.081  16.595  0.8310  0.5833 -1.3841
13702TIP3    H262598   4.318   0.101  16.705  0.0508 -0.1776 -0.4978
13703TIP3   OH262599   1.090   5.360   1.879  0.4602 -0.7281 -0.3275
13703TIP3    H162600   1.027   5.431   1.870  0.8501 -0.5016 -1.4278
13703TIP3    H262601   1.049   5.299   1.940 -0.0870  0.2037  0.2542
13704TIP3   OH262602   0.194   0.083  13.176  1.3078  0.0385  1.0297
13704TIP3    H162603   0.163  -0.003  13.205  2.0784 -0.8460 -0.6365
13704TIP3    H262604   0.238   0.066  13.093  1.1118  2.1188  0.4457
13705TIP3   OH262605   3.021   3.149   1.006  0.1688  0.5462 -0.2410
13705TIP3    H162606   3.001   3.103   0.925 -0.7314  1.2608 -0.4524
13705TIP3    H262607   3.095   3.206   0.984  0.1306  0.5072 -0.4731
13706TIP3   OH262608   3.668   0.670   0.640 -0.0570 -0.9403  0.2304
13706TIP3    H162609   3.619   0.624   0.571 -0.4977 -1.1838  0.7024
13706TIP3    H262610   3.658   0.615   0.718  0.3266 -0.5948  0.5304
13707TIP3   OH262611   3.821   5.669  15.659  0.4157  0.1376  0.2907
13707TIP3    H162612   3.893   5.645  15.717  0.0080 -0.6604  0.4799
13707TIP3    H262613   3.742   5.652  15.711  0.0809  0.7591 -0.0014
13708TIP3   OH262614   3.773   6.528   6.314 -0.4770  0.7026 -0.0746
13708TIP3    H162615   3.737   6.566   6.394 -1.8129  1.0397 -0.7916
13708TIP3    H262616   3.723   6.448   6.301  0.4501  0.1079 -0.0256
13709TIP3   OH262617   4.478   5.735  15.350  0.3219 -0.3899  0.4286
13709TIP3    H162618   4.454   5.826  15.366  2.4412  0.1926  0.5867
13709TIP3    H262619   4.551   5.718  15.410 -0.2030 -2.2931  0.5948
13710TIP3   OH262620   6.452   5.767   5.069  0.0642  0.5342 -0.7813
13710TIP3    H162621   6.496   5.776   4.985  1.8009 -1.2663 -0.1455
13710TIP3    H262622   6.399   5.688   5.060  1.5956 -0.6648  0.3033
13711TIP3   OH262623   1.394   2.404  12.374 -0.3757  0.1528  0.5850
13711TIP3    H162624   1.373   2.395  12.281  0.1432 -1.3539  0.5889
13711TIP3    H262625   1.459   2.474  12.377  1.7993 -1.7029 -0.5619
13712TIP3   OH262626   1.657   5.720   6.256  0.2975  0.2925  0.7864
13712TIP3    H162627   1.748   5.719   6.285  0.1714 -0.9098  1.2020
13712TIP3    H262628   1.621   5.636   6.285 -0.3895 -0.1327 -1.1361
13713TIP3   OH262629   3.248   3.398   5.811 -0.0187  0.2441  0.0951
13713TIP3    H162630   3.225   3.489   5.794 -1.0343  0.4907  2.4865
13713TIP3    H262631   3.182   3.347   5.765  1.1305  0.6143 -2.1010
13714TIP3   OH262632   3.589   6.468   2.131  0.3013 -0.0227  0.0062
13714TIP3    H162633   3.501   6.433   2.147  0.7257 -0.6114  1.1640
13714TIP3    H262634   3.621   6.493   2.218  0.9267  1.0745 -0.5154
13715TIP3   OH262635   1.996   2.154  15.954 -0.0468 -0.3711 -0.3773
13715TIP3    H162636   1.969   2.184  16.041 -1.7422 -1.4585 -0.4917
13715TIP3    H262637   2.056   2.222  15.923 -0.2865  0.6019  1.1708
13716TIP3   OH262638   1.022   0.380  15.536  0.6912 -0.0181 -0.4344
13716TIP3    H162639   0.948   0.359  15.594 -1.3658  0.0121 -2.8732
13716TIP3    H262640   1.035   0.301  15.484 -0.3788  1.2114 -2.7398
13717TIP3   OH262641   5.635   6.439  12.765  0.3739  0.2579 -0.1503
13717TIP3    H162642   5.690   6.497  12.818 -1.6818  0.3644  2.0196
13717TIP3    H262643   5.613   6.492  12.688  2.5803  0.4778 -0.7160
13718TIP3   OH262644   2.376   5.671  14.245  0.3204 -0.3637  0.0756
13718TIP3    H162645   2.354   5.665  14.152  0.0524 -1.8083  0.2071
13718TIP3    H262646   2.457   5.721  14.247 -0.9972  2.0144 -0.7090
13719TIP3   OH262647   1.464   2.219  15.714  0.4285  0.3495  0.0071
13719TIP3    H162648   1.519   2.151  15.674 -0.8530 -0.1863 -0.9233
13719TIP3    H262649   1.519   2.297  15.715  1.5803 -0.4372  0.1277
13720TIP3   OH262650   0.292   6.627  16.320  0.8566 -0.2962 -0.2715
13720TIP3    H162651   0.216   6.569  16.312 -0.7799  1.9011 -1.7560
13720TIP3    H262652   0.361   6.584  16.268 -0.4143 -0.7841 -1.6275
13721TIP3   OH262653   2.457   5.478  12.206  0.1793 -0.0797 -0.2491
13721TIP3    H162654   2.404   5.400  12.220  0.6332 -0.3114  0.1756
13721TIP3    H262655   2.476   5.477  12.112  1.1414 -1.1018 -0.0557
13722TIP3   OH262656   5.821   0.467   5.277  0.5762  0.4810  0.2200
13722TIP3    H162657   5.727   0.480   5.267  0.4920 -1.4176 -2.3434
13722TIP3    H262658   5.856   0.555   5.291 -1.5316  1.2425  1.0976
13723TIP3   OH262659   0.533   6.427   2.070 -0.2640  0.6602  0.0539
13723TIP3    H162660   0.557   6.518   2.052 -1.3270  1.4104  2.1352
13723TIP3    H262661   0.570   6.409   2.156  0.0921 -0.9823 -0.3915
13724TIP3   OH262662   2.994   1.080   1.531 -0.1294 -0.4354  0.2740
13724TIP3    H162663   3.043   1.161   1.547  0.0510 -0.4432 -0.2249
13724TIP3    H262664   3.023   1.021   1.601  2.5154 -1.3064 -1.3859
13725TIP3   OH262665   5.949   4.370  11.824  0.5714  0.0721 -0.0714
13725TIP3    H162666   6.029   4.374  11.876 -0.2314 -1.3688  1.3580
13725TIP3    H262667   5.931   4.277  11.813 -1.0013  0.3643 -0.2098
13726TIP3   OH262668   6.119   6.009  11.531 -0.0833  0.9564 -0.4513
13726TIP3    H162669   6.034   6.004  11.486 -0.5159 -1.4505  0.4460
13726TIP3    H262670   6.113   5.942  11.600  3.3836 -1.0373 -1.8312
13727TIP3   OH262671   1.621   3.952  10.929  0.5023 -0.2420 -0.5101
13727TIP3    H162672   1.608   3.985  11.018  1.6261 -0.8037 -0.1276
13727TIP3    H262673   1.701   3.995  10.899  0.8087 -0.9982 -0.7897
13728TIP3   OH262674   0.791   5.759   4.050 -0.2891 -0.1081  0.3259
13728TIP3    H162675   0.882   5.761   4.022 -0.0652 -2.3389  0.6401
13728TIP3    H262676   0.740   5.756   3.969  0.0291 -0.6166  0.1433
13729TIP3   OH262677   2.047   2.521   0.128  0.4899 -0.1177  0.2078
13729TIP3    H162678   2.072   2.602   0.172 -0.1552 -0.0548  0.4670
13729TIP3    H262679   1.967   2.493   0.171  0.9375 -1.1408  0.4124
13730TIP3   OH262680   0.676   6.259   6.255 -0.1280 -0.1405  0.4572
13730TIP3    H162681   0.598   6.243   6.202  0.2066  0.5007 -0.2561
13730TIP3    H262682   0.662   6.346   6.291  0.2614 -0.0186  0.3156
13731TIP3   OH262683   2.020   0.990   0.860  0.4838 -0.2856 -0.2629
13731TIP3    H162684   2.016   0.898   0.887 -0.5597 -0.0681  0.3651
13731TIP3    H262685   2.112   1.015   0.876  1.4451 -1.8611 -2.7712
13732TIP3   OH262686   3.142   6.466  12.663 -0.2185  0.0126 -0.3493
13732TIP3    H162687   3.135   6.394  12.726  0.0940 -1.7025 -2.1945
13732TIP3    H262688   3.227   6.454  12.621 -0.0419  1.6467 -0.5473
13733TIP3   OH262689   1.371   6.534  13.425  0.6218 -0.1486 -0.2250
13733TIP3    H162690   1.344   6.476  13.497  0.7616  0.3240  0.2167
13733TIP3    H262691   1.458   6.502  13.401  0.2415 -0.8239 -0.7413
13734TIP3   OH262692   6.838   1.974  11.111  0.0639  0.1155 -0.8667
13734TIP3    H162693   6.756   2.013  11.080 -0.3665  0.0091  0.0770
13734TIP3    H262694   6.835   1.884  11.079  0.2957  0.3884 -1.6813
13735TIP3   OH262695   6.374   3.560   0.028  0.0009  0.3440 -0.9249
13735TIP3    H162696   6.465   3.535   0.048  0.5229  1.3852 -1.9428
13735TIP3    H262697   6.343   3.491  -0.031 -0.2560 -0.6032  0.2663
13736TIP3   OH262698   3.368   6.425  14.582 -0.1715 -0.5207 -0.8140
13736TIP3    H162699   3.320   6.499  14.620  0.1063 -1.2084  1.0076
13736TIP3    H262700   3.314   6.396  14.509 -0.5094  1.1825 -1.2838
13737TIP3   OH262701   1.236   3.877  11.070 -0.3160  0.1113  0.0931
13737TIP3    H162702   1.275   3.790  11.073 -1.4077 -0.4163 -0.4307
13737TIP3    H262703   1.308   3.937  11.092  0.7744 -0.8207 -0.8455
13738TIP3   OH262704   4.509   5.323   6.324  0.5780 -0.7511  0.3481
13738TIP3    H162705   4.446   5.393   6.343  0.8349 -0.0438 -1.1846
13738TIP3    H262706   4.455   5.248   6.298  0.3284 -0.4204 -0.1117
13739TIP3   OH262707   0.474   3.418  12.127 -0.1539  0.1227 -0.3148
13739TIP3    H162708   0.524   3.348  12.084 -3.2518 -0.7797 -2.8205
13739TIP3    H262709   0.499   3.498  12.079  0.6973  0.1267  0.1229
13740TIP3   OH262710   4.852   1.210   5.575 -0.1631 -0.1915 -1.0720
13740TIP3    H162711   4.883   1.120   5.572 -1.2390 -0.7835  1.7799
13740TIP3    H262712   4.924   1.259   5.615 -0.3673 -0.2511 -0.6171
13741TIP3   OH262713   0.778   2.684   1.395 -0.1455  0.0543 -0.1845
13741TIP3    H162714   0.689   2.652   1.381 -0.4981 -0.5701  2.7772
13741TIP3    H262715   0.780   2.711   1.487  2.3576  1.3497 -0.5212
13742TIP3   OH262716   1.437   3.845  13.692  0.0310 -0.9509 -0.5240
13742TIP3    H162717   1.401   3.924  13.652 -1.7272 -1.1529  0.5336
13742TIP3    H262718   1.398   3.773  13.642  0.0228 -1.1684 -0.2056
13743TIP3   OH262719   2.163   2.294  16.815 -0.3326 -0.0460 -0.5404
13743TIP3    H162720   2.228   2.364  16.814 -0.2338 -0.1307  0.1193
13743TIP3    H262721   2.118   2.302  16.730 -0.9838  1.4429 -0.0852
13744TIP3   OH262722   0.467   0.159  17.036 -0.4969 -0.1502 -0.5559
13744TIP3    H162723   0.501   0.247  17.018 -1.7103  0.6650  0.8192
13744TIP3    H262724   0.423   0.134  16.955 -0.5984  0.7627 -0.8034
13745TIP3   OH262725   4.628   4.864  13.947 -0.0158  0.2913  0.1723
13745TIP3    H162726   4.638   4.846  14.040  0.1755 -0.8589 -0.0620
13745TIP3    H262727   4.630   4.960  13.941  0.3348  0.3656  1.3014
13746TIP3   OH262728   5.738   0.359   4.102  1.0003  0.0758  0.0298
13746TIP3    H162729   5.755   0.276   4.145  3.2973  0.9503  0.9362
13746TIP3    H262730   5.662   0.342   4.046  0.6377 -2.2585  1.1378
13747TIP3   OH262731   6.652   3.879  11.125 -0.4116  0.2278  0.1587
13747TIP3    H162732   6.684   3.800  11.081  2.2053  1.0814  0.3608
13747TIP3    H262733   6.675   3.950  11.066 -0.2324  1.0594  1.1979
13748TIP3   OH262734   0.350   0.341  12.996 -0.2447  0.3148 -0.0297
13748TIP3    H162735   0.422   0.351  12.933 -1.1498  1.5438 -0.9195
13748TIP3    H262736   0.392   0.309  13.076  0.9085 -1.5160 -1.3081
13749TIP3   OH262737   3.156   1.011  10.629 -0.8793 -0.1182 -0.1720
13749TIP3    H162738   3.081   1.067  10.610 -0.6043  0.4216  0.2820
13749TIP3    H262739   3.228   1.073  10.646 -0.2772 -0.6192 -0.8004
13750TIP3   OH262740   4.204   4.707  11.196 -0.0361 -0.1185 -0.0180
13750TIP3    H162741   4.231   4.617  11.175  0.3465 -0.2314  0.9133
13750TIP3    H262742   4.206   4.752  11.112  4.0083  0.1340 -0.0062
13751TIP3   OH262743   4.090   0.477   0.340  0.2297 -0.1404  0.3053
13751TIP3    H162744   4.179   0.454   0.314  0.2770 -0.6957  0.9415
13751TIP3    H262745   4.091   0.573   0.347  0.6814 -0.1199 -0.0217
13752TIP3   OH262746   0.243   0.838  12.883 -0.6172 -0.3405  0.1476
13752TIP3    H162747   0.232   0.898  12.956  2.2245  0.1014  0.3218
13752TIP3    H262748   0.290   0.888  12.817 -2.0711 -1.1013 -1.5520
13753TIP3   OH262749   0.407   3.518   1.065  0.1719  0.3404  0.1966
13753TIP3    H162750   0.374   3.441   1.018 -0.1797 -0.4365  1.6406
13753TIP3    H262751   0.412   3.489   1.157  1.3287  1.6232  0.5677
13754TIP3   OH262752   4.265   5.155  12.422  0.1688  0.8757 -0.2382
13754TIP3    H162753   4.269   5.212  12.499  0.0547  0.0093  0.4309
13754TIP3    H262754   4.357   5.131  12.406  0.0626 -0.2447  0.6585
13755TIP3   OH262755   4.195   5.819   3.152  0.5754 -0.9180  0.1964
13755TIP3    H162756   4.112   5.831   3.199  0.2110 -1.7745 -0.2014
13755TIP3    H262757   4.262   5.843   3.216  0.0079  2.1341 -0.2176
13756TIP3   OH262758   2.805   4.025  15.290 -0.5000 -0.3441 -0.4113
13756TIP3    H162759   2.877   3.968  15.318 -1.1002 -0.3002  1.3481
13756TIP3    H262760   2.798   4.090  15.360 -2.6527 -0.7227 -0.2164
13757TIP3   OH262761   4.270   4.823  15.838  0.0841  0.3191  0.7761
13757TIP3    H162762   4.201   4.815  15.905 -1.2101  2.1823 -0.2300
13757TIP3    H262763   4.222   4.833  15.756  1.4411  2.9257  0.1833
13758TIP3   OH262764   0.539   5.467  11.426 -0.1481 -0.6817 -0.3458
13758TIP3    H162765   0.446   5.479  11.443 -0.0255  0.5522 -0.3875
13758TIP3    H262766   0.562   5.538  11.366  0.4414 -2.0756 -1.8486
13759TIP3   OH262767   4.947   1.408   2.275  0.5016  0.0554  0.2776
13759TIP3    H162768   4.910   1.379   2.358  1.5721  0.3979  0.8973
13759TIP3    H262769   5.018   1.468   2.300 -0.0819  1.2837 -0.9160
13760TIP3   OH262770   0.507   0.891   4.403  0.0271  0.1151 -0.1385
13760TIP3    H162771   0.448   0.820   4.378 -0.6411  0.7845 -0.4694
13760TIP3    H262772   0.491   0.959   4.338  0.2861  0.7809  0.4948
13761TIP3   OH262773   6.167   0.494  11.415 -0.0592  0.1546  0.4030
13761TIP3    H162774   6.212   0.421  11.372  0.2268  0.4349  0.2201
13761TIP3    H262775   6.207   0.499  11.503  1.4880  1.4487 -0.3107
13762TIP3   OH262776   0.987   4.027   1.419 -0.3265  0.3236  0.3299
13762TIP3    H162777   0.955   4.074   1.497  0.7883  0.6464  0.6145
13762TIP3    H262778   1.034   4.094   1.369 -1.0691  0.1263 -0.6623
13763TIP3   OH262779   0.350   1.099   5.694 -0.1803 -0.2643 -0.2622
13763TIP3    H162780   0.283   1.057   5.640  1.1303 -1.8560 -0.7404
13763TIP3    H262781   0.412   1.029   5.714 -0.3726  0.3366  2.9782
13764TIP3   OH262782   2.582   5.953   0.523 -0.1543 -0.4995  0.2228
13764TIP3    H162783   2.512   6.014   0.500 -1.2004 -0.0455  3.9448
13764TIP3    H262784   2.661   5.993   0.487 -1.1937  1.5509  0.0424
13765TIP3   OH262785   5.169   1.469   2.692  0.3213 -0.4489 -0.0825
13765TIP3    H162786   5.093   1.523   2.669  1.1227  0.1248 -1.5073
13765TIP3    H262787   5.230   1.530   2.733  0.1213 -0.8806  0.9104
13766TIP3   OH262788   2.226   1.066  11.945 -0.0405  0.0329  0.1338
13766TIP3    H162789   2.230   1.001  11.875  0.4921  1.8055 -1.5367
13766TIP3    H262790   2.142   1.111  11.931 -0.6868 -0.6193  1.6381
13767TIP3   OH262791   5.878   1.517  14.264 -0.4927  0.1353 -0.3269
13767TIP3    H162792   5.840   1.497  14.178 -0.7628 -1.0071  0.0398
13767TIP3    H262793   5.968   1.486  14.258 -0.2567  0.8451 -0.4772
13768TIP3   OH262794   4.713   2.036  10.556  0.5763 -0.6275  0.3736
13768TIP3    H162795   4.698   1.964  10.616 -1.4195  0.0056  0.6890
13768TIP3    H262796   4.669   2.111  10.596 -0.3771 -0.0649 -1.6004
13769TIP3   OH262797   1.370   0.866  14.551 -0.3686 -0.5104  0.1065
13769TIP3    H162798   1.340   0.956  14.566  0.3681 -0.1840 -0.3582
13769TIP3    H262799   1.326   0.839  14.470  2.0145  0.6695 -1.7053
13770TIP3   OH262800   3.740   5.908   4.845 -0.3619  0.2687 -0.2003
13770TIP3    H162801   3.735   5.995   4.806 -0.0169  0.1009 -0.6272
13770TIP3    H262802   3.807   5.863   4.794 -0.2442 -0.1121  0.2861
13771TIP3   OH262803   2.358   4.093   5.722 -0.5567 -0.1315  0.1780
13771TIP3    H162804   2.401   4.072   5.805 -0.1226  0.3151  0.0668
13771TIP3    H262805   2.323   4.181   5.734 -2.8631 -1.0495  0.8417
13772TIP3   OH262806   5.606   4.490  11.300 -0.2714 -0.5200  0.1349
13772TIP3    H162807   5.587   4.407  11.257  1.1295 -1.5679  1.4246
13772TIP3    H262808   5.529   4.509  11.354 -0.9710 -0.4953 -0.8652
13773TIP3   OH262809   4.835   2.667  13.193  0.0533  0.0044  0.0739
13773TIP3    H162810   4.770   2.723  13.150 -0.5499 -0.4400  0.3863
13773TIP3    H262811   4.919   2.697  13.158 -0.3879 -0.0708 -1.0995
13774TIP3   OH262812   4.768   0.797  12.710 -0.2645 -0.7042  0.0162
13774TIP3    H162813   4.784   0.734  12.640 -1.7583 -0.4476 -0.6124
13774TIP3    H262814   4.719   0.868  12.667  1.2700  0.8586  0.7202
13775TIP3   OH262815   5.551   0.475   0.832 -0.0512  0.0444 -0.8882
13775TIP3    H162816   5.603   0.451   0.908  0.9697  0.2811 -1.4883
13775TIP3    H262817   5.475   0.417   0.835  0.1954 -0.2490  0.0510
13776TIP3   OH262818   2.677   4.292   6.144  1.1560  0.0450  0.0104
13776TIP3    H162819   2.717   4.332   6.222  1.0806  1.9081 -0.8438
13776TIP3    H262820   2.684   4.360   6.077 -1.4978 -0.3551 -0.7876
13777TIP3   OH262821   5.847   2.709   3.452 -0.2284 -0.2357 -0.6573
13777TIP3    H162822   5.814   2.630   3.409  1.2926 -0.7306 -0.9875
13777TIP3    H262823   5.918   2.738   3.396 -0.9302  1.5478 -0.6748
13778TIP3   OH262824   3.435   4.988  13.289  0.4510  0.0196 -0.1381
13778TIP3    H162825   3.481   4.997  13.372  0.2912  1.3144 -0.1553
13778TIP3    H262826   3.495   5.025  13.224 -0.1238  0.6568 -0.3273
13779TIP3   OH262827   5.039   5.531  14.509  0.1589  0.3014 -0.8968
13779TIP3    H162828   5.024   5.507  14.418 -2.4540 -0.2007 -0.4054
13779TIP3    H262829   5.049   5.448  14.555  0.6366  0.5221 -0.5857
13780TIP3   OH262830   5.284   0.871   6.463 -0.1099 -0.1013 -0.0383
13780TIP3    H162831   5.256   0.847   6.374 -0.4246  1.2824 -0.3296
13780TIP3    H262832   5.225   0.942   6.489  1.0127  0.6197  0.6425
13781TIP3   OH262833   3.980   2.207  12.395  0.4156  0.1241  0.1437
13781TIP3    H162834   3.980   2.234  12.303  0.8410 -2.4336 -0.6730
13781TIP3    H262835   3.891   2.176  12.411 -0.5219  3.1338  1.5232
13782TIP3   OH262836   2.117   4.683   4.969  0.3664  0.2379  0.4092
13782TIP3    H162837   2.171   4.757   4.939 -0.3840  1.5696  2.1619
13782TIP3    H262838   2.050   4.674   4.902 -0.2918  2.0238  0.7681
13783TIP3   OH262839   1.475   5.815  14.230  0.2530  0.1092 -0.1419
13783TIP3    H162840   1.438   5.894  14.268  0.1614 -0.1331  0.2760
13783TIP3    H262841   1.569   5.822  14.245  0.3356  0.5140 -0.8136
13784TIP3   OH262842   5.082   1.208   5.092  0.4702 -0.7439  0.0306
13784TIP3    H162843   5.013   1.179   5.152 -0.3674  1.8457  0.4298
13784TIP3    H262844   5.100   1.298   5.118  3.0856 -0.9056 -0.9539
13785TIP3   OH262845   5.773   3.809   2.668 -0.2102  0.0287  0.2804
13785TIP3    H162846   5.700   3.751   2.649  0.4114  0.1086 -3.0820
13785TIP3    H262847   5.733   3.889   2.701 -1.4732 -0.6002  0.3210
13786TIP3   OH262848   4.690   2.783  14.333 -0.1481  0.1722  0.1320
13786TIP3    H162849   4.769   2.777  14.388  0.5895  0.1605 -0.9026
13786TIP3    H262850   4.626   2.727  14.377 -0.4934  2.1887  2.4466
13787TIP3   OH262851   5.963   3.689  16.161 -0.0431  0.0998 -0.1689
13787TIP3    H162852   5.957   3.625  16.232  0.2769 -1.3313 -1.4055
13787TIP3    H262853   5.915   3.765  16.194 -1.6500 -1.2688  0.7879
13788TIP3   OH262854   0.083   1.425   1.714  0.1012 -0.6700  0.0363
13788TIP3    H162855   0.166   1.428   1.668  0.3127  0.8006  0.4517
13788TIP3    H262856   0.027   1.368   1.661  1.0089 -0.7349 -0.8673
13789TIP3   OH262857   2.665   3.551  12.087  0.2293 -0.2020 -0.6301
13789TIP3    H162858   2.653   3.478  12.147 -0.6819  0.6811  0.3060
13789TIP3    H262859   2.671   3.511  12.000  2.4241 -1.5866  0.0659
13790TIP3   OH262860   3.427   6.787   0.067  0.1613  0.5682  0.3101
13790TIP3    H162861   3.377   6.808  -0.012  0.3514  2.0752  0.5591
13790TIP3    H262862   3.489   6.719   0.040 -0.7793 -0.0114 -0.4513
13791TIP3   OH262863   5.932   5.041   5.891  0.6517  0.0452 -0.1932
13791TIP3    H162864   6.020   5.071   5.913  0.6559  0.0498 -0.2171
13791TIP3    H262865   5.919   5.067   5.801  1.6308 -2.2408 -1.0866
13792TIP3   OH262866   0.003   0.717  14.739  0.0057 -0.0722  0.0055
13792TIP3    H162867   0.057   0.656  14.689 -1.6976 -1.5712 -0.1051
13792TIP3    H262868  -0.037   0.774  14.673 -2.1485 -1.9739 -0.4761
13793TIP3   OH262869   6.070   1.881  14.071  0.6687  0.2141 -0.3894
13793TIP3    H162870   6.099   1.933  13.995 -1.0386  1.5825 -0.1654
13793TIP3    H262871   6.010   1.816  14.034  1.2229 -0.2823 -0.4207
13794TIP3   OH262872   2.966   3.557   4.824  0.0001 -0.3815  0.2700
13794TIP3    H162873   3.035   3.576   4.889 -1.7660 -2.2296  2.9067
13794TIP3    H262874   3.007   3.497   4.763  1.0927 -0.4960  1.0761
13795TIP3   OH262875   6.085   4.514   0.306  1.3321 -0.5285  0.1007
13795TIP3    H162876   6.025   4.466   0.363  0.2026  1.2839  0.5325
13795TIP3    H262877   6.145   4.558   0.365  0.6983  0.6626 -0.1067
13796TIP3   OH262878   2.947   0.202   6.116 -0.5785 -1.1135 -0.1498
13796TIP3    H162879   2.893   0.145   6.170 -0.5505 -0.3034  0.7639
13796TIP3    H262880   2.995   0.256   6.179  0.3024 -0.9153 -0.9702
13797TIP3   OH262881   0.545   5.571   0.103 -0.0884 -0.1070  0.6422
13797TIP3    H162882   0.548   5.641   0.037 -0.7297 -1.0189 -0.3982
13797TIP3    H262883   0.562   5.615   0.186  0.0624  1.1924 -0.0495
13798TIP3   OH262884   4.248   2.813   2.351 -0.1746 -0.6741 -0.2203
13798TIP3    H162885   4.256   2.800   2.445 -3.2985  1.7589  0.5398
13798TIP3    H262886   4.262   2.907   2.338  2.1450 -1.2288 -2.5371
13799TIP3   OH262887   2.441   2.220  13.930 -0.0464  0.0706  0.1089
13799TIP3    H162888   2.438   2.184  13.841  0.3914 -0.7998  0.4346
13799TIP3    H262889   2.439   2.143  13.987  0.8387  0.5566  0.8302
13800TIP3   OH262890   2.021   6.264  16.053 -0.3359 -0.2124 -0.2428
13800TIP3    H162891   2.087   6.215  16.101  0.9897  2.5043  0.9693
13800TIP3    H262892   2.069   6.307  15.983 -0.9040  1.2458  0.2117
13801TIP3   OH262893   2.027   1.921   5.293 -0.1741 -0.3620  0.5298
13801TIP3    H162894   2.018   2.005   5.249  1.3499 -0.4616 -0.0414
13801TIP3    H262895   1.954   1.917   5.354 -1.7684  0.2488 -1.2297
13802TIP3   OH262896   5.118   1.935   5.425 -0.0122 -0.5666  0.4565
13802TIP3    H162897   5.190   1.985   5.464 -1.3268  0.7278  1.3348
13802TIP3    H262898   5.055   1.923   5.497 -1.3261 -0.3971 -0.6295
13803TIP3   OH262899   0.962   5.825   2.554  0.1749 -0.4648  0.4148
13803TIP3    H162900   0.918   5.782   2.481 -0.6886 -2.3226  1.9190
13803TIP3    H262901   1.050   5.787   2.555  1.3213  1.9253 -1.5085
13804TIP3   OH262902   2.190   0.974  12.648 -0.0785  0.0357  0.1183
13804TIP3    H162903   2.216   1.025  12.571 -0.7670  0.2892  0.0473
13804TIP3    H262904   2.198   1.035  12.721 -0.3536  0.0781  0.1133
13805TIP3   OH262905   5.562   2.115   4.374 -0.1428  0.2220  0.1804
13805TIP3    H162906   5.540   2.160   4.293  1.8686  1.2702  0.1462
13805TIP3    H262907   5.488   2.131   4.432 -0.5469  1.5390 -0.6621
13806TIP3   OH262908   1.022   3.436  15.292 -0.2924 -0.0885 -0.1275
13806TIP3    H162909   0.944   3.383  15.280 -0.3863  0.2065 -0.8594
13806TIP3    H262910   1.086   3.401  15.230 -0.0542  0.0739  0.0221
13807TIP3   OH262911   2.753   4.116   1.137  0.3611 -0.4627  0.4930
13807TIP3    H162912   2.664   4.101   1.167  0.4622  1.0190  1.6074
13807TIP3    H262913   2.754   4.081   1.048 -1.4421 -0.1273  0.3061
13808TIP3   OH262914   4.098   2.179   2.039  0.6611  0.1860 -0.1138
13808TIP3    H162915   4.139   2.188   1.953  1.0932 -0.7015 -0.0143
13808TIP3    H262916   4.129   2.255   2.088  0.2742  0.7954 -0.7892
13809TIP3   OH262917   5.990   0.094  15.719 -0.3311 -0.1759 -0.0965
13809TIP3    H162918   5.907   0.071  15.760 -0.1896 -0.0648  0.2545
13809TIP3    H262919   5.980   0.069  15.627 -0.8014 -0.0327 -0.0833
13810TIP3   OH262920   4.789   2.514   5.554 -0.6552 -0.2884  0.2980
13810TIP3    H162921   4.855   2.557   5.608 -0.7227 -0.9744  0.9336
13810TIP3    H262922   4.719   2.492   5.614  0.4310 -3.5448  0.5531
13811TIP3   OH262923   1.875   4.230  17.053 -0.2652 -0.0784 -0.4147
13811TIP3    H162924   1.788   4.220  17.091 -0.6628  0.1529 -1.2575
13811TIP3    H262925   1.883   4.324  17.037  0.8870  0.1875  1.3824
13812TIP3   OH262926   5.572   5.631  12.196  0.2633  0.3907  0.2111
13812TIP3    H162927   5.520   5.551  12.201 -0.5032  0.8604 -0.1417
13812TIP3    H262928   5.559   5.673  12.281 -1.3233  1.3388 -0.4544
13813TIP3   OH262929   0.748   0.016  17.061  0.4370 -0.3311 -0.2111
13813TIP3    H162930   0.784  -0.013  16.977 -0.3728  0.5932 -0.9069
13813TIP3    H262931   0.656  -0.011  17.058  0.3042  0.0675  0.2106
13814TIP3   OH262932   3.731   0.225  16.552  0.8125  0.0662 -0.1466
13814TIP3    H162933   3.788   0.158  16.589  0.2195  0.8322  2.3136
13814TIP3    H262934   3.749   0.303  16.605 -2.4255  0.3455  0.7047
13815TIP3   OH262935   5.375   1.835   3.848 -0.9700 -0.4897  0.1888
13815TIP3    H162936   5.470   1.837   3.837 -0.6523 -2.2926  1.9243
13815TIP3    H262937   5.357   1.747   3.882 -3.1228  0.1787  0.9403
13816TIP3   OH262938   6.765   1.085   3.173 -0.5144 -0.0401 -1.1843
13816TIP3    H162939   6.850   1.098   3.130  0.2989 -1.7241 -0.1914
13816TIP3    H262940   6.714   1.163   3.150  1.4358  1.2171 -1.4759
13817TIP3   OH262941   1.398   6.057   1.108 -0.3139  0.4637 -0.5949
13817TIP3    H162942   1.306   6.041   1.089 -0.6136  1.3064  0.0657
13817TIP3    H262943   1.399   6.089   1.199  0.5817  0.8172 -0.7113
13818TIP3   OH262944   6.338   3.327   3.695  0.5741  0.3511 -0.4571
13818TIP3    H162945   6.261   3.378   3.673  0.3780  0.1943 -0.1400
13818TIP3    H262946   6.363   3.357   3.782 -0.5410 -1.2690  0.4640
13819TIP3   OH262947   6.541   0.013   1.491  0.2662  0.0580 -0.3017
13819TIP3    H162948   6.618   0.055   1.453 -0.0801 -1.0211 -2.3238
13819TIP3    H262949   6.572  -0.023   1.574  1.1175  2.2765  0.4209
13820TIP3   OH262950   0.062   3.980   4.805  0.6944  0.2585 -0.5284
13820TIP3    H162951   0.005   4.000   4.879  0.2007 -1.0379 -0.5396
13820TIP3    H262952   0.083   4.065   4.767  0.5524  0.9087  0.7962
13821TIP3   OH262953   6.014   2.797  14.427  0.3439 -0.2346  0.4910
13821TIP3    H162954   6.060   2.872  14.390  0.3267 -0.7492 -0.6011
13821TIP3    H262955   5.948   2.775  14.362  0.1428 -1.0092  0.9462
13822TIP3   OH262956   6.106   1.664   3.055 -0.1435  0.2991  0.2042
13822TIP3    H162957   6.079   1.738   3.110 -0.1050 -0.5676  1.4384
13822TIP3    H262958   6.088   1.693   2.966  2.3881  2.8758  0.3826
13823TIP3   OH262959   2.430   5.769  15.711  0.4032 -0.1719 -0.3087
13823TIP3    H162960   2.366   5.709  15.672  0.0886 -2.2299  3.0224
13823TIP3    H262961   2.514   5.723  15.704  0.4211 -0.3409  0.9141
13824TIP3   OH262962   3.473   0.408  12.872 -0.3932 -0.3124  0.2322
13824TIP3    H162963   3.493   0.501  12.878 -1.0860 -0.2512  3.0356
13824TIP3    H262964   3.441   0.385  12.959  0.4792 -3.3624 -0.1515
13825TIP3   OH262965   0.351   0.258   5.081 -0.1810  0.2610  0.7468
13825TIP3    H162966   0.431   0.309   5.089  0.0113  0.0999 -0.0877
13825TIP3    H262967   0.362   0.186   5.144  0.6208 -0.1248  0.1914
13826TIP3   OH262968   5.784   0.469   3.379 -0.2862  0.3236  0.0219
13826TIP3    H162969   5.754   0.485   3.289 -1.0736  1.2069  0.4256
13826TIP3    H262970   5.820   0.380   3.376 -1.1396 -0.0204 -0.9572
13827TIP3   OH262971   1.513   0.454  12.826  0.1697  0.0299  0.1261
13827TIP3    H162972   1.468   0.439  12.909  0.5606  0.1418  0.3611
13827TIP3    H262973   1.545   0.367  12.800  0.5508  0.0884  0.3899
13828TIP3   OH262974   2.727   1.677   2.137  0.0754 -0.5046 -0.2548
13828TIP3    H162975   2.715   1.585   2.160  3.1727 -0.6935  1.2039
13828TIP3    H262976   2.784   1.675   2.060  2.7896  0.0487  1.5962
13829TIP3   OH262977   0.663   3.792   2.953 -0.1657 -0.0883  0.1936
13829TIP3    H162978   0.570   3.776   2.967 -0.2413 -0.5962 -0.7676
13829TIP3    H262979   0.707   3.740   3.020 -0.5420 -1.2232 -0.3992
13830TIP3   OH262980   4.621   0.873   5.244  0.5311 -0.3995  0.1153
13830TIP3    H162981   4.656   0.808   5.184  2.4459  1.6949 -1.2070
13830TIP3    H262982   4.529   0.881   5.220  0.7621 -1.1702 -1.0826
13831TIP3   OH262983   4.391   2.846  11.626 -0.7303 -0.4522 -1.1277
13831TIP3    H162984   4.420   2.907  11.695 -1.4102  0.8240 -1.9303
13831TIP3    H262985   4.470   2.828  11.575 -0.4385 -0.5901 -0.6410
13832TIP3   OH262986   4.795   6.707   3.632  0.1493 -0.2787  0.6241
13832TIP3    H162987   4.767   6.621   3.665 -0.1505 -0.1165  0.7935
13832TIP3    H262988   4.890   6.703   3.636  0.2537 -1.4103 -1.4119
13833TIP3   OH262989   5.886   5.037   4.500 -0.1918  0.0253  0.5590
13833TIP3    H162990   5.872   4.994   4.584  0.4261  0.2757  0.7971
13833TIP3    H262991   5.948   5.108   4.519 -1.0138  0.8902  0.1357
13834TIP3   OH262992   0.188   6.630   4.393  0.6259 -0.3389  0.8988
13834TIP3    H162993   0.209   6.540   4.417 -2.3654 -0.8692  1.9801
13834TIP3    H262994   0.113   6.622   4.334 -0.0751  1.4424  1.4790
13835TIP3   OH262995   5.152   1.540  14.113  0.4769  0.0738  0.6966
13835TIP3    H162996   5.189   1.576  14.194  2.9592  1.1249 -0.8054
13835TIP3    H262997   5.150   1.614  14.053 -0.4720 -0.8901 -0.5012
13836TIP3   OH262998   4.429   2.992   0.498  0.8969 -0.1849  0.1930
13836TIP3    H162999   4.485   3.017   0.425  2.0352  0.9236  1.3974
13836TIP3    H263000   4.348   3.039   0.484  1.0743 -0.0459 -0.3907
13837TIP3   OH263001   4.002   3.673  12.806  0.1821 -0.6388  0.0816
13837TIP3    H163002   3.937   3.692  12.738  1.2900 -0.4983 -0.9718
13837TIP3    H263003   4.086   3.683  12.762  0.9365 -0.4690  1.5104
13838TIP3   OH263004   0.561   1.327   0.731  0.1593 -0.9344  0.2863
13838TIP3    H163005   0.558   1.401   0.791  0.0942 -0.7009 -0.0009
13838TIP3    H263006   0.490   1.343   0.669  1.1457 -0.3689 -0.7618
13839TIP3   OH263007   3.119   5.260   3.864 -0.0146  0.0092 -0.2517
13839TIP3    H163008   3.027   5.288   3.867  0.4328  1.5680 -0.4484
13839TIP3    H263009   3.168   5.340   3.846  1.4488 -0.7010  0.4272
13840TIP3   OH263010   2.437   5.646   3.602  0.1434  0.1805 -0.4914
13840TIP3    H163011   2.413   5.556   3.580 -2.2572  0.6745 -0.0996
13840TIP3    H263012   2.423   5.652   3.696  0.4852  0.9405 -0.4852
13841TIP3   OH263013   0.132   2.462   5.000  0.0705 -0.0947 -0.5924
13841TIP3    H163014   0.219   2.422   4.994 -0.1287 -0.3618 -2.7895
13841TIP3    H263015   0.145   2.539   5.055  1.4759 -0.6823 -0.0452
13842TIP3   OH263016   1.119   4.201  14.918  0.2258 -0.1721  0.1030
13842TIP3    H163017   1.207   4.173  14.945  0.3235 -0.6416 -0.6912
13842TIP3    H263018   1.129   4.295  14.901  0.5605 -0.2114  0.0669
13843TIP3   OH263019   0.928   6.694  16.623 -0.3694  0.1263 -0.4371
13843TIP3    H163020   0.865   6.658  16.686  1.4711 -1.3824  0.6311
13843TIP3    H263021   1.013   6.681  16.664  0.7716  0.8824 -2.4258
13844TIP3   OH263022   2.909   4.851   3.509  0.1595  0.0879  0.2173
13844TIP3    H163023   2.974   4.856   3.439  0.5649  1.1596  0.6555
13844TIP3    H263024   2.956   4.880   3.587 -1.1052  1.8980  0.3478
13845TIP3   OH263025   2.014   0.645  14.767 -0.0872 -0.3257 -0.1231
13845TIP3    H163026   2.014   0.733  14.805 -0.2069 -0.0712 -0.7004
13845TIP3    H263027   2.106   0.620  14.763 -0.1333 -0.8315  1.3987
13846TIP3   OH263028   6.190   3.183  14.514 -0.6120 -0.0649 -0.1182
13846TIP3    H163029   6.202   3.278  14.511 -1.1503  0.0295 -3.5139
13846TIP3    H263030   6.205   3.160  14.605  0.5490  3.1285  0.6397
13847TIP3   OH263031   3.516   2.633  14.537  0.2652 -0.1606 -0.3203
13847TIP3    H163032   3.495   2.726  14.544  1.2587  0.0918 -0.4991
13847TIP3    H263033   3.603   2.631  14.498  0.3491 -1.1674 -0.1143
13848TIP3   OH263034   3.470   4.500   4.519 -0.1849 -0.2420 -0.1038
13848TIP3    H163035   3.443   4.462   4.602 -1.5065  0.7365 -0.0382
13848TIP3    H263036   3.387   4.517   4.473  0.3985  1.3039 -0.6447
13849TIP3   OH263037   1.494   5.572   5.212  0.3117  0.7649 -0.3225
13849TIP3    H163038   1.539   5.655   5.196  0.6010  0.7205  0.2142
13849TIP3    H263039   1.440   5.590   5.289 -0.5158  0.7873 -0.9040
13850TIP3   OH263040   0.011   5.520  15.904  0.0259 -0.2607  0.6172
13850TIP3    H163041   0.026   5.426  15.914 -0.1281 -0.2315  1.1832
13850TIP3    H263042  -0.074   5.525  15.860 -0.0216 -0.3919  0.6884
13851TIP3   OH263043   4.123   5.589  10.733  0.5582 -0.3213  0.0118
13851TIP3    H163044   4.071   5.656  10.688  0.5385 -0.1707  0.2508
13851TIP3    H263045   4.139   5.627  10.820  0.5451 -0.6286  0.1511
13852TIP3   OH263046   4.392   2.424  15.600  0.1847 -0.0647 -0.6929
13852TIP3    H163047   4.335   2.489  15.560  0.4675  0.2794 -0.5415
13852TIP3    H263048   4.375   2.344  15.551  0.0102  0.1825 -1.0399
13853TIP3   OH263049   0.275   5.481  12.144  0.1964  0.5470 -0.2631
13853TIP3    H163050   0.293   5.419  12.073 -2.0512 -1.1435  0.5382
13853TIP3    H263051   0.221   5.548  12.103 -0.4921 -0.0424 -0.3466
13854TIP3   OH263052   6.258   6.010  12.577  0.0137 -0.4126  1.0635
13854TIP3    H163053   6.224   6.092  12.612  0.0021  0.5594 -1.1050
13854TIP3    H263054   6.197   5.943  12.610 -0.5253  0.5333  2.0695
13855TIP3   OH263055   5.491   2.990   1.841  0.2872  0.0476 -0.4516
13855TIP3    H163056   5.454   2.959   1.758 -0.7610 -0.2756  0.1152
13855TIP3    H263057   5.513   2.910   1.889  2.2771  0.2297 -0.9874
13856TIP3   OH263058   2.974   5.297  11.364 -0.1287 -0.1757 -0.4243
13856TIP3    H163059   2.980   5.322  11.456  0.8599 -0.5953 -0.3652
13856TIP3    H263060   2.912   5.224  11.363 -0.4289  0.0724 -0.1464
13857TIP3   OH263061   1.586   3.907  17.131  0.0840 -0.2389  0.2095
13857TIP3    H163062   1.671   3.893  17.172  0.0346  1.2983  0.9281
13857TIP3    H263063   1.523   3.876  17.195  0.0868 -0.8710 -0.0919
13858TIP3   OH263064   5.174   1.498   0.262  0.2968  0.0630  0.3757
13858TIP3    H163065   5.140   1.556   0.329  0.7712  1.4552 -0.5449
13858TIP3    H263066   5.132   1.414   0.280  1.1109  0.1365  2.9366
13859TIP3   OH263067   5.778   5.817   0.681 -0.1566  0.0029  0.2139
13859TIP3    H163068   5.770   5.909   0.654 -1.8633 -0.6178 -1.6642
13859TIP3    H263069   5.752   5.768   0.603 -1.3399 -2.0434  1.8250
13860TIP3   OH263070   1.884   5.763   3.254 -0.2080 -0.0583 -0.3296
13860TIP3    H163071   1.882   5.740   3.346  0.6113  1.0131 -0.0251
13860TIP3    H263072   1.868   5.681   3.208  0.3217 -0.7795  0.7389
13861TIP3   OH263073   4.293   5.519  12.102 -0.2698 -0.2044 -0.0272
13861TIP3    H163074   4.246   5.511  12.185 -1.5564 -0.7989 -0.7820
13861TIP3    H263075   4.366   5.458  12.110 -0.8946 -0.9254  0.3444
13862TIP3   OH263076   4.507   3.295  15.833 -0.3862 -0.1459  0.6100
13862TIP3    H163077   4.434   3.249  15.792 -0.3047  0.7580 -0.5883
13862TIP3    H263078   4.469   3.377  15.865  0.3575  1.0079 -1.3327
13863TIP3   OH263079   4.529   0.943   0.401  0.0113 -0.7577  0.2113
13863TIP3    H163080   4.603   0.940   0.462 -1.1594 -0.1061  1.7087
13863TIP3    H263081   4.546   1.020   0.347  1.0658 -1.3486 -0.3433
13864TIP3   OH263082   0.529   4.334   3.737  0.2241 -0.1238  0.5157
13864TIP3    H163083   0.599   4.324   3.801 -0.5791 -1.0799  1.2934
13864TIP3    H263084   0.521   4.247   3.697 -0.4900 -0.0101  0.4041
13865TIP3   OH263085   6.545   5.880  14.623 -0.7987 -0.1523 -0.2522
13865TIP3    H163086   6.592   5.797  14.622 -0.5439 -0.2043  3.4278
13865TIP3    H263087   6.597   5.936  14.680 -2.9765  1.2214  0.4976
13866TIP3   OH263088   2.975   6.002  13.033 -0.1617 -0.2930  0.3574
13866TIP3    H163089   2.919   6.074  13.004 -0.7061 -0.8509  0.0007
13866TIP3    H263090   3.016   6.035  13.113  1.1329  1.1645 -0.8529
13867TIP3   OH263091   5.962   3.916  14.264  0.3361  0.3900 -0.7299
13867TIP3    H163092   5.949   3.932  14.171  0.8301 -1.1723 -1.1038
13867TIP3    H263093   5.879   3.940  14.304  0.4104  1.9271 -1.4374
13868TIP3   OH263094   5.838   4.810   0.733  0.0101 -0.3079 -0.2595
13868TIP3    H163095   5.873   4.742   0.790 -1.6236  0.1286  1.3739
13868TIP3    H263096   5.765   4.767   0.687 -0.6529  0.1584  0.3396
13869TIP3   OH263097   4.794   0.269   5.111 -0.0093 -0.8271 -0.7754
13869TIP3    H163098   4.751   0.184   5.125 -3.4341  0.9068  0.2814
13869TIP3    H263099   4.857   0.276   5.183 -0.1912 -2.1489 -0.4619
13870TIP3   OH263100   2.372   3.766   2.325  0.6105  0.2071 -0.1196
13870TIP3    H163101   2.339   3.735   2.241 -0.2913  1.4070 -0.2305
13870TIP3    H263102   2.318   3.842   2.346  1.5179  0.5653  1.0457
13871TIP3   OH263103   1.608   3.752  11.736  0.4469 -0.7296  0.1647
13871TIP3    H163104   1.622   3.763  11.830 -0.4624  0.3580  0.1976
13871TIP3    H263105   1.624   3.838  11.699 -2.1484 -0.3282 -0.2510
13872TIP3   OH263106   1.886   5.057   3.771  0.6124  0.2936 -0.9712
13872TIP3    H163107   1.911   4.983   3.827  0.2825 -0.2359 -1.5140
13872TIP3    H263108   1.828   5.019   3.705  0.2653  1.0764 -1.1333
13873TIP3   OH263109   4.517   0.286   0.016 -0.2283  0.3580 -0.4008
13873TIP3    H163110   4.555   0.211   0.061 -1.2103  0.0914  0.0089
13873TIP3    H263111   4.548   0.278  -0.074 -1.5264 -1.4138 -0.7342
13874TIP3   OH263112   6.014   3.364  13.891 -0.1853 -0.5197  0.2195
13874TIP3    H163113   6.072   3.382  13.817 -0.1537  1.2898  0.6502
13874TIP3    H263114   6.062   3.299  13.942 -0.1200 -1.6639 -1.2105
13875TIP3   OH263115   1.962   1.774   0.824 -0.0080  0.3152  0.0153
13875TIP3    H163116   2.014   1.725   0.761 -0.1484 -0.1673  0.2740
13875TIP3    H263117   1.993   1.746   0.909 -1.1473 -0.5005  0.1859
13876TIP3   OH263118   4.076   1.886   3.843 -0.7597  0.0714 -0.4999
13876TIP3    H163119   4.048   1.845   3.761 -1.0551 -0.2696 -0.2273
13876TIP3    H263120   4.062   1.819   3.910 -1.9338  0.8597  0.0660
13877TIP3   OH263121   3.624   2.606   4.479  0.1434 -0.2685  0.5055
13877TIP3    H163122   3.703   2.655   4.504 -0.0371  0.4928 -0.3328
13877TIP3    H263123   3.655   2.545   4.412  0.2714 -0.9475  1.1781
13878TIP3   OH263124   1.445   1.287   2.272 -0.4172  0.2999  0.5889
13878TIP3    H163125   1.381   1.232   2.226  2.3773 -1.5692 -1.4343
13878TIP3    H263126   1.517   1.228   2.291  0.6353  2.2136  3.1050
13879TIP3   OH263127   0.301   4.107  13.338 -0.0797 -0.2776  0.0679
13879TIP3    H163128   0.244   4.156  13.278 -0.1594 -1.4988 -0.8907
13879TIP3    H263129   0.267   4.126  13.425 -0.2394  1.1917 -0.2769
13880TIP3   OH263130   4.515   1.773  14.369 -0.0409  0.0584  0.0214
13880TIP3    H163131   4.506   1.817  14.284 -1.2552  1.1436  0.6609
13880TIP3    H263132   4.429   1.735  14.385 -0.2012  0.8809  1.2761
13881TIP3   OH263133   1.388   0.429  13.675  0.8386  0.3114  0.4992
13881TIP3    H163134   1.412   0.490  13.605  0.7991 -0.4319 -0.1786
13881TIP3    H263135   1.470   0.410  13.720  0.9472  0.4186  0.3451
13882TIP3   OH263136   0.997   3.572  16.073 -0.5049  0.3976  0.1073
13882TIP3    H163137   1.022   3.500  16.014 -2.5426  0.3036 -0.7161
13882TIP3    H263138   1.076   3.588  16.125  0.7184 -0.9223 -1.2163
13883TIP3   OH263139   0.524   2.731   5.497  0.6393  0.1493 -0.1316
13883TIP3    H163140   0.593   2.746   5.561 -0.3737  0.0823  1.0051
13883TIP3    H263141   0.447   2.708   5.549  0.2161 -1.6364 -1.4420
13884TIP3   OH263142   0.564   2.941   3.900  0.5792 -0.3864 -0.5468
13884TIP3    H163143   0.487   2.884   3.905  0.7314 -0.6386 -1.1133
13884TIP3    H263144   0.630   2.890   3.854  1.4778 -0.6038  0.9183
13885TIP3   OH263145   6.216   3.193   2.520 -0.6965 -0.0492  0.1800
13885TIP3    H163146   6.211   3.288   2.517 -0.7347  0.1172  2.7371
13885TIP3    H263147   6.281   3.170   2.454  0.1715  1.8543  0.3070
13886TIP3   OH263148   4.433   6.176  14.044  0.2680  0.6042 -0.7492
13886TIP3    H163149   4.361   6.114  14.035  0.2258  0.7406 -1.3991
13886TIP3    H263150   4.493   6.154  13.972  1.7515 -0.6368  0.7811
13887TIP3   OH263151   3.767   2.631  14.429  0.2177 -0.4922  0.5001
13887TIP3    H163152   3.810   2.714  14.405 -1.1646 -0.0782 -0.7009
13887TIP3    H263153   3.772   2.578  14.350 -0.6570 -0.7850  0.6323
13888TIP3   OH263154   4.174   6.346   3.133 -0.4986  0.4623  0.5497
13888TIP3    H163155   4.198   6.438   3.121 -0.3836  0.2522 -1.1293
13888TIP3    H263156   4.253   6.298   3.107 -0.1036 -0.1300  2.6494
13889TIP3   OH263157   6.102   5.968   4.534 -0.2641 -0.1319  0.1903
13889TIP3    H163158   6.018   5.978   4.490  0.3811 -1.5678 -1.4862
13889TIP3    H263159   6.122   6.055   4.568 -2.9061 -0.0084  1.6021
13890TIP3   OH263160   4.547   2.971   4.063  0.2825 -0.1963  0.3851
13890TIP3    H163161   4.574   2.879   4.067  0.6940 -0.1183 -0.3031
13890TIP3    H263162   4.456   2.971   4.092  1.0747 -0.4317  3.0931
13891TIP3   OH263163   0.624   1.217  16.519  0.9786  1.0733  0.1080
13891TIP3    H163164   0.674   1.282  16.568 -0.1214 -0.0855  3.0261
13891TIP3    H263165   0.543   1.207  16.568 -0.1181 -0.4443 -1.8609
13892TIP3   OH263166   3.099   3.690   3.048  0.4423  0.8635  0.1478
13892TIP3    H163167   3.098   3.618   2.985 -0.1679 -0.5130  1.6472
13892TIP3    H263168   3.180   3.678   3.097  1.0326  2.0645 -0.5128
13893TIP3   OH263169   1.170   2.762  16.328 -0.5551  0.4462 -0.4093
13893TIP3    H163170   1.107   2.690  16.329 -0.4181  0.3281 -0.0037
13893TIP3    H263171   1.254   2.721  16.343 -0.2617  0.5128 -1.7303
13894TIP3   OH263172   6.090   1.434   0.290 -0.5463  0.5483 -0.1342
13894TIP3    H163173   6.134   1.449   0.206 -1.4087 -0.3156 -0.7646
13894TIP3    H263174   5.997   1.446   0.271 -0.7286  0.6671  0.7868
13895TIP3   OH263175   2.225   4.553   3.715  0.0176  0.7708  0.3113
13895TIP3    H163176   2.154   4.617   3.718 -1.4050 -0.6856 -0.2303
13895TIP3    H263177   2.206   4.494   3.789  1.0772  0.7495  0.5735
13896TIP3   OH263178   3.251   1.691  17.139 -0.3083 -0.7276 -0.5871
13896TIP3    H163179   3.237   1.675  17.232 -0.3125 -0.2026 -0.4972
13896TIP3    H263180   3.346   1.691  17.128 -0.2899  0.0102 -0.4412
13897TIP3   OH263181   2.636   0.225  15.369 -0.0703  0.0564  0.0797
13897TIP3    H163182   2.655   0.255  15.280 -1.9505  0.0568 -0.3608
13897TIP3    H263183   2.667   0.135  15.370  1.2603  0.4861 -0.1012
13898TIP3   OH263184   2.482   6.281  11.445  0.3191  0.5211 -0.1382
13898TIP3    H163185   2.525   6.198  11.426 -0.0771  0.7285 -2.1768
13898TIP3    H263186   2.422   6.261  11.517 -0.4465 -1.2219 -1.1799
13899TIP3   OH263187   4.310   5.549   4.466  0.3614 -0.6031  0.3701
13899TIP3    H163188   4.224   5.587   4.446  1.1788  0.5911 -1.0670
13899TIP3    H263189   4.323   5.481   4.399 -0.3120 -2.2881  1.8480
13900TIP3   OH263190   1.181   6.758  15.936  0.6041  0.1964  0.2017
13900TIP3    H163191   1.195   6.714  16.020  0.3524 -0.8591 -0.2914
13900TIP3    H263192   1.253   6.728  15.881 -0.2858 -0.6697 -0.5444
13901TIP3   OH263193   4.181   0.585   3.729 -0.2722  0.3510  0.4019
13901TIP3    H163194   4.113   0.604   3.664  0.6211 -1.4178 -1.1660
13901TIP3    H263195   4.174   0.490   3.743  2.1480  0.0017 -0.2196
13902TIP3   OH263196   3.872   3.391  13.780  0.5110 -0.1086  0.6333
13902TIP3    H163197   3.933   3.435  13.720  0.4250 -0.2860  0.4141
13902TIP3    H263198   3.918   3.312  13.806 -0.5549 -1.5041 -1.4298
13903TIP3   OH263199   0.395   0.992   5.022 -0.2162  0.0669  0.5442
13903TIP3    H163200   0.483   0.971   5.053  0.2332  1.0616 -0.0357
13903TIP3    H263201   0.408   1.033   4.937 -1.1401  1.3405  0.9797
13904TIP3   OH263202   4.795   5.547   2.234 -0.3336 -0.3431  0.1817
13904TIP3    H163203   4.857   5.531   2.163 -1.4997 -0.2943 -0.8717
13904TIP3    H263204   4.734   5.473   2.230  0.6064 -1.3536  2.3282
13905TIP3   OH263205   6.262   1.977  15.329  0.2596 -0.7042  0.2283
13905TIP3    H163206   6.275   1.884  15.308 -1.7908 -0.6401 -1.6525
13905TIP3    H263207   6.290   2.023  15.249 -1.6438  0.0453 -0.0403
13906TIP3   OH263208   0.729   1.852  12.524  0.3672  0.0056 -0.0285
13906TIP3    H163209   0.663   1.851  12.455  1.7252  1.2204 -1.4290
13906TIP3    H263210   0.741   1.761  12.548  1.6942 -0.8440 -3.3236
13907TIP3   OH263211   1.019   0.481   2.006  0.1117  0.1708  0.3453
13907TIP3    H163212   1.063   0.406   1.967  1.2837  0.0665  1.7928
13907TIP3    H263213   0.928   0.473   1.978  0.5742 -0.8130 -0.9286
13908TIP3   OH263214   5.918   5.589   3.187 -0.5918  0.1599 -0.2489
13908TIP3    H163215   5.945   5.626   3.271  1.4493 -0.4400 -0.5960
13908TIP3    H263216   5.848   5.527   3.210 -0.1777  0.1244  0.9901
13909TIP3   OH263217   2.013   0.330  11.864  1.0122  0.3763  0.2412
13909TIP3    H163218   2.053   0.333  11.777  1.5952 -0.0917  0.4814
13909TIP3    H263219   1.998   0.421  11.886  0.2791  0.4775 -0.6054
13910TIP3   OH263220   5.828   3.111   3.627 -0.1840  0.4174 -0.6248
13910TIP3    H163221   5.845   3.150   3.713  1.9708 -0.1327 -0.7570
13910TIP3    H263222   5.897   3.045   3.617 -0.4947  0.3710 -2.7316
13911TIP3   OH263223   3.118   3.053   0.397 -0.0153 -0.1597  0.4623
13911TIP3    H163224   3.066   3.098   0.331  0.4766  0.9236  0.8031
13911TIP3    H263225   3.207   3.052   0.361 -0.0704 -1.1702  0.3092
13912TIP3   OH263226   4.035   0.779  12.813 -0.0614  0.3731  0.5823
13912TIP3    H163227   3.944   0.758  12.835 -0.0230  1.1193  1.4757
13912TIP3    H263228   4.082   0.772  12.895  0.2432  2.3660  0.6093
13913TIP3   OH263229   0.181   4.901  16.534 -0.5063  0.1499 -0.5514
13913TIP3    H163230   0.131   4.939  16.606 -0.7082 -0.7705 -0.1963
13913TIP3    H263231   0.118   4.890  16.463 -0.4677  0.3563 -0.6216
13914TIP3   OH263232   0.294   1.426   3.416 -0.0904 -0.6892 -0.6609
13914TIP3    H163233   0.281   1.516   3.446 -1.5858 -1.2809  0.6171
13914TIP3    H263234   0.376   1.398   3.457  0.4654  0.1039 -1.1892
13915TIP3   OH263235   5.483   5.671  17.054  0.7000 -0.8176 -0.2956
13915TIP3    H163236   5.561   5.679  16.999  1.1855  0.8525  0.5334
13915TIP3    H263237   5.509   5.609  17.122  1.1290 -0.7093 -0.3537
13916TIP3   OH263238   0.908   2.355   5.165  0.4993 -0.0661 -0.9516
13916TIP3    H163239   0.888   2.264   5.141  1.6257 -0.6250  0.1034
13916TIP3    H263240   0.832   2.383   5.216  0.0546 -0.3323 -1.4511
13917TIP3   OH263241   0.291   1.597  10.782  0.2198 -0.3268 -0.4408
13917TIP3    H163242   0.266   1.585  10.690  0.4858 -3.2763 -0.2161
13917TIP3    H263243   0.275   1.512  10.823  2.7211  0.0544  1.6125
13918TIP3   OH263244   6.755   6.501  17.071  0.3794  0.6721 -0.1480
13918TIP3    H163245   6.800   6.564  17.014 -2.2712  2.7475 -0.1853
13918TIP3    H263246   6.675   6.479  17.024 -1.1924  1.3049  2.0237
13919TIP3   OH263247   3.907   6.457  11.975 -0.6075 -0.2832 -0.1969
13919TIP3    H163248   3.928   6.378  12.025  2.1851  0.5268  0.0910
13919TIP3    H263249   3.972   6.521  12.004 -2.2600  1.8818 -1.0318
13920TIP3   OH263250   2.841   2.046  15.320 -0.2168  0.2419 -0.6839
13920TIP3    H163251   2.786   2.121  15.342  0.7037  1.4783 -2.3610
13920TIP3    H263252   2.896   2.077  15.248  0.9053 -1.7406 -0.7478
13921TIP3   OH263253   4.822   0.214   1.258  0.3835  0.5360 -0.2323
13921TIP3    H163254   4.913   0.183   1.254 -0.9861 -4.0847 -1.1357
13921TIP3    H263255   4.789   0.202   1.169 -1.7194 -0.1624  0.5933
13922TIP3   OH263256   3.968   5.988  15.023 -0.0772 -0.4761 -0.8071
13922TIP3    H163257   4.035   6.053  14.999 -1.6365  1.4902 -0.0755
13922TIP3    H263258   3.981   5.975  15.117 -1.4280  0.8827 -0.3818
13923TIP3   OH263259   4.352   2.136   4.894 -0.1805 -0.2700  0.0695
13923TIP3    H163260   4.345   2.113   4.986  0.4420 -0.7344  0.0080
13923TIP3    H263261   4.272   2.185   4.875 -1.9354 -2.9462  0.0544
13924TIP3   OH263262   5.855   0.904   4.068  0.4987 -0.0918  0.0046
13924TIP3    H163263   5.915   0.941   4.133  0.5223  0.7396 -0.4673
13924TIP3    H263264   5.839   0.815   4.098  1.0950  0.0341  0.7417
13925TIP3   OH263265   6.694   6.737   3.927 -0.2503  0.1499 -0.1748
13925TIP3    H163266   6.779   6.694   3.936 -0.5722 -0.3361  0.5668
13925TIP3    H263267   6.659   6.704   3.844  0.4455  0.6624 -0.6963
13926TIP3   OH263268   5.939   5.475   0.051  0.2069 -0.4445  0.4109
13926TIP3    H163269   5.903   5.417  -0.017 -0.4371  0.2881  0.1063
13926TIP3    H263270   5.975   5.416   0.117 -1.4232 -1.2235  0.6466
13927TIP3   OH263271   1.236   0.929  11.839 -0.1502  0.3000  0.2759
13927TIP3    H163272   1.222   0.843  11.801 -0.5148  0.7217 -0.5667
13927TIP3    H263273   1.180   0.988  11.788 -1.1176  0.8029  1.8288
13928TIP3   OH263274   1.944   1.047  14.447 -0.1344 -1.0222  0.0464
13928TIP3    H163275   1.884   1.105  14.495 -0.5592 -1.6103  0.2416
13928TIP3    H263276   1.952   0.970  14.502  0.1995 -1.2734 -0.3472
13929TIP3   OH263277   2.725   0.993  15.651 -0.0573  0.0114 -0.3911
13929TIP3    H163278   2.642   1.015  15.694 -0.5181 -0.9381 -0.7813
13929TIP3    H263279   2.707   0.911  15.604  0.8891  0.1862 -1.0842
13930TIP3   OH263280   2.836   3.121  16.910  0.2971 -0.0390 -0.6593
13930TIP3    H163281   2.909   3.141  16.851  1.3785  1.0045  0.9474
13930TIP3    H263282   2.766   3.180  16.883  1.1520  1.1994 -0.2608
13931TIP3   OH263283   3.407   2.419  13.248 -0.4682 -0.0197  0.1145
13931TIP3    H163284   3.461   2.390  13.322 -0.8873  1.0701  0.8709
13931TIP3    H263285   3.470   2.445  13.181 -0.0804 -0.7277  0.2012
13932TIP3   OH263286   6.523   3.536   1.096  0.3172 -0.0397  0.0500
13932TIP3    H163287   6.469   3.577   1.164 -0.6267  0.0763 -0.7351
13932TIP3    H263288   6.473   3.549   1.015  1.4800 -0.0409 -0.6953
13933TIP3   OH263289   4.255   6.823   3.865  0.1419  0.2241 -0.0849
13933TIP3    H163290   4.218   6.804   3.778 -0.9367  1.0311  0.1805
13933TIP3    H263291   4.185   6.869   3.911  0.2499 -1.2533  1.6554
13934TIP3   OH263292   0.267   0.383  15.420 -0.2711 -0.3741 -0.1771
13934TIP3    H163293   0.311   0.430  15.349 -0.4517 -1.3504 -0.9531
13934TIP3    H263294   0.330   0.386  15.493  0.7779 -1.0872 -1.0180
13935TIP3   OH263295   1.557   0.217  12.715  0.5091 -0.4561 -0.5002
13935TIP3    H163296   1.604   0.135  12.699 -0.3792 -0.8484 -1.1821
13935TIP3    H263297   1.522   0.241  12.629  0.1427  0.2521 -0.1593
13936TIP3   OH263298   2.939   2.176   5.662 -0.0275 -0.1733  0.5667
13936TIP3    H163299   2.883   2.233   5.715  0.2754  0.2270  0.4581
13936TIP3    H263300   2.878   2.113   5.623 -0.1737 -0.9892  2.0222
13937TIP3   OH263301   6.359   3.849  15.157  0.2920 -0.0908  0.3360
13937TIP3    H163302   6.298   3.899  15.102 -0.1078 -0.2892  0.5896
13937TIP3    H263303   6.426   3.818  15.096  0.6193  0.8565  0.2000
13938TIP3   OH263304   6.632   3.316  15.430  0.1608 -0.1449  0.3384
13938TIP3    H163305   6.703   3.364  15.388 -0.7832 -0.6303 -1.9860
13938TIP3    H263306   6.568   3.383  15.452  0.7569  0.1397  1.2810
13939TIP3   OH263307   1.432   5.598  13.335  0.0055 -0.4349 -0.3363
13939TIP3    H163308   1.398   5.686  13.320 -0.8185 -0.4627  1.1951
13939TIP3    H263309   1.501   5.609  13.401  0.4253 -0.8418 -0.6998
13940TIP3   OH263310   6.202   5.669   1.695 -0.7745 -0.5763  0.0265
13940TIP3    H163311   6.114   5.668   1.659 -0.6381  0.1039 -0.3351
13940TIP3    H263312   6.251   5.729   1.638 -0.8313  1.4333  1.9560
13941TIP3   OH263313   1.645   4.280  12.108 -0.2981 -0.3128  0.7590
13941TIP3    H163314   1.674   4.335  12.181  0.8524 -0.6021  0.5414
13941TIP3    H263315   1.550   4.274  12.119  0.0388 -2.5603  3.8492
13942TIP3   OH263316   3.334   3.237  14.000  0.6062  0.0157 -0.0951
13942TIP3    H163317   3.367   3.199  13.919 -0.2010 -0.2303 -0.3153
13942TIP3    H263318   3.408   3.286  14.035  1.6626 -1.6447  0.1396
13943TIP3   OH263319   0.463   2.072  15.653 -0.0677 -0.1196  0.2271
13943TIP3    H163320   0.509   2.125  15.718  0.4381  0.4108 -0.5471
13943TIP3    H263321   0.393   2.029  15.703 -0.8723  1.7320  0.7690
13944TIP3   OH263322   2.641   5.687  11.297  0.0297  0.2669 -0.3902
13944TIP3    H163323   2.644   5.782  11.312 -0.7679  0.2308  0.0939
13944TIP3    H263324   2.701   5.672  11.224 -1.0693  1.3759 -1.5864
13945TIP3   OH263325   2.273   2.679  12.612  0.2539  0.0441 -0.3983
13945TIP3    H163326   2.295   2.721  12.695 -0.7131  0.5869 -0.4045
13945TIP3    H263327   2.330   2.602  12.608  0.2693 -0.0187  0.7903
13946TIP3   OH263328   6.647   0.452  14.961  0.0176  0.6653 -0.1866
13946TIP3    H163329   6.621   0.540  14.932 -1.0326  0.0357 -1.3057
13946TIP3    H263330   6.730   0.465  15.007 -0.4212  2.3143  0.2290
13947TIP3   OH263331   6.594   6.824  13.368  0.0267  1.2848  0.1290
13947TIP3    H163332   6.600   6.891  13.436  0.3925  0.2557  1.1394
13947TIP3    H263333   6.652   6.854  13.298 -0.0939  2.1857  0.4113
13948TIP3   OH263334   1.155   1.305  17.134  0.7203  0.2865 -0.1521
13948TIP3    H163335   1.112   1.363  17.198  1.0227 -0.0679  0.3790
13948TIP3    H263336   1.116   1.329  17.050 -2.4364 -1.7361  0.5750
13949TIP3   OH263337   0.056   5.162  10.856  0.0160 -0.1225 -0.1433
13949TIP3    H163338   0.077   5.252  10.830 -1.1188 -0.3900 -2.2479
13949TIP3    H263339   0.015   5.124  10.779  1.2133 -2.7523  0.3977
13950TIP3   OH263340   6.132   0.556   3.771  0.2626  0.8437  0.2182
13950TIP3    H163341   6.075   0.609   3.715  0.3417 -0.1452 -0.8395
13950TIP3    H263342   6.092   0.561   3.858 -1.2923  0.3839 -0.4469
13951TIP3   OH263343   1.121   3.499   1.014  0.2789  0.7078 -0.5701
13951TIP3    H163344   1.212   3.472   1.010  0.3097  0.7807 -0.3295
13951TIP3    H263345   1.100   3.504   1.107 -0.0378  0.4613 -0.6238
13952TIP3   OH263346   0.799   5.847   0.344  0.4941 -0.0004 -0.3839
13952TIP3    H163347   0.883   5.880   0.376  2.2378 -0.5398 -3.8932
13952TIP3    H263348   0.743   5.924   0.339  0.0664  0.1232  3.5498
13953TIP3   OH263349   2.800   5.368  14.632  0.1058  0.2546 -0.2330
13953TIP3    H163350   2.849   5.438  14.674 -0.9199 -0.3572  2.1233
13953TIP3    H263351   2.823   5.289  14.682 -3.7363  0.0508  1.5705
13954TIP3   OH263352   3.277   1.796   1.928 -0.1152 -0.1640 -0.6380
13954TIP3    H163353   3.295   1.778   1.836 -2.6112 -0.1213 -1.2048
13954TIP3    H263354   3.256   1.889   1.932 -0.1377 -0.1869 -0.0490
13955TIP3   OH263355   3.056   2.679   1.587  0.1034 -0.0653  0.4858
13955TIP3    H163356   3.036   2.586   1.594 -0.0207 -0.0257  0.6798
13955TIP3    H263357   3.036   2.714   1.674 -0.8074  0.3238  0.1392
13956TIP3   OH263358   2.342   5.587  13.965 -0.3792 -0.2670 -0.1840
13956TIP3    H163359   2.393   5.511  13.936  0.0031  0.2294 -0.8607
13956TIP3    H263360   2.399   5.662  13.946 -0.2800  0.1282  1.5175
13957TIP3   OH263361   6.270   2.908   2.461 -0.2795  0.1485  0.5659
13957TIP3    H163362   6.218   2.860   2.396  0.9341 -0.1857 -0.1911
13957TIP3    H263363   6.211   2.917   2.536 -0.6533 -2.3459  0.6681
13958TIP3   OH263364   5.520   0.348  11.214  0.0070 -0.0260 -0.3280
13958TIP3    H163365   5.463   0.306  11.278 -0.0019 -1.5508 -1.2637
13958TIP3    H263366   5.479   0.329  11.129  1.3025 -0.2321 -0.9374
13959TIP3   OH263367   6.333   0.450   2.462  0.8240  0.2942 -0.1411
13959TIP3    H163368   6.261   0.421   2.519  0.5948  0.2465 -0.4517
13959TIP3    H263369   6.302   0.533   2.425  1.5384  1.0258  0.8587
13960TIP3   OH263370   0.658   3.446  15.397 -1.1270 -0.1643  0.8338
13960TIP3    H163371   0.699   3.524  15.434  1.8964 -1.1472 -0.1481
13960TIP3    H263372   0.687   3.375  15.453  0.4564 -1.1820 -1.1447
13961TIP3   OH263373   5.402   5.247  13.409  0.5079 -0.1626  0.4168
13961TIP3    H163374   5.459   5.276  13.337 -1.7274  0.5533 -1.1829
13961TIP3    H263375   5.462   5.224  13.479  2.7109  1.9614 -0.6189
13962TIP3   OH263376   4.434   1.316   6.723 -0.0475 -0.5385 -0.0107
13962TIP3    H163377   4.409   1.387   6.783  0.5707 -0.6459  0.3842
13962TIP3    H263378   4.509   1.275   6.764  0.0991 -0.9184 -0.6373
13963TIP3   OH263379   4.134   1.516  12.855  0.2000  0.4212  0.1855
13963TIP3    H163380   4.207   1.557  12.809 -1.1601  1.2915 -1.3324
13963TIP3    H263381   4.069   1.500  12.787 -1.2097  0.1065  1.5453
13964TIP3   OH263382   6.598   6.358  11.807  0.1856  0.2613  0.0658
13964TIP3    H163383   6.620   6.286  11.865 -0.1462 -0.2203 -0.3951
13964TIP3    H263384   6.630   6.331  11.721 -0.2663  0.4958 -0.1858
13965TIP3   OH263385   2.147   4.699  14.320  0.3089  0.5427  0.0646
13965TIP3    H163386   2.196   4.618  14.306 -0.5159 -0.1009  0.8508
13965TIP3    H263387   2.120   4.696  14.412 -1.7528  0.5549 -0.4923
13966TIP3   OH263388   1.413   1.397   0.845 -0.6506  0.0903 -0.3459
13966TIP3    H163389   1.484   1.461   0.841 -0.8378  0.3648  0.4825
13966TIP3    H263390   1.452   1.315   0.815 -0.0484  0.2891 -0.1130
13967TIP3   OH263391   2.487   0.682  17.123  0.0202 -0.2626  0.2264
13967TIP3    H163392   2.559   0.719  17.175 -0.3841 -0.8646  1.2393
13967TIP3    H263393   2.454   0.756  17.072  0.3292  0.3791  0.9413
13968TIP3   OH263394   2.712   3.461  13.088  0.6550 -0.3447  0.1004
13968TIP3    H163395   2.667   3.382  13.120  2.3632 -0.2040  3.2395
13968TIP3    H263396   2.648   3.502  13.030 -2.6485 -1.0661  2.8830
13969TIP3   OH263397   2.197   4.103   3.054 -0.3785 -0.4445 -0.3007
13969TIP3    H163398   2.172   4.016   3.022 -0.6087 -1.2189  1.8401
13969TIP3    H263399   2.128   4.127   3.115  0.6466  0.4177  0.5432
13970TIP3   OH263400   2.508   1.668   0.186  0.0331  0.4637  0.0121
13970TIP3    H163401   2.425   1.669   0.138  0.0914  0.2703 -0.0931
13970TIP3    H263402   2.543   1.580   0.172 -0.0771  0.3152  0.6291
13971TIP3   OH263403   5.341   0.932  13.659 -0.1917 -0.3010  0.3181
13971TIP3    H163404   5.302   0.966  13.740 -1.9789 -0.4108 -0.4541
13971TIP3    H263405   5.344   1.007  13.600  1.5117 -0.1164  0.5800
13972TIP3   OH263406   5.991   3.346  11.312  0.0601 -0.0443 -0.4898
13972TIP3    H163407   5.997   3.318  11.403 -0.2122  0.8131 -0.2010
13972TIP3    H263408   6.082   3.357  11.283  0.2176 -1.8684 -0.8370
13973TIP3   OH263409   2.071   3.084   3.641  0.7868  0.0492 -0.0310
13973TIP3    H163410   2.104   2.997   3.663 -0.6704 -0.6016 -0.3245
13973TIP3    H263411   2.048   3.078   3.548  3.7762  1.7727 -1.0143
13974TIP3   OH263412   2.832   1.013   0.005 -0.2335 -0.1260  0.1094
13974TIP3    H163413   2.751   1.063   0.012 -0.2383  0.0180 -0.8599
13974TIP3    H263414   2.890   1.068  -0.048  0.0032 -0.8353 -0.3788
13975TIP3   OH263415   6.820   5.801  12.019 -0.2550 -0.2619 -0.1216
13975TIP3    H163416   6.816   5.713  11.981 -0.7026 -0.7156  0.9398
13975TIP3    H263417   6.733   5.816  12.055  0.3186 -0.1389  1.3124
13976TIP3   OH263418   4.879   4.287   4.565 -0.5845  0.1040  0.1894
13976TIP3    H163419   4.904   4.333   4.485 -0.4984  0.4968  0.4362
13976TIP3    H263420   4.901   4.195   4.549 -1.2833  0.0543 -0.5239
13977TIP3   OH263421   2.092   1.385  16.107 -0.7303 -0.2752 -0.1060
13977TIP3    H163422   2.092   1.465  16.054 -0.8834  0.5094  1.0568
13977TIP3    H263423   2.051   1.320  16.050 -0.4787  0.4271 -1.1266
13978TIP3   OH263424   4.054   0.248  13.134  0.2305  0.4949  0.1799
13978TIP3    H163425   4.015   0.317  13.081 -1.1882 -0.9237 -0.7239
13978TIP3    H263426   4.130   0.289  13.175  1.0220  1.8770 -2.4061
13979TIP3   OH263427   3.909   0.427  12.989  0.3263 -1.0063 -0.1389
13979TIP3    H163428   3.836   0.469  13.035  1.2856  0.4817  0.0945
13979TIP3    H263429   3.923   0.481  12.911  0.1743 -2.2008 -1.0180
13980TIP3   OH263430   5.842   2.209   1.499  0.0371 -0.6496 -0.6020
13980TIP3    H163431   5.879   2.297   1.501 -0.5381 -0.3575 -1.9354
13980TIP3    H263432   5.915   2.152   1.522  1.0388  0.0118 -2.0219
13981TIP3   OH263433   6.728   1.332   5.332  0.5067  0.0635 -0.3371
13981TIP3    H163434   6.705   1.257   5.387 -0.2706 -2.0907 -3.3754
13981TIP3    H263435   6.817   1.355   5.360  0.0789 -0.7354  1.9306
13982TIP3   OH263436   4.766   3.054  11.279 -0.2946  0.1850  0.5509
13982TIP3    H163437   4.771   3.049  11.183 -1.2327 -0.9515  0.5403
13982TIP3    H263438   4.830   2.990  11.310 -0.1021  0.4408  0.6818
13983TIP3   OH263439   2.695   5.599  13.092 -0.8925 -0.3782  0.2919
13983TIP3    H163440   2.669   5.552  13.172  0.8813 -0.3002  0.9435
13983TIP3    H263441   2.772   5.649  13.117 -0.3923 -0.2180 -1.4500
13984TIP3   OH263442   3.139   6.142  16.499 -0.1839 -0.5050  0.0944
13984TIP3    H163443   3.055   6.157  16.541 -0.7482 -1.0022 -0.8253
13984TIP3    H263444   3.194   6.215  16.527 -0.5137 -0.8607  1.7223
13985TIP3   OH263445   2.106   1.300   2.043  0.2963  0.6653 -0.3413
13985TIP3    H163446   2.165   1.345   1.983 -0.9553  2.3600 -0.3525
13985TIP3    H263447   2.164   1.258   2.107  1.5196  2.1760 -0.4267
13986TIP3   OH263448   3.021   5.919   4.876 -0.5402 -0.0232  0.4383
13986TIP3    H163449   2.945   5.978   4.868  0.5426  1.8191  2.7923
13986TIP3    H263450   3.044   5.898   4.785 -0.7834  3.5064 -0.5817
13987TIP3   OH263451   6.413   5.607   0.012 -0.0510  0.0888  0.0445
13987TIP3    H163452   6.338   5.554  -0.015 -0.6796  0.9240  0.0969
13987TIP3    H263453   6.480   5.588  -0.054  0.0845 -1.4694  0.5878
13988TIP3   OH263454   2.532   0.327  12.080  1.2491  0.0039 -0.4403
13988TIP3    H163455   2.583   0.406  12.066  1.1036  0.8014  2.6812
13988TIP3    H263456   2.546   0.305  12.172 -2.4407 -0.8298  0.1033
13989TIP3   OH263457   3.584   1.689   2.567 -0.3956 -0.5741  0.3841
13989TIP3    H163458   3.549   1.753   2.504 -1.0816 -3.3914 -2.3548
13989TIP3    H263459   3.676   1.715   2.579 -0.3380  0.2719 -1.5395
13990TIP3   OH263460   4.015   4.946   5.667 -0.2534  0.3085  0.5583
13990TIP3    H163461   3.927   4.910   5.671 -0.2067  0.1380  0.1051
13990TIP3    H263462   4.070   4.881   5.710  0.2165 -1.4100 -2.3693
13991TIP3   OH263463   0.557   6.516   3.202  0.9751  0.1166 -0.1511
13991TIP3    H163464   0.650   6.522   3.225  1.7317 -1.1508 -2.5560
13991TIP3    H263465   0.555   6.465   3.121 -1.6909  1.6534 -1.2009
13992TIP3   OH263466   3.041   6.113  14.480 -0.1622 -0.5314 -0.1022
13992TIP3    H163467   3.015   6.021  14.481  0.5777 -0.7749  2.0541
13992TIP3    H263468   3.110   6.119  14.546 -0.6750  1.7112  0.3042
13993TIP3   OH263469   3.129   4.464  13.932  0.0028 -0.0229 -1.0364
13993TIP3    H163470   3.131   4.541  13.875 -0.4486  0.2268 -0.7181
13993TIP3    H263471   3.039   4.433  13.927 -0.1799  0.3288 -0.0290
13994TIP3   OH263472   4.071   5.879   3.825 -0.3627 -0.1259  0.6577
13994TIP3    H163473   4.149   5.933   3.815 -0.4353  0.0131  0.8435
13994TIP3    H263474   4.027   5.915   3.901 -1.3491  0.7051 -0.2709
13995TIP3   OH263475   5.519   3.016  12.119  0.1879  0.2992 -0.5372
13995TIP3    H163476   5.476   2.935  12.094  3.6972 -1.8254 -0.4398
13995TIP3    H263477   5.539   3.059  12.036 -1.2524  0.8536 -0.6117
13996TIP3   OH263478   0.322   0.368   3.031  0.1224  0.5815  0.0589
13996TIP3    H163479   0.318   0.306   3.104 -0.2835  0.9179  0.3314
13996TIP3    H263480   0.399   0.341   2.981  0.7183  0.6614  0.9038
13997TIP3   OH263481   4.187   6.115  14.881 -0.1759 -0.0119 -0.1113
13997TIP3    H163482   4.138   6.115  14.799  0.1848 -0.3182 -0.3364
13997TIP3    H263483   4.270   6.158  14.859 -0.2777  0.3610  0.2227
13998TIP3   OH263484   5.779   3.181  12.166 -0.3741 -0.3703 -0.6328
13998TIP3    H163485   5.852   3.124  12.187  0.8740  1.8361  1.5892
13998TIP3    H263486   5.798   3.214  12.078  0.9829 -0.3658 -0.3582
13999TIP3   OH263487   3.555   2.454  16.639 -0.1612 -0.1921  0.2821
13999TIP3    H163488   3.574   2.512  16.565  0.2348 -0.6381  0.0233
13999TIP3    H263489   3.582   2.504  16.716 -0.9446  0.4305  0.1637
14000TIP3   OH263490   6.005   1.981  12.527 -0.5916 -0.2423 -0.0404
14000TIP3    H163491   6.073   1.954  12.467  2.3393  2.8372  1.5563
14000TIP3    H263492   5.971   2.063  12.490  0.7129  1.2800  1.9128
14001TIP3   OH263493   4.838   6.818  11.576  0.0122  0.1376  0.1113
14001TIP3    H163494   4.861   6.826  11.483  1.8117  0.8152  0.5636
14001TIP3    H263495   4.888   6.742  11.606 -2.0505 -1.2882  0.1519
14002TIP3   OH263496   6.828   4.613  16.223 -0.2958 -0.3207  0.3844
14002TIP3    H163497   6.817   4.585  16.133 -0.2509  0.7215  0.0474
14002TIP3    H263498   6.921   4.600  16.241  0.0618  1.0855 -0.2989
14003TIP3   OH263499   2.942   0.301  16.930 -0.0695 -0.3905 -0.0062
14003TIP3    H163500   2.894   0.355  16.993 -0.4312 -0.6589 -0.0444
14003TIP3    H263501   2.873   0.268  16.872  0.3028  0.1922 -0.7949
14004TIP3   OH263502   4.382   5.900  16.182  0.0260 -0.4825 -0.1814
14004TIP3    H163503   4.360   5.990  16.206  1.0234  0.9643 -3.9686
14004TIP3    H263504   4.460   5.880  16.234 -0.6392  0.4857  1.2692
14005TIP3   OH263505   3.434   5.844  13.697  0.4522  0.1758 -0.6700
14005TIP3    H163506   3.417   5.930  13.736  0.5872 -0.4184  0.7581
14005TIP3    H263507   3.523   5.823  13.723 -0.5901 -1.7462  1.7348
14006TIP3   OH263508   3.813   1.891   2.988 -0.1742  0.4109  0.1953
14006TIP3    H163509   3.720   1.880   3.009  0.3682  0.6917  3.0412
14006TIP3    H263510   3.822   1.984   2.966 -0.4186  0.5656  0.7420
14007TIP3   OH263511   3.373   1.765   2.281  0.1134 -0.2605  0.7748
14007TIP3    H163512   3.431   1.801   2.349 -0.3239  0.3537  0.8232
14007TIP3    H263513   3.432   1.744   2.209  0.2584  1.7072  0.2546
14008TIP3   OH263514   2.876   2.183  16.180 -0.5280  0.3489 -0.6021
14008TIP3    H163515   2.953   2.172  16.237  0.8887 -0.2469 -2.5122
14008TIP3    H263516   2.802   2.183  16.240  0.7473 -1.8176  1.1684
14009TIP3   OH263517   4.365   1.628  12.824 -0.4624 -0.4127  0.2399
14009TIP3    H163518   4.362   1.715  12.863  0.6283  0.2193 -1.0309
14009TIP3    H263519   4.406   1.573  12.891  0.1856  0.3669  0.4871
14010TIP3   OH263520   2.814   0.378  12.419  0.5779 -0.4460  0.5567
14010TIP3    H163521   2.865   0.385  12.500  1.8383  1.1941 -0.3203
14010TIP3    H263522   2.862   0.431  12.356 -2.1034  1.0218 -0.3982
14011TIP3   OH263523   5.412   6.621   6.423  0.5787 -0.1433  0.3234
14011TIP3    H163524   5.344   6.554   6.412  0.7395 -0.1881 -0.4810
14011TIP3    H263525   5.460   6.595   6.502 -1.4347  0.8572  1.9816
14012TIP3   OH263526   5.510   5.522   0.338 -0.2753  0.7568  0.3354
14012TIP3    H163527   5.541   5.534   0.248 -1.8283  0.4608 -0.2555
14012TIP3    H263528   5.589   5.499   0.387  1.0824  3.3416 -0.4199
14013TIP3   OH263529   0.791   0.202  15.249  0.0348 -0.2424 -0.5269
14013TIP3    H163530   0.821   0.126  15.199 -0.9353 -1.6865  0.9790
14013TIP3    H263531   0.779   0.169  15.338  2.2572  2.3665  0.8977
14014TIP3   OH263532   0.874   3.221   4.393  0.2420  0.3517  0.7142
14014TIP3    H163533   0.897   3.221   4.486 -0.7514  0.6009  0.9726
14014TIP3    H263534   0.929   3.291   4.355  1.8956 -0.8563  0.7554
14015TIP3   OH263535   0.713   0.864   3.784  0.8402  0.4816 -0.4481
14015TIP3    H163536   0.661   0.785   3.770  2.2347 -0.1783 -2.4231
14015TIP3    H263537   0.673   0.931   3.729  0.1883  0.9263  0.5407
14016TIP3   OH263538   6.221   6.279   0.167  0.0234  0.2799 -0.1524
14016TIP3    H163539   6.218   6.268   0.262 -1.1771  1.7587  0.0200
14016TIP3    H263540   6.169   6.358   0.150 -0.6885 -0.5582 -2.1363
14017TIP3   OH263541   0.976   1.921   1.964  0.3147 -0.1441 -0.4241
14017TIP3    H163542   0.944   1.842   1.921  0.7108  0.4673 -1.9224
14017TIP3    H263543   0.975   1.900   2.057  3.7665 -3.2491 -0.8265
14018TIP3   OH263544   4.701   6.250  16.662  0.8119 -0.4723  0.7363
14018TIP3    H163545   4.752   6.266  16.582 -0.7104 -2.4735 -0.7519
14018TIP3    H263546   4.693   6.336  16.703  0.4212  0.9516 -2.0614
14019TIP3   OH263547   4.679   4.259  14.848  0.4754 -0.4089  0.2475
14019TIP3    H163548   4.715   4.218  14.927  1.6613  0.5497  0.2487
14019TIP3    H263549   4.656   4.348  14.876  1.0904  0.0050 -0.5058
14020TIP3   OH263550   3.512   0.586  12.112 -0.3584  0.0525 -0.2108
14020TIP3    H163551   3.442   0.652  12.113 -0.4142  0.0139 -0.9357
14020TIP3    H263552   3.588   0.633  12.077  0.1850  0.2737  1.1737
14021TIP3   OH263553   2.785   2.980   5.852  0.5649  0.0085 -0.5047
14021TIP3    H163554   2.761   3.047   5.787 -2.4156 -1.3306 -0.9126
14021TIP3    H263555   2.720   2.990   5.921  0.9678 -1.5510  0.1218
14022TIP3   OH263556   1.237   1.997  13.973 -0.4339 -0.1156 -0.2660
14022TIP3    H163557   1.230   1.983  13.879 -0.8323 -0.8031 -0.1394
14022TIP3    H263558   1.170   1.940  14.011 -0.1667  0.0329  0.4423
14023TIP3   OH263559   4.033   0.193  11.231  0.1528  0.1828 -0.1314
14023TIP3    H163560   4.040   0.154  11.144  1.5572 -0.6017  0.3066
14023TIP3    H263561   4.121   0.187  11.268 -0.4627  0.2503  1.4514
14024TIP3   OH263562   1.553   2.079  12.734 -0.2566 -0.1931  0.8610
14024TIP3    H163563   1.503   2.158  12.754  0.6125  0.1937  1.6054
14024TIP3    H263564   1.494   2.007  12.757 -0.5920  0.2446  1.4030
14025TIP3   OH263565   5.319   0.099   3.862 -0.1478  0.0123 -0.1869
14025TIP3    H163566   5.321   0.105   3.767 -0.8518 -0.2827 -0.2218
14025TIP3    H263567   5.277   0.015   3.881  2.0525 -1.0416  0.3777
14026TIP3   OH263568   1.768   5.159  12.259 -0.1740 -0.1303  0.0949
14026TIP3    H163569   1.787   5.200  12.174  2.4440 -0.7072  0.3171
14026TIP3    H263570   1.759   5.233  12.319 -0.8598  0.2465 -0.4577
14027TIP3   OH263571   0.114   6.762   4.681  0.4173  0.2086  0.2354
14027TIP3    H163572   0.129   6.720   4.596 -1.1927 -0.2186  0.1268
14027TIP3    H263573   0.089   6.852   4.659  0.0337  0.1075  0.2480
14028TIP3   OH263574   1.421   3.112   5.743  0.5517  0.2051 -0.4326
14028TIP3    H163575   1.505   3.128   5.786  0.4784  0.5404 -0.4058
14028TIP3    H263576   1.398   3.023   5.766  0.2753  0.5433  0.6288
14029TIP3   OH263577   6.609   1.048  13.906  0.1375  0.2455  0.1411
14029TIP3    H163578   6.553   1.043  13.829  0.8056  0.8559 -0.3977
14029TIP3    H263579   6.554   1.087  13.974 -0.1738  0.5537 -0.2875
14030TIP3   OH263580   0.587   4.363   4.267  0.4438 -0.7618 -0.3241
14030TIP3    H163581   0.556   4.399   4.184  2.2713  0.7020 -0.4465
14030TIP3    H263582   0.510   4.365   4.324 -0.4246 -0.1438 -1.4661
14031TIP3   OH263583   2.237   3.427  13.486 -0.5216  0.2649 -0.2199
14031TIP3    H163584   2.155   3.380  13.505  0.0605 -1.0021 -0.7046
14031TIP3    H263585   2.277   3.442  13.571  0.6327 -2.7132 -0.0973
14032TIP3   OH263586   4.867   3.722  11.640 -0.6993 -0.7024  0.3406
14032TIP3    H163587   4.961   3.739  11.628 -0.8954  1.6737  1.5293
14032TIP3    H263588   4.859   3.627  11.635  1.8976 -1.0316  0.9730
14033TIP3   OH263589   4.120   6.389  12.885  0.2759 -0.2862 -0.2788
14033TIP3    H163590   4.117   6.478  12.849  1.8427 -0.1864 -0.2349
14033TIP3    H263591   4.197   6.349  12.843  0.2758 -1.2265  0.5843
14034TIP3   OH263592   3.336   5.338  15.868  0.3025 -0.1274  0.6008
14034TIP3    H163593   3.415   5.300  15.831 -0.0533  0.2225 -0.5768
14034TIP3    H263594   3.288   5.371  15.792 -1.2927 -0.9356  1.2004
14035TIP3   OH263595   0.129   5.545  10.203  0.5139 -0.1637  0.0250
14035TIP3    H163596   0.146   5.639  10.191 -0.0134 -0.1766 -0.8979
14035TIP3    H263597   0.034   5.537  10.190  0.4988 -0.7696  0.4941
14036TIP3   OH263598   2.090   3.549  13.310  0.2572 -0.3063  0.2475
14036TIP3    H163599   2.093   3.512  13.221 -0.2151  0.3766 -0.0590
14036TIP3    H263600   2.155   3.498  13.359  0.7784 -0.4591 -0.5763
14037TIP3   OH263601   2.044   1.673  13.016  0.6699  0.1099 -0.7294
14037TIP3    H163602   1.982   1.708  12.951 -0.4899 -0.3188  0.1153
14037TIP3    H263603   2.044   1.737  13.087  1.1497  0.0715 -0.6903
14038TIP3   OH263604   4.092   4.465  13.549  0.3293  0.7366  0.3231
14038TIP3    H163605   4.123   4.467  13.639  0.6955  2.1622  0.1840
14038TIP3    H263606   4.005   4.426  13.554  1.1002 -1.0389  1.0269
14039TIP3   OH263607   0.192   4.205   6.221 -0.5673 -0.6510  0.3351
14039TIP3    H163608   0.183   4.281   6.164 -0.2872 -0.8147  0.0658
14039TIP3    H263609   0.154   4.232   6.304 -1.4894 -0.5997 -0.0945
14040TIP3   OH263610   3.332   6.370   2.886 -0.0517 -0.0947  0.0765
14040TIP3    H163611   3.392   6.416   2.945 -0.6578 -0.6551  1.1612
14040TIP3    H263612   3.250   6.364   2.935 -0.2763 -1.4669 -0.4281
14041TIP3   OH263613   2.581   2.156   3.400 -0.1380  0.0358  0.3026
14041TIP3    H163614   2.661   2.122   3.440 -0.5770 -0.7617  0.5271
14041TIP3    H263615   2.564   2.238   3.446 -0.7369 -0.9507  1.9061
14042TIP3   OH263616   0.148   5.961  13.087 -0.3124 -0.5025  0.0710
14042TIP3    H163617   0.080   6.008  13.136 -1.2469 -0.6111 -1.0594
14042TIP3    H263618   0.117   5.870  13.085 -0.1426 -0.5486 -0.4721
14043TIP3   OH263619   6.678   2.725  16.274 -0.2223 -0.2487  0.1568
14043TIP3    H163620   6.609   2.670  16.237 -0.2446 -0.4295  0.4619
14043TIP3    H263621   6.730   2.752  16.198 -0.2401 -0.6518 -0.0016
14044TIP3   OH263622   2.301   0.157  16.085  0.3703  0.0217 -0.0638
14044TIP3    H163623   2.238   0.180  16.017  1.3476  0.0635 -0.9836
14044TIP3    H263624   2.364   0.228  16.085  1.6080 -1.0473 -0.6616
14045TIP3   OH263625   1.134   0.044  16.417  0.6261  0.0643 -0.2652
14045TIP3    H163626   1.104  -0.046  16.407 -0.1488  0.5079 -2.3061
14045TIP3    H263627   1.056   0.093  16.441  1.1409  0.1661  1.3523
14046TIP3   OH263628   6.645   1.555  14.842  0.2975 -0.1276 -0.1181
14046TIP3    H163629   6.600   1.472  14.860  0.4533 -0.2503 -0.2932
14046TIP3    H263630   6.586   1.602  14.783 -0.3601  0.4080  0.9360
14047TIP3   OH263631   1.668   1.112  12.070 -0.2314 -0.8729 -0.2930
14047TIP3    H163632   1.611   1.152  12.136  1.5485 -0.6431  1.1974
14047TIP3    H263633   1.608   1.082  12.002 -2.0000  0.4738  0.5766
14048TIP3   OH263634   2.485   3.731  17.077  0.4733  0.2779 -0.3220
14048TIP3    H163635   2.519   3.736  16.988 -2.9889 -1.3937 -1.8907
14048TIP3    H263636   2.518   3.647  17.110  1.0541  0.4963 -0.3380
14049TIP3   OH263637   5.367   2.981   1.600 -0.1359  0.4262 -0.5180
14049TIP3    H163638   5.382   2.916   1.531 -0.2809 -0.5853  0.3779
14049TIP3    H263639   5.407   3.061   1.567  0.4265 -0.2327 -1.4629
14050TIP3   OH263640   2.967   3.656   3.322 -0.7065 -1.0565 -0.4654
14050TIP3    H163641   2.955   3.640   3.228  1.4482 -1.6812 -0.6819
14050TIP3    H263642   3.049   3.612   3.343 -0.5778  0.0345  1.4832
14051TIP3   OH263643   4.808   3.282  15.739 -0.1625 -0.4276  0.6440
14051TIP3    H163644   4.853   3.283  15.655  1.0736  1.3170  1.2630
14051TIP3    H263645   4.717   3.298  15.718  0.0807 -0.3334 -0.3870
14052TIP3   OH263646   4.922   1.845   5.825  0.5327 -0.4852  0.0966
14052TIP3    H163647   4.927   1.898   5.905 -0.9914 -0.3897  0.1619
14052TIP3    H263648   4.906   1.909   5.755  0.2570 -0.7151 -0.0520
14053TIP3   OH263649   5.608   5.470   1.946  0.0199 -0.1192 -0.3707
14053TIP3    H163650   5.518   5.451   1.973 -0.3856  1.6802 -0.3375
14053TIP3    H263651   5.644   5.385   1.922 -1.7000 -0.8810 -0.4083
14054TIP3   OH263652   4.040   5.992   4.928  0.2511 -0.2556 -0.2693
14054TIP3    H163653   4.005   6.028   4.846 -1.5014  0.1096  0.6168
14054TIP3    H263654   4.082   5.910   4.901  1.1769  0.6565 -1.7740
14055TIP3   OH263655   0.508   3.752  12.090  0.4932 -0.0220 -0.0729
14055TIP3    H163656   0.487   3.775  11.999  0.7910  0.9440  0.0914
14055TIP3    H263657   0.528   3.836  12.132  1.8461 -0.5989  0.5077
14056TIP3   OH263658   2.390   6.135  16.554  0.2328  0.0699  0.0369
14056TIP3    H163659   2.320   6.088  16.600 -0.6146  0.8421 -0.4309
14056TIP3    H263660   2.463   6.073  16.552 -0.0084 -0.3197  1.6098
14057TIP3   OH263661   0.940   2.557  14.356  0.3308 -0.0230 -0.2962
14057TIP3    H163662   1.011   2.531  14.297 -0.6558 -1.6841 -0.8197
14057TIP3    H263663   0.924   2.479  14.409 -0.9422  0.3967 -0.0382
14058TIP3   OH263664   1.510   5.268  14.749 -0.1389 -0.1990 -0.0349
14058TIP3    H163665   1.527   5.191  14.803  0.5568 -0.6989 -0.9414
14058TIP3    H263666   1.418   5.289  14.764 -0.1941 -0.8824  0.6291
14059TIP3   OH263667   3.039   3.170  10.916 -0.5155  0.7523  0.2818
14059TIP3    H163668   3.065   3.262  10.920  1.0742  0.3567 -0.4038
14059TIP3    H263669   3.120   3.121  10.932 -0.9433 -0.5352 -1.2716
14060TIP3   OH263670   1.236   5.230   3.864 -0.2078  0.3207  0.8922
14060TIP3    H163671   1.182   5.191   3.795 -0.3512  0.3605  0.9828
14060TIP3    H263672   1.214   5.181   3.943 -0.3525  0.5553  0.9961
14061TIP3   OH263673   3.842   6.331  17.015  0.6940  0.2733  0.2424
14061TIP3    H163674   3.830   6.261  17.079  1.9852 -1.8506 -1.7129
14061TIP3    H263675   3.756   6.339  16.972  1.0272 -1.6290 -0.9013
14062TIP3   OH263676   2.003   6.612  14.763 -0.3122 -0.2261 -0.1355
14062TIP3    H163677   1.907   6.610  14.772 -0.3090 -0.4496 -0.1604
14062TIP3    H263678   2.030   6.521  14.774 -0.1270 -0.2039 -0.4085
14063TIP3   OH263679   6.764   4.671   3.741 -0.3187 -0.2770 -0.2312
14063TIP3    H163680   6.795   4.583   3.763 -0.1818  0.1618  1.4900
14063TIP3    H263681   6.838   4.728   3.763 -1.1957  0.4743  0.8712
14064TIP3   OH263682   0.716   4.428  16.457 -0.2947  0.4975 -0.0483
14064TIP3    H163683   0.641   4.485  16.436 -0.1935 -0.2000 -2.6687
14064TIP3    H263684   0.776   4.485  16.505 -1.6511  1.6300  0.3853
14065TIP3   OH263685   0.932   4.485   0.378 -0.4255  0.3400  0.1068
14065TIP3    H163686   0.944   4.391   0.363 -0.0171  0.2936  0.6796
14065TIP3    H263687   0.964   4.499   0.467 -0.1243  1.0889 -0.1139
14066TIP3   OH263688   1.527   5.809  13.961  0.0637  0.4167 -0.1345
14066TIP3    H163689   1.575   5.885  13.928  1.3707 -0.3938 -0.1809
14066TIP3    H263690   1.500   5.835  14.049  0.4399  0.9647 -0.1704
14067TIP3   OH263691   0.656   5.164  15.464  0.5765 -0.5821 -0.4010
14067TIP3    H163692   0.746   5.194  15.455  0.5819 -0.8819 -1.4634
14067TIP3    H263693   0.603   5.242  15.454  0.6938 -0.4944 -0.3402
14068TIP3   OH263694   5.834   6.552   4.286 -0.4627 -0.0360  0.2032
14068TIP3    H163695   5.849   6.614   4.359 -2.2814  0.3111  0.3211
14068TIP3    H263696   5.801   6.473   4.329  1.3859 -0.9762  0.0003
14069TIP3   OH263697   0.543   2.910   4.700  0.4535  0.5054  0.6889
14069TIP3    H163698   0.594   2.842   4.657 -0.5917  1.1629 -1.7753
14069TIP3    H263699   0.604   2.953   4.760  2.0013 -0.5038 -0.1260
14070TIP3   OH263700   0.516   1.906   0.899  0.0434  0.2099  0.0803
14070TIP3    H163701   0.548   1.992   0.924  1.2191  0.2464 -1.4178
14070TIP3    H263702   0.421   1.917   0.888 -0.4525  0.3791  3.4408
14071TIP3   OH263703   2.432   4.575   4.858 -0.0534  0.7185 -0.6612
14071TIP3    H163704   2.520   4.562   4.823  0.5378 -0.2946  1.0597
14071TIP3    H263705   2.374   4.566   4.782  1.3206  1.5808 -1.8516
14072TIP3   OH263706   1.668   0.835   5.909 -0.3544  0.0009  0.0307
14072TIP3    H163707   1.671   0.740   5.910 -1.2671 -0.0816  2.7811
14072TIP3    H263708   1.576   0.856   5.893  0.1871  0.5516 -2.8929
14073TIP3   OH263709   0.550   1.280   5.768  0.4930  0.0838 -0.2832
14073TIP3    H163710   0.503   1.227   5.704 -1.2054  0.8826  0.2399
14073TIP3    H263711   0.628   1.311   5.721 -0.3628  0.1061 -1.7399
14074TIP3   OH263712   0.322   3.572  16.884 -0.0447  0.4884 -0.2597
14074TIP3    H163713   0.395   3.515  16.860 -0.3829  0.5544 -1.4640
14074TIP3    H263714   0.364   3.648  16.925  0.6938  1.2094 -2.2376
14075TIP3   OH263715   3.945   0.482  12.727 -0.3053  0.3209 -0.1630
14075TIP3    H163716   3.979   0.418  12.665  0.1193 -0.1511  0.5445
14075TIP3    H263717   3.890   0.540  12.674  0.8139  0.5131 -1.1448
14076TIP3   OH263718   1.057   2.625   2.914 -0.5077  0.2075 -0.0101
14076TIP3    H163719   1.047   2.534   2.887  0.0915  0.4677 -1.1374
14076TIP3    H263720   1.064   2.620   3.010  1.5365 -1.1505 -0.1553
14077TIP3   OH263721   2.760   1.803   5.522  0.3408 -0.4421  0.3979
14077TIP3    H163722   2.740   1.740   5.591 -1.2025  2.4372  2.8111
14077TIP3    H263723   2.847   1.836   5.543  0.1665 -0.0695  0.5358
14078TIP3   OH263724   2.265   6.577  16.175 -0.3606 -0.3835 -0.1913
14078TIP3    H163725   2.334   6.523  16.136  0.3879 -0.3060  0.9824
14078TIP3    H263726   2.277   6.566  16.269 -0.5762  1.3638  0.0623
14079TIP3   OH263727   5.308   3.251   1.630  0.2293 -0.1209  0.4072
14079TIP3    H163728   5.355   3.270   1.711  0.1799  1.2995  0.1283
14079TIP3    H263729   5.242   3.186   1.656 -0.4296  1.0300  1.7343
14080TIP3   OH263730   5.905   2.931  10.349 -0.4352  0.2996 -0.5298
14080TIP3    H163731   5.961   3.006  10.366  0.8643 -0.2463 -2.1350
14080TIP3    H263732   5.868   2.947  10.262  0.8153 -1.4018 -1.4481
14081TIP3   OH263733   0.141   0.512  14.115 -0.1883  0.7048  0.1651
14081TIP3    H163734   0.173   0.447  14.052  1.3223  1.5703  0.0031
14081TIP3    H263735   0.217   0.529  14.172 -0.7597  1.8560  0.5976
14082TIP3   OH263736   3.297   4.449  14.175 -0.2126 -0.2887  0.1541
14082TIP3    H163737   3.315   4.540  14.197  1.4891 -0.1145 -1.7100
14082TIP3    H263738   3.238   4.452  14.101  0.4735 -0.6590 -0.4250
14083TIP3   OH263739   3.294   6.482   3.225  0.6757  0.0604  0.8568
14083TIP3    H163740   3.234   6.542   3.270  0.0187 -0.5739  0.8352
14083TIP3    H263741   3.319   6.419   3.293 -0.3278 -0.9091  0.3677
14084TIP3   OH263742   4.610   4.494  12.332  0.0441  0.5628 -0.4697
14084TIP3    H163743   4.684   4.554  12.321  0.2410  0.4904  0.3480
14084TIP3    H263744   4.641   4.411  12.295  1.0890  0.0145  1.4856
14085TIP3   OH263745   5.198   6.783  14.194  0.4707  0.8717 -0.5658
14085TIP3    H163746   5.166   6.736  14.116 -2.2363 -0.2188  1.0733
14085TIP3    H263747   5.229   6.714  14.252 -2.2643  1.1154  1.3212
14086TIP3   OH263748   2.619   4.302   3.887  0.6457  0.0094  0.0488
14086TIP3    H163749   2.657   4.390   3.886  2.3387 -0.6532  1.1949
14086TIP3    H263750   2.529   4.315   3.917  0.5405  1.4293 -0.7825
14087TIP3   OH263751   5.963   6.197   4.535 -0.1610  0.4318 -0.4202
14087TIP3    H163752   5.988   6.288   4.550 -0.6255  0.3729  0.8585
14087TIP3    H263753   6.005   6.173   4.453 -0.7803  2.0864 -1.2671
14088TIP3   OH263754   1.497   2.490  13.374 -0.1255  0.6818 -0.1165
14088TIP3    H163755   1.582   2.535  13.369 -0.1139  0.7903  0.8745
14088TIP3    H263756   1.451   2.519  13.295  0.8631  0.3891 -0.8319
14089TIP3   OH263757   3.497   1.397  12.441  0.1262 -0.0294 -0.0516
14089TIP3    H163758   3.491   1.447  12.360 -0.4098  1.4789  0.8884
14089TIP3    H263759   3.589   1.373  12.448  0.6302  1.8191  0.0409
14090TIP3   OH263760   3.303   6.727   2.503  0.3249 -0.0682  0.3656
14090TIP3    H163761   3.280   6.636   2.521 -0.1270 -0.2787 -1.1670
14090TIP3    H263762   3.362   6.724   2.428  1.7088  0.8127  1.3589
14091TIP3   OH263763   4.103   2.915   2.954 -0.1533  0.2588  0.3075
14091TIP3    H163764   4.158   2.840   2.973  0.6242  0.7657  0.1086
14091TIP3    H263765   4.018   2.894   2.993  0.0447 -0.7281  0.2129
14092TIP3   OH263766   3.173   1.626   2.141 -0.2865  0.9069  0.5818
14092TIP3    H163767   3.220   1.631   2.224  2.2458 -1.4449 -0.5519
14092TIP3    H263768   3.231   1.667   2.077 -0.2245 -1.0239 -0.6761
14093TIP3   OH263769   2.403   2.642  15.694  0.0633 -0.3064 -0.7458
14093TIP3    H163770   2.348   2.659  15.771  0.3078  0.9344 -0.8221
14093TIP3    H263771   2.465   2.715  15.693  0.3586 -0.5582 -1.8595
14094TIP3   OH263772   6.532   0.976   2.386 -0.2585  0.4131  0.0989
14094TIP3    H163773   6.552   0.917   2.312  2.9357 -1.2748  2.0591
14094TIP3    H263774   6.448   0.945   2.419 -0.5157 -0.4832 -1.2869
14095TIP3   OH263775   5.128   4.034   6.204  0.0039  0.7690 -0.1902
14095TIP3    H163776   5.161   3.958   6.156 -0.8958  1.0159 -1.2396
14095TIP3    H263777   5.042   4.007   6.236 -0.5013  1.4694 -0.9216
14096TIP3   OH263778   6.423   1.718  12.489  0.6606 -0.0007 -0.1850
14096TIP3    H163779   6.463   1.781  12.549 -0.2240 -0.4036  0.8457
14096TIP3    H263780   6.416   1.637  12.540  0.1133 -0.4182 -0.9110
14097TIP3   OH263781   6.532   1.991   5.826 -0.3078 -0.6459  0.5771
14097TIP3    H163782   6.599   1.978   5.893 -0.2085  0.6348  0.7568
14097TIP3    H263783   6.453   1.954   5.864 -0.7929  1.9860  2.4391
14098TIP3   OH263784   3.948   2.768   5.084  0.3913 -0.1456  0.6270
14098TIP3    H163785   3.862   2.763   5.126  0.7365  0.4772  1.4174
14098TIP3    H263786   4.009   2.733   5.149  1.0575  1.7128  1.0615
14099TIP3   OH263787   1.497   0.585  14.352  0.3149  0.7285 -0.0845
14099TIP3    H163788   1.432   0.652  14.372  0.6890  1.9787 -2.6510
14099TIP3    H263789   1.482   0.564  14.260  2.8693  0.3070 -0.4783
14100TIP3   OH263790   5.604   3.955   4.514 -0.1200  0.0798  0.1756
14100TIP3    H163791   5.630   4.004   4.436 -0.2023  0.6613  0.5077
14100TIP3    H263792   5.569   4.021   4.573 -1.0025 -0.5016  0.3093
14101TIP3   OH263793   6.172   3.071  12.659 -0.1816  0.2209 -0.2328
14101TIP3    H163794   6.181   3.144  12.721 -0.0106  0.8764 -1.0130
14101TIP3    H263795   6.180   2.992  12.714  2.1737  0.7490  0.3108
14102TIP3   OH263796   3.825   4.983  16.164 -0.2056  0.1686  0.2695
14102TIP3    H163797   3.833   5.026  16.079  0.1486 -0.1287  0.1490
14102TIP3    H263798   3.854   5.048  16.227 -0.5895  0.4342  0.1729
14103TIP3   OH263799   4.618   4.369  15.586  0.2659  0.5604 -0.4668
14103TIP3    H163800   4.556   4.441  15.597 -0.3233 -0.0733  0.5217
14103TIP3    H263801   4.606   4.340  15.496 -3.1551 -1.5456  0.5005
14104TIP3   OH263802   6.594   6.162  14.018  0.7316  0.5476  0.7759
14104TIP3    H163803   6.656   6.132  14.084  0.9760  0.9684  0.7454
14104TIP3    H263804   6.594   6.258  14.028  2.1385  0.7985 -1.0200
14105TIP3   OH263805   3.279   3.208  16.876  0.7510  0.1503 -0.0843
14105TIP3    H163806   3.210   3.164  16.925  0.7230  0.0664 -0.1994
14105TIP3    H263807   3.318   3.269  16.939  0.0374  0.7823 -0.2455
14106TIP3   OH263808   6.471   4.867  16.159  0.4591  0.0883 -0.7189
14106TIP3    H163809   6.473   4.944  16.217 -0.4773 -0.2845 -0.1630
14106TIP3    H263810   6.517   4.799  16.208  2.2761  0.5740 -1.6789
14107TIP3   OH263811   5.447   5.174   2.929  0.3630 -0.7773  0.4916
14107TIP3    H163812   5.448   5.132   2.844  2.2588  1.2678 -0.6120
14107TIP3    H263813   5.388   5.248   2.919 -0.4345 -1.2646  1.4014
14108TIP3   OH263814   1.547   6.444  16.215  0.3940  0.6811 -0.0881
14108TIP3    H163815   1.628   6.487  16.189 -0.0899  0.9956 -1.1227
14108TIP3    H263816   1.508   6.412  16.134  0.8446 -2.0021  0.6545
14109TIP3   OH263817   1.318   5.892  13.456 -0.5737  0.7912 -0.8465
14109TIP3    H163818   1.317   5.912  13.550 -0.5532 -1.0063 -0.4202
14109TIP3    H263819   1.371   5.961  13.417  0.8247  0.6540  0.7039
14110TIP3   OH263820   2.888   2.438  16.027 -0.1632 -0.2773 -0.3546
14110TIP3    H163821   2.899   2.345  16.044  0.1738 -0.2496 -0.4148
14110TIP3    H263822   2.796   2.447  16.002 -0.1384 -0.6281 -0.5784
14111TIP3   OH263823   6.762   1.472  10.975 -0.0872  0.1714 -0.5970
14111TIP3    H163824   6.730   1.400  11.029 -1.3194  0.8001 -0.4569
14111TIP3    H263825   6.770   1.434  10.887 -1.2153 -0.0258 -0.6320
14112TIP3   OH263826   6.696   2.354   3.335  0.1820  0.0956 -0.3137
14112TIP3    H163827   6.710   2.314   3.249 -1.5663  0.2465 -0.7219
14112TIP3    H263828   6.782   2.358   3.375  1.1171  0.4221 -2.2481
14113TIP3   OH263829   4.143   2.036  14.819  0.3319 -0.7285  0.4145
14113TIP3    H163830   4.167   1.944  14.806  1.1141 -0.3214 -1.3615
14113TIP3    H263831   4.191   2.062  14.898 -0.0858 -1.8814  1.0766
14114TIP3   OH263832   2.580   5.756   2.816 -0.4210 -0.8207 -0.3544
14114TIP3    H163833   2.532   5.756   2.899  4.3621  2.0528  2.9699
14114TIP3    H263834   2.559   5.840   2.776 -1.3188 -1.4086 -1.1449
14115TIP3   OH263835   2.975   5.345   0.089  0.4818  0.2589  0.2937
14115TIP3    H163836   2.966   5.434   0.057 -0.0870 -0.6673 -2.3464
14115TIP3    H263837   2.903   5.334   0.151 -0.0354  1.3003 -0.1170
14116TIP3   OH263838   3.395   4.272  13.864  0.0544 -0.5519  0.0864
14116TIP3    H163839   3.359   4.323  13.791  1.3748  1.5711  0.8369
14116TIP3    H263840   3.322   4.217  13.893 -1.2052  0.3158 -1.2757
14117TIP3   OH263841   2.114   4.933  16.855  0.0693 -0.2192  0.1636
14117TIP3    H163842   2.072   5.016  16.834  0.1546 -0.1090  0.4356
14117TIP3    H263843   2.048   4.884  16.904  0.0346 -0.2967  0.0426
14118TIP3   OH263844   3.236   5.177  15.542 -0.1514  0.2235 -0.3460
14118TIP3    H163845   3.317   5.130  15.521 -0.3673 -0.0125 -0.6654
14118TIP3    H263846   3.175   5.109  15.568 -0.8543  0.1567 -2.0006
14119TIP3   OH263847   1.736   2.963   0.459 -0.0202  0.1541  0.1605
14119TIP3    H163848   1.674   2.996   0.394 -1.1502 -2.8490 -0.4597
14119TIP3    H263849   1.694   2.884   0.494  2.8615 -1.2889  0.7050
14120TIP3   OH263850   0.268   1.524  12.983  0.2560  0.2797 -0.1857
14120TIP3    H163851   0.334   1.461  12.957  1.6603  1.3555  0.6551
14120TIP3    H263852   0.300   1.561  13.065 -0.3656  2.2866 -0.7919
14121TIP3   OH263853   6.585   2.212  12.620  0.0039 -0.5254  0.2979
14121TIP3    H163854   6.648   2.276  12.652 -0.8185 -0.3101  1.5835
14121TIP3    H263855   6.591   2.218  12.525 -0.0453  1.5006  0.3610
14122TIP3   OH263856   0.951   4.555  16.557  0.1990 -0.4060 -1.1907
14122TIP3    H163857   1.027   4.589  16.605 -0.5169 -0.0614 -0.2658
14122TIP3    H263858   0.986   4.527  16.473  1.4624 -0.8419 -0.5409
14123TIP3   OH263859   6.733   0.471  15.623 -0.0299  0.0472  0.2760
14123TIP3    H163860   6.724   0.376  15.630  1.2742 -0.0197  1.5079
14123TIP3    H263861   6.702   0.504  15.707 -0.9795  0.7780 -0.3408
14124TIP3   OH263862   6.737   3.938   3.503  0.2067  0.2687 -0.2681
14124TIP3    H163863   6.820   3.904   3.538  0.7314  0.9392 -0.8362
14124TIP3    H263864   6.670   3.882   3.543  0.9390 -0.3896  0.0779
14125TIP3   OH263865   3.712   0.858  16.701 -0.0833 -0.3491  0.2630
14125TIP3    H163866   3.643   0.924  16.689  1.5251  1.0218 -2.4953
14125TIP3    H263867   3.675   0.777  16.668 -0.6997  0.1579 -0.3036
14126TIP3   OH263868   0.246   2.858  13.794 -0.4770  0.5719 -0.0858
14126TIP3    H163869   0.290   2.916  13.856 -0.9214  1.7813 -0.8592
14126TIP3    H263870   0.155   2.856  13.824 -0.4691  0.2912 -0.0790
14127TIP3   OH263871   3.881   0.720  13.361 -0.7095  0.2327 -0.4819
14127TIP3    H163872   3.858   0.777  13.434 -0.9545  1.2806 -1.3443
14127TIP3    H263873   3.812   0.653  13.359 -0.1071 -0.4577  0.8956
14128TIP3   OH263874   4.724   6.457  13.872  0.4616  0.2644 -0.2889
14128TIP3    H163875   4.680   6.423  13.950  0.4147  0.6802 -0.1358
14128TIP3    H263876   4.706   6.550  13.872  0.8589  0.3455 -0.5406
14129TIP3   OH263877   4.000   3.669  15.979 -0.4146  0.2439  0.6087
14129TIP3    H163878   4.071   3.653  15.917 -0.2237 -0.3853  0.9906
14129TIP3    H263879   4.042   3.670  16.064 -1.0980 -2.0507  1.0417
14130TIP3   OH263880   3.105   5.768   1.319 -0.3794 -0.0510  0.2898
14130TIP3    H163881   3.039   5.764   1.387  0.3888  1.4060  1.1719
14130TIP3    H263882   3.115   5.862   1.301  0.8385 -0.2997 -0.4247
14131TIP3   OH263883   0.750   6.529  14.538  0.6195  0.2470  0.4772
14131TIP3    H163884   0.745   6.505  14.631  0.4368 -0.5172  0.2765
14131TIP3    H263885   0.688   6.601  14.528 -1.2969 -1.3198  0.4507
14132TIP3   OH263886   4.811   5.362  11.671  0.3111  0.2513  0.2406
14132TIP3    H163887   4.896   5.331  11.641 -0.0676 -0.7477  0.1689
14132TIP3    H263888   4.826   5.391  11.761  0.9292  0.9835 -0.0958
14133TIP3   OH263889   1.296   4.218   3.736  0.0262  0.1056 -0.0097
14133TIP3    H163890   1.252   4.231   3.651 -1.7996 -1.6034  0.5885
14133TIP3    H263891   1.340   4.134   3.727  2.0252  1.1056 -0.0692
14134TIP3   OH263892   5.264   1.421  14.644  0.4423 -0.0003 -0.6752
14134TIP3    H163893   5.323   1.358  14.685 -0.5441 -0.9959 -0.7085
14134TIP3    H263894   5.260   1.495  14.705 -0.6093 -1.2352  0.8426
14135TIP3   OH263895   6.052   6.256  12.234  0.4154  0.1348 -0.5411
14135TIP3    H163896   6.145   6.281  12.231  0.4402 -0.0073 -1.4816
14135TIP3    H263897   6.051   6.175  12.285  0.8857 -0.1208 -0.9153
14136TIP3   OH263898   0.490   5.402  13.541  0.0679 -0.0248  0.1010
14136TIP3    H163899   0.584   5.399  13.524  0.2282  2.6129  0.0479
14136TIP3    H263900   0.480   5.377  13.632  0.7797 -0.5897  0.0298
14137TIP3   OH263901   6.381   6.491  13.424  0.2630  0.0079  0.3439
14137TIP3    H163902   6.385   6.564  13.487 -2.3227 -0.0932  0.7496
14137TIP3    H263903   6.344   6.530  13.345  1.6950 -0.2731 -0.4849
14138TIP3   OH263904   4.588   1.155  15.743 -0.6769 -0.2398 -0.1738
14138TIP3    H163905   4.500   1.175  15.711 -1.2521  0.4075  1.7224
14138TIP3    H263906   4.581   1.158  15.838  1.4231 -0.0786  0.0223
14139TIP3   OH263907   1.700   6.092   3.743  0.2628 -0.2126  1.0805
14139TIP3    H163908   1.677   6.007   3.780 -1.3711  0.4965  1.7814
14139TIP3    H263909   1.677   6.085   3.650  0.1768 -0.5461  1.1277
14140TIP3   OH263910   6.090   0.746  12.952 -0.1642  0.0237 -0.5054
14140TIP3    H163911   6.120   0.656  12.966 -0.6124 -0.0704 -0.1021
14140TIP3    H263912   6.154   0.800  12.999 -0.9729 -0.2176  0.9609
14141TIP3   OH263913   2.678   3.621   1.000  1.0362 -0.1013  0.4592
14141TIP3    H163914   2.766   3.638   1.033  1.0860  1.4432 -0.3716
14141TIP3    H263915   2.625   3.693   1.034  0.5194  0.0310 -0.5817
14142TIP3   OH263916   1.985   4.982  13.119  0.3024  0.1515  0.0319
14142TIP3    H163917   1.969   5.049  13.052  0.8398  0.4387  0.1879
14142TIP3    H263918   2.055   4.928  13.082 -0.8505 -1.0047 -0.5763
14143TIP3   OH263919   0.273   5.564   0.076  0.7273  0.6808 -0.6416
14143TIP3    H163920   0.280   5.609   0.161  1.1377  0.2732 -0.4526
14143TIP3    H263921   0.361   5.528   0.061  0.2044 -0.7429 -0.4018
14144TIP3   OH263922   2.238   5.602  14.482 -0.1850 -0.3341  0.0750
14144TIP3    H163923   2.199   5.525  14.441  1.2424 -0.7677 -0.5360
14144TIP3    H263924   2.279   5.649  14.410  1.1584 -0.3617  0.7896
14145TIP3   OH263925   6.831   0.316   3.236  0.3567  0.0505  0.6115
14145TIP3    H163926   6.793   0.269   3.161  0.2404 -0.4943  1.0077
14145TIP3    H263927   6.767   0.305   3.306 -0.5599  2.3241  0.2413
14146TIP3   OH263928   2.584   0.016  11.978  0.4558 -0.0396 -0.3120
14146TIP3    H163929   2.554   0.038  11.890  1.6919  0.4377 -0.6335
14146TIP3    H263930   2.566   0.095  12.029  2.0947  0.6427 -0.7534
14147TIP3   OH263931   6.684   1.259   4.866 -0.0336 -0.4207  0.1434
14147TIP3    H163932   6.696   1.340   4.817  0.0514  0.4416  1.5308
14147TIP3    H263933   6.772   1.220   4.870 -0.1004 -0.6647 -0.6457
14148TIP3   OH263934   5.203   2.266  14.577  0.4441  0.2659 -0.1984
14148TIP3    H163935   5.296   2.289  14.579  0.2114  1.3416 -1.0094
14148TIP3    H263936   5.190   2.214  14.657  1.4646  1.1642  0.5853
14149TIP3   OH263937   1.625   1.511  16.052  0.3677 -0.4579 -0.4809
14149TIP3    H163938   1.597   1.488  16.141  2.9583  0.4256  0.6725
14149TIP3    H263939   1.578   1.592  16.033 -0.8266 -1.0759 -0.2866
14150TIP3   OH263940   0.558   3.455  13.854  0.1555 -0.1656  0.1011
14150TIP3    H163941   0.527   3.410  13.775 -0.8819 -1.7776  1.3447
14150TIP3    H263942   0.651   3.471  13.838  0.2272 -1.4799 -1.0143
14151TIP3   OH263943   0.976   3.635  12.991  0.4273 -0.1653  0.2932
14151TIP3    H163944   1.066   3.624  13.020 -0.1543 -0.3900  2.2030
14151TIP3    H263945   0.929   3.563  13.033 -0.3865 -1.1198 -2.0723
14152TIP3   OH263946   0.409   6.093  14.147 -0.7724 -0.0657 -0.2811
14152TIP3    H163947   0.328   6.079  14.197 -1.5780 -2.2339 -1.9797
14152TIP3    H263948   0.418   6.013  14.094  2.4113  0.1883 -0.3065
14153TIP3   OH263949   4.288   3.792  11.815 -0.2792  0.0394 -0.8016
14153TIP3    H163950   4.241   3.817  11.736  0.3323 -1.5153 -1.6803
14153TIP3    H263951   4.219   3.765  11.876 -0.8325  2.1374 -0.3913
14154TIP3   OH263952   0.823   5.711   5.142  0.3232  0.3113  0.4439
14154TIP3    H163953   0.761   5.774   5.106  0.4098  0.3485  0.3578
14154TIP3    H263954   0.820   5.725   5.236 -0.6173 -0.4460  0.5372
14155TIP3   OH263955   3.451   3.001  12.608 -0.5743  0.1231  0.1628
14155TIP3    H163956   3.481   2.991  12.518 -1.5527 -0.5233 -0.1147
14155TIP3    H263957   3.382   2.935  12.617  0.3656 -0.7257  1.7735
14156TIP3   OH263958   6.111   1.661  12.892  0.3605  0.0451 -0.5942
14156TIP3    H163959   6.154   1.576  12.883  1.6084  0.6689 -0.6764
14156TIP3    H263960   6.155   1.703  12.966 -0.3809  0.5370 -0.4199
14157TIP3   OH263961   2.188   4.843  12.990  0.4144 -0.0552 -0.2563
14157TIP3    H163962   2.266   4.885  12.953  2.8630 -2.3173  1.9669
14157TIP3    H263963   2.147   4.800  12.915  1.2316  1.2292 -1.4936
14158TIP3   OH263964   2.115   1.110   0.396 -0.1616 -0.4200  0.5171
14158TIP3    H163965   2.064   1.150   0.326 -0.3051 -1.3048  0.0955
14158TIP3    H263966   2.051   1.089   0.464  0.0587  0.9839  1.2098
14159TIP3   OH263967   4.623   3.802  13.256  0.1300 -0.0146  0.5142
14159TIP3    H163968   4.630   3.887  13.298 -0.1814  0.8683 -1.1305
14159TIP3    H263969   4.616   3.822  13.162  2.4691 -1.9240 -0.1694
14160TIP3   OH263970   3.544   0.929   1.956 -0.5013  0.7164 -0.0182
14160TIP3    H163971   3.452   0.944   1.975 -1.5628 -1.6440 -2.5806
14160TIP3    H263972   3.570   0.856   2.013 -1.0464 -0.3561 -1.0951
14161TIP3   OH263973   2.809   2.561   0.885  0.3882 -0.1361 -0.4126
14161TIP3    H163974   2.805   2.486   0.826 -0.3297 -0.4698  0.0476
14161TIP3    H263975   2.731   2.553   0.940 -0.4370  1.6379 -1.2036
14162TIP3   OH263976   4.857   3.006  15.826  0.8039 -1.0276 -0.2374
14162TIP3    H163977   4.800   3.074  15.790  1.0091 -1.4900 -1.4744
14162TIP3    H263978   4.856   3.022  15.921  0.6507  0.5368 -0.4723
14163TIP3   OH263979   0.385   6.361  15.984 -0.1561 -0.4197 -0.3197
14163TIP3    H163980   0.442   6.409  16.044 -0.1281 -2.2209  1.2234
14163TIP3    H263981   0.298   6.398  16.000 -0.0761 -0.5629  0.5312
14164TIP3   OH263982   6.327   5.788  10.384  0.3125  0.7063 -0.1278
14164TIP3    H163983   6.327   5.693  10.375  0.0857  0.5888  0.9823
14164TIP3    H263984   6.415   5.809  10.415  0.3517  0.8590 -0.3396
14165TIP3   OH263985   6.040   6.734   5.938 -0.4282  0.2380  0.1330
14165TIP3    H163986   6.077   6.707   6.023 -1.9405  0.8063  1.0241
14165TIP3    H263987   6.006   6.822   5.954  0.2735  0.8247 -1.4188
14166TIP3   OH263988   1.668   3.597  16.233  0.3425  0.3391  0.4170
14166TIP3    H163989   1.685   3.541  16.158  0.0017  1.1580 -0.2813
14166TIP3    H263990   1.745   3.586  16.289  0.2396 -0.8794  0.3386
14167TIP3   OH263991   3.733   4.669  14.755 -0.6064 -0.3577  0.1941
14167TIP3    H163992   3.776   4.720  14.823 -0.2521  0.0867 -0.3566
14167TIP3    H263993   3.805   4.632  14.703 -0.8649 -0.9762  0.2633
14168TIP3   OH263994   3.138   0.433   3.281  0.7663 -0.2336 -0.0220
14168TIP3    H163995   3.158   0.474   3.197  0.1696  0.2152  0.0505
14168TIP3    H263996   3.156   0.500   3.346 -1.5911  0.4746  0.0097
14169TIP3   OH263997   1.344   2.464   0.557 -0.8050  0.1657 -0.3154
14169TIP3    H163998   1.369   2.551   0.586  1.8626 -0.9956  1.2168
14169TIP3    H263999   1.269   2.441   0.612 -0.2207  0.7280  0.7532
14170TIP3   OH264000   4.369   6.624   4.023  0.3788 -0.1142  0.4444
14170TIP3    H164001   4.322   6.550   4.061  0.7882 -0.3670  0.4699
14170TIP3    H264002   4.306   6.666   3.965 -0.0867 -0.0539  0.9787
14171TIP3   OH264003   3.439   5.351   3.657 -0.7423 -0.0794 -0.0570
14171TIP3    H164004   3.517   5.306   3.625  0.1265  0.8848  0.6598
14171TIP3    H264005   3.374   5.337   3.588  0.0945 -0.7863 -0.7283
14172TIP3   OH264006   3.239   0.196   6.272  0.1668 -0.4182 -0.4139
14172TIP3    H164007   3.255   0.276   6.322 -0.5416 -0.3766 -0.2340
14172TIP3    H264008   3.320   0.181   6.223  0.8586 -0.4383  0.7112
14173TIP3   OH264009   2.867   3.673  13.151 -0.4457 -0.0580  0.1237
14173TIP3    H164010   2.918   3.637  13.078 -0.0444 -3.2093  1.7998
14173TIP3    H264011   2.776   3.653  13.130 -0.3667 -0.5776  0.2597
14174TIP3   OH264012   6.139   0.602   2.643 -0.0030 -0.4419  0.3265
14174TIP3    H164013   6.165   0.647   2.723 -0.0231 -0.7801  0.5273
14174TIP3    H264014   6.063   0.550   2.669 -0.5759  0.1536 -0.1339
14175TIP3   OH264015   0.470   3.057  10.544  0.0307 -0.2451 -0.1363
14175TIP3    H164016   0.406   3.106  10.493  1.4537  1.2277 -0.5900
14175TIP3    H264017   0.421   2.982  10.578 -1.8155  0.6023 -0.7825
14176TIP3   OH264018   1.826   3.975  13.551  0.5407  0.6315 -0.7798
14176TIP3    H164019   1.825   3.898  13.607 -1.4235  3.1054  3.0200
14176TIP3    H264020   1.747   3.967  13.498 -0.9121  0.9484  1.2172
14177TIP3   OH264021   0.984   4.639   1.492  0.6478 -0.1109  0.6744
14177TIP3    H164022   1.025   4.726   1.487  0.5447 -0.0134  1.4070
14177TIP3    H264023   0.964   4.617   1.401  0.3083  0.8147  0.5060
14178TIP3   OH264024   3.443   5.861   1.989  0.1003  0.2857  0.1342
14178TIP3    H164025   3.395   5.843   2.070  2.6865 -0.1347  1.7096
14178TIP3    H264026   3.457   5.955   1.991 -0.3599  0.3633 -0.1614
14179TIP3   OH264027   2.103   0.562   0.787  0.3189 -0.1908 -0.4290
14179TIP3    H164028   2.172   0.554   0.852 -0.8265 -3.7975  0.5921
14179TIP3    H264029   2.042   0.626   0.824  1.2710  0.2132  0.4667
14180TIP3   OH264030   1.687   1.393  14.969  0.0396  0.4698 -0.4889
14180TIP3    H164031   1.619   1.434  14.916 -2.1735 -1.2255  0.8452
14180TIP3    H264032   1.737   1.341  14.907 -1.3182 -0.0180 -1.2280
14181TIP3   OH264033   4.089   3.410   2.779 -0.0316 -0.4645 -0.0618
14181TIP3    H164034   4.091   3.353   2.856  1.0065 -0.5791 -0.1521
14181TIP3    H264035   4.168   3.463   2.786 -0.6712  0.5516 -0.2990
14182TIP3   OH264036   5.772   2.638   0.636 -0.2527 -0.2359  0.3823
14182TIP3    H164037   5.788   2.550   0.671  2.2891 -0.7904 -1.8038
14182TIP3    H264038   5.848   2.655   0.580 -2.1858  2.0710 -1.7671
14183TIP3   OH264039   2.642   4.104   2.341  0.0481 -0.1181  0.4770
14183TIP3    H164040   2.599   4.026   2.307 -0.1263 -0.0968  0.6444
14183TIP3    H264041   2.575   4.173   2.335 -0.2626 -0.2955  1.6050
14184TIP3   OH264042   5.614   2.610   5.008  0.5092  0.6266 -0.4162
14184TIP3    H164043   5.557   2.624   5.084  0.9145  0.1504 -0.0142
14184TIP3    H264044   5.686   2.558   5.042  1.1769  1.1994 -0.9241
14185TIP3   OH264045   1.932   2.326   1.870 -0.1263  0.1555  0.3369
14185TIP3    H164046   1.860   2.334   1.933 -0.1029 -0.2143  0.4129
14185TIP3    H264047   1.985   2.404   1.883 -0.5551  0.4652  0.2309
14186TIP3   OH264048   3.498   3.937   3.270 -0.0204  0.5556 -0.3906
14186TIP3    H164049   3.442   3.861   3.258  1.7612 -1.0196  0.5733
14186TIP3    H264050   3.552   3.941   3.191  0.5596  0.1961 -0.0201
14187TIP3   OH264051   1.086   2.568  16.925  0.4933  0.1308  0.3406
14187TIP3    H164052   1.053   2.511  16.856  0.9376  0.5222 -0.1999
14187TIP3    H264053   1.052   2.530  17.006  0.2726 -0.5351 -0.0621
14188TIP3   OH264054   4.143   6.740   2.645 -0.5698  0.6169 -0.2093
14188TIP3    H164055   4.219   6.795   2.625 -0.7359  1.5929  1.6242
14188TIP3    H264056   4.111   6.773   2.729 -3.4244  0.6860 -1.2014
14189TIP3   OH264057   4.029   1.569   2.390 -0.1726 -0.1126  0.0519
14189TIP3    H164058   4.123   1.583   2.385 -0.2307  0.9450  1.3295
14189TIP3    H264059   3.999   1.572   2.299  1.0457 -0.7547 -0.3965
14190TIP3   OH264060   3.338   1.358   0.029 -0.3125  0.1793  0.7518
14190TIP3    H164061   3.314   1.439  -0.015 -0.6142 -1.2217 -1.8374
14190TIP3    H264062   3.425   1.337  -0.004 -0.7035 -1.1147  0.4949
14191TIP3   OH264063   5.754   4.597  12.914 -0.1600 -0.2081 -0.2366
14191TIP3    H164064   5.757   4.663  12.983 -0.9097 -0.9332  0.5072
14191TIP3    H264065   5.704   4.637  12.843  1.7782  1.0725 -0.9805
14192TIP3   OH264066   2.863   0.028   4.877  0.2488  0.0649 -0.4558
14192TIP3    H164067   2.831  -0.058   4.849  0.9332  0.0207 -1.1324
14192TIP3    H264068   2.916   0.059   4.803 -0.8294  1.5219 -0.6476
14193TIP3   OH264069   2.730   5.541  16.822 -0.8363  0.4473  0.0749
14193TIP3    H164070   2.725   5.479  16.749 -0.4797  1.9630 -1.3095
14193TIP3    H264071   2.822   5.567  16.825 -1.2315  2.0305 -0.3991
14194TIP3   OH264072   5.725   1.761  16.735 -0.3464 -0.1434  0.4683
14194TIP3    H164073   5.702   1.681  16.782 -0.1104 -1.1808 -1.0916
14194TIP3    H264074   5.800   1.736  16.681  1.5756  1.9306  2.0477
14195TIP3   OH264075   2.835   3.441  11.015  0.5931  0.7770 -0.3233
14195TIP3    H164076   2.866   3.373  11.074 -1.8446  0.3586  0.5645
14195TIP3    H264077   2.897   3.439  10.941 -0.1857 -3.4274 -1.0827
14196TIP3   OH264078   6.256   3.280   0.190  0.2215 -0.2405 -0.8317
14196TIP3    H164079   6.348   3.286   0.217  0.5510 -1.8204 -1.4882
14196TIP3    H264080   6.248   3.346   0.121  0.3516  1.1936  0.4747
14197TIP3   OH264081   1.774   2.009   0.097  0.1840 -0.0237 -0.0426
14197TIP3    H164082   1.715   1.951   0.144 -0.8199 -0.2155 -1.4847
14197TIP3    H264083   1.860   1.994   0.138 -0.6617  0.0194  1.8541
14198TIP3   OH264084   3.763   5.668  12.813 -0.1848 -0.6443 -0.5908
14198TIP3    H164085   3.681   5.663  12.862 -0.6256  0.4198 -1.1968
14198TIP3    H264086   3.815   5.733  12.861 -0.3034 -0.1930 -1.0708
14199TIP3   OH264087   6.837   4.973   1.053 -0.5462  0.2132  0.6261
14199TIP3    H164088   6.881   4.912   1.112  0.7542  0.3465 -0.1574
14199TIP3    H264089   6.863   4.944   0.965  0.7424  2.3286  0.2384
14200TIP3   OH264090   4.166   6.666  12.744  0.5241 -0.0773  1.3001
14200TIP3    H164091   4.210   6.661  12.659  0.9807 -1.5606  1.6010
14200TIP3    H264092   4.230   6.707  12.802  0.2334  0.8836  0.9600
14201TIP3   OH264093   5.089   3.510  16.158  0.1367 -0.3734 -0.3018
14201TIP3    H164094   5.163   3.562  16.128 -0.3057  0.8779  0.6646
14201TIP3    H264095   5.057   3.557  16.236 -0.7015 -1.7349  0.2074
14202TIP3   OH264096   5.906   6.430   5.635  0.2276  0.2951  0.5033
14202TIP3    H164097   5.928   6.523   5.633  0.5041  0.2238 -0.3724
14202TIP3    H264098   5.828   6.425   5.690  1.2886  0.7938  2.0955
14203TIP3   OH264099   3.341   6.462  16.151  0.5119  0.0052  0.0590
14203TIP3    H164100   3.363   6.419  16.068 -1.3172 -2.3562  0.6681
14203TIP3    H264101   3.383   6.407  16.218 -1.1672 -0.4187  0.8341
14204TIP3   OH264102   4.948   3.403  13.105  0.5689 -0.0430 -0.2241
14204TIP3    H164103   5.017   3.424  13.042  1.0903 -0.6984  0.1217
14204TIP3    H264104   4.926   3.311  13.087  1.6742 -0.6678  1.4282
14205TIP3   OH264105   2.602   6.008   0.789  0.4396  0.4793  0.1329
14205TIP3    H164106   2.590   5.974   0.700  1.8635  0.0391  0.0876
14205TIP3    H264107   2.656   5.942   0.833 -0.4030  0.5880  1.4025
14206TIP3   OH264108   5.484   1.039   6.381  0.4134  0.2712 -0.5622
14206TIP3    H164109   5.533   0.970   6.425  0.6027  0.5415 -0.3391
14206TIP3    H264110   5.393   1.024   6.406  0.4943  0.2957 -0.2450
14207TIP3   OH264111   0.155   3.774  16.372  0.5990 -0.3042  0.3652
14207TIP3    H164112   0.227   3.806  16.425 -0.3971  1.2410  0.8493
14207TIP3    H264113   0.124   3.850  16.324  0.4148 -1.3197 -1.2183
14208TIP3   OH264114   0.789   5.510  13.421  0.1356 -0.0129 -0.5787
14208TIP3    H164115   0.757   5.566  13.492 -1.1218 -1.3527 -0.0273
14208TIP3    H264116   0.801   5.424  13.462  0.3658 -0.5643 -1.7607
14209TIP3   OH264117   0.584   6.781   6.063  0.0185 -0.3702 -0.0348
14209TIP3    H164118   0.673   6.796   6.095 -0.2296 -0.6791  0.8454
14209TIP3    H264119   0.528   6.810   6.135 -0.5862 -0.3263 -0.5181
14210TIP3   OH264120   4.959   1.723  14.472 -0.5452  0.6585  0.5107
14210TIP3    H164121   4.958   1.808  14.428 -0.8905  0.7134  0.6217
14210TIP3    H264122   4.918   1.663  14.410  1.5090  0.1267 -0.4297
14211TIP3   OH264123   5.217   2.582  15.097 -0.4871 -0.2945  0.3705
14211TIP3    H164124   5.122   2.586  15.089 -0.4773 -1.9273 -1.5911
14211TIP3    H264125   5.233   2.511  15.158 -0.5402 -0.4762  0.1754
14212TIP3   OH264126   1.590   3.164  12.738 -0.1728  0.3538 -0.3363
14212TIP3    H164127   1.496   3.151  12.746 -0.0801  0.3474  1.1297
14212TIP3    H264128   1.600   3.256  12.712 -0.5732  0.7329  0.7759
14213TIP3   OH264129   5.524   1.605   4.468  0.3920  0.1531  0.3678
14213TIP3    H164130   5.558   1.615   4.379  1.0305 -0.6865  0.5066
14213TIP3    H264131   5.442   1.655   4.468  0.1593 -0.2022 -0.8180
14214TIP3   OH264132   6.503   5.046  15.526  0.7384 -0.2103 -0.3898
14214TIP3    H164133   6.416   5.014  15.550 -0.5653  0.9287 -3.2243
14214TIP3    H264134   6.562   4.973  15.548 -0.9972 -1.3148  0.8729
14215TIP3   OH264135   3.524   0.672  13.005 -0.4238  0.0310 -0.1626
14215TIP3    H164136   3.438   0.709  12.985  0.3274  1.9181 -0.0779
14215TIP3    H264137   3.558   0.725  13.077  0.4523 -1.2559  0.4151
14216TIP3   OH264138   1.986   0.908   1.946  0.2940 -0.5103 -0.5301
14216TIP3    H164139   2.065   0.881   1.901 -0.0413 -1.3723 -0.6186
14216TIP3    H264140   1.931   0.829   1.949 -1.3259  0.4814 -2.0753
14217TIP3   OH264141   5.028   4.598   3.456 -0.2762 -0.0510 -0.0246
14217TIP3    H164142   5.120   4.593   3.430  0.3210  0.3800  1.8147
14217TIP3    H264143   5.013   4.518   3.507 -0.8243  0.0651  0.0075
14218TIP3   OH264144   2.071   0.020  15.559  0.3509 -0.1828  0.0305
14218TIP3    H164145   2.119  -0.001  15.479  0.8183 -1.9534  0.7315
14218TIP3    H264146   2.102   0.107  15.583 -0.8253  1.0126 -2.4108
14219TIP3   OH264147   2.753   6.017  16.519 -0.0019  0.3456 -0.3168
14219TIP3    H164148   2.671   5.969  16.530  0.0945  0.4905  1.2101
14219TIP3    H264149   2.796   5.973  16.446 -0.7654 -0.6858 -0.1740
14220TIP3   OH264150   1.480   4.085   6.222  0.2867  0.3792  0.0427
14220TIP3    H164151   1.505   4.042   6.304 -1.6362  0.8219  0.9205
14220TIP3    H264152   1.480   4.015   6.157  3.2504  0.2618  0.0108
14221TIP3   OH264153   6.542   5.460  16.971  0.1952 -0.0350 -0.0309
14221TIP3    H164154   6.634   5.453  16.945  0.2514 -1.4648  0.4894
14221TIP3    H264155   6.536   5.411  17.053 -1.1761 -0.5713 -0.4225
14222TIP3   OH264156   0.897   3.979   4.199 -0.3117 -0.0506  0.1466
14222TIP3    H164157   0.882   4.039   4.272  1.3088  0.6340 -0.0386
14222TIP3    H264158   0.871   4.028   4.121 -0.0433  0.0104  0.0931
14223TIP3   OH264159   2.661   5.370  15.535  0.2284  0.3390  0.0873
14223TIP3    H164160   2.735   5.328  15.492 -0.0663  0.5838 -0.6740
14223TIP3    H264161   2.637   5.310  15.606  0.7250 -0.0644 -0.0850
14224TIP3   OH264162   5.857   0.616  15.124 -0.0515  0.3562  0.2096
14224TIP3    H164163   5.798   0.542  15.137  0.8197 -0.3915 -0.0219
14224TIP3    H264164   5.907   0.594  15.045  0.9419  0.7121  0.7244
14225TIP3   OH264165   3.409   6.634   4.933  0.2663 -0.5038 -0.8953
14225TIP3    H164166   3.315   6.630   4.953  0.2498  0.3299 -0.7899
14225TIP3    H264167   3.447   6.683   5.006  0.5099  0.7314 -1.8287
14226TIP3   OH264168   3.659   0.880   0.981 -0.4826 -0.2757  0.2775
14226TIP3    H164169   3.599   0.929   1.037 -0.9922 -1.2934  0.6375
14226TIP3    H264170   3.697   0.813   1.038 -0.8637 -1.2082 -0.5328
14227TIP3   OH264171   0.459   5.787  16.298  0.3046 -0.4130  0.0634
14227TIP3    H164172   0.530   5.849  16.284  0.4629 -0.1203  1.9187
14227TIP3    H264173   0.381   5.832  16.266  0.7986 -0.4100 -1.2178
14228TIP3   OH264174   3.306   1.988  15.949 -0.5704 -0.0686 -0.0765
14228TIP3    H164175   3.277   1.909  15.994  1.0800 -1.1727 -0.8504
14228TIP3    H264176   3.252   2.058  15.987 -1.1357 -1.3364  1.6164
14229TIP3   OH264177   3.872   3.800  15.002  0.2845  0.1436 -0.1336
14229TIP3    H164178   3.777   3.801  15.014  0.0553  0.2335 -1.7333
14229TIP3    H264179   3.903   3.880  15.043 -0.1262 -0.5857  1.7022
14230TIP3   OH264180   4.898   3.634  13.336  0.1109 -0.5627 -0.3357
14230TIP3    H164181   4.900   3.726  13.311  0.9639 -0.3401  0.5047
14230TIP3    H264182   4.848   3.632  13.418 -1.0049 -1.0335 -0.9972
14231TIP3   OH264183   1.211   1.773   0.090 -0.2301  0.6759 -0.6714
14231TIP3    H164184   1.206   1.682   0.120 -1.4476  0.5872 -1.1183
14231TIP3    H264185   1.298   1.802   0.118 -0.0850 -0.4112  0.0710
14232TIP3   OH264186   1.987   2.796  11.014 -0.0943  0.5268 -0.1006
14232TIP3    H164187   1.966   2.715  10.968 -0.1996  0.9822 -0.8720
14232TIP3    H264188   2.019   2.768  11.099 -1.1256 -0.2833  0.0287
14233TIP3   OH264189   3.736   0.422  16.334  0.5195  0.0222 -0.9369
14233TIP3    H164190   3.829   0.400  16.324  0.5681 -0.9207  1.0307
14233TIP3    H264191   3.715   0.393  16.423 -1.9897 -0.9325 -1.7768
14234TIP3   OH264192   5.821   0.959   0.868  0.4033 -0.5776 -0.1005
14234TIP3    H164193   5.887   0.958   0.938 -0.5682  0.1160  0.8527
14234TIP3    H264194   5.761   0.888   0.891  0.1304 -0.4004 -0.2671
14235TIP3   OH264195   3.512   0.374  12.300  0.3738  0.0868  0.7600
14235TIP3    H164196   3.537   0.420  12.220  1.0557 -0.9956  0.3276
14235TIP3    H264197   3.520   0.440  12.369 -1.4241  1.3989 -0.1875
14236TIP3   OH264198   1.009   0.371   2.270  0.0362  0.2687 -0.3681
14236TIP3    H164199   1.009   0.457   2.313 -2.1692 -0.1510  0.6242
14236TIP3    H264200   1.043   0.389   2.182  1.6422  1.7325  0.4933
14237TIP3   OH264201   6.340   0.626   0.995 -0.4570 -0.0678  0.4537
14237TIP3    H164202   6.301   0.598   0.913 -0.4184 -0.0796  0.4393
14237TIP3    H264203   6.360   0.544   1.041  0.6679 -0.0984 -0.0557
14238TIP3   OH264204   5.722   6.498  12.323 -0.6634  0.3259 -0.6534
14238TIP3    H164205   5.805   6.484  12.369 -0.6866 -0.2325 -0.7727
14238TIP3    H264206   5.664   6.535  12.389 -0.3597  0.5827 -0.5315
14239TIP3   OH264207   1.195   1.115  12.085  0.4912  0.4763 -0.0833
14239TIP3    H164208   1.226   1.032  12.048 -0.5919 -0.8894  1.8692
14239TIP3    H264209   1.234   1.182  12.030  1.6782 -1.3179 -1.5482
14240TIP3   OH264210   1.633   3.337   1.023  0.5798  0.1706 -0.0785
14240TIP3    H164211   1.651   3.333   0.930  0.9866  0.2661 -0.0025
14240TIP3    H264212   1.642   3.247   1.054  1.1832  0.2579  0.0075
14241TIP3   OH264213   2.969   5.155   1.608 -0.0217 -0.1369 -0.0986
14241TIP3    H164214   2.905   5.139   1.677 -0.1249  1.1626  0.1458
14241TIP3    H264215   2.926   5.128   1.527  0.5658 -2.8812  0.4275
14242TIP3   OH264216   6.521   1.873   6.153  0.0780 -0.1646 -0.3697
14242TIP3    H164217   6.492   1.782   6.146  1.9613 -1.0775  2.0762
14242TIP3    H264218   6.616   1.869   6.141  0.0908  1.6379 -1.1396
14243TIP3   OH264219   4.729   6.484   6.197  0.1825  0.0034  0.0197
14243TIP3    H164220   4.760   6.435   6.274 -0.5159  1.6042  1.3967
14243TIP3    H264221   4.656   6.433   6.164  0.4492 -0.6872  0.4535
14244TIP3   OH264222   5.890   1.447  12.189  0.2658  0.8458  0.1255
14244TIP3    H164223   5.927   1.377  12.242 -0.6727 -0.0857 -0.3979
14244TIP3    H264224   5.837   1.499  12.250  0.5320  0.7807  0.4121
14245TIP3   OH264225   2.153   4.054  15.049  0.2391 -0.2691 -0.1707
14245TIP3    H164226   2.222   3.988  15.043  0.0660 -0.3279 -2.0670
14245TIP3    H264227   2.114   4.057  14.962 -0.5120  1.5404  0.1648
14246TIP3   OH264228   2.857   3.881   3.727  0.3303  0.3238  0.7437
14246TIP3    H164229   2.905   3.894   3.809 -0.8089 -0.8214  1.6348
14246TIP3    H264230   2.774   3.927   3.740  0.1928  0.2416  0.1836
14247TIP3   OH264231   5.416   3.252   5.177 -0.5597 -0.2873  0.1753
14247TIP3    H164232   5.467   3.316   5.127 -0.2317  1.0933  2.1998
14247TIP3    H264233   5.482   3.198   5.220 -0.8415 -0.3908  0.4773
14248TIP3   OH264234   0.858   4.724   0.252  0.4874 -0.1293  0.4002
14248TIP3    H164235   0.906   4.649   0.288  0.6943 -0.1765  0.0309
14248TIP3    H264236   0.924   4.774   0.205  0.6407  1.0114  1.7382
14249TIP3   OH264237   1.241   1.256  12.310  0.6107  0.2920 -0.0540
14249TIP3    H164238   1.223   1.347  12.287  2.2566  0.9032  0.9150
14249TIP3    H264239   1.225   1.208  12.229 -1.1214  1.2884 -0.3585
14250TIP3   OH264240   6.745   5.925   3.342 -0.2933  0.2077  0.1233
14250TIP3    H164241   6.736   5.944   3.435  0.4033  2.2954 -0.1832
14250TIP3    H264242   6.839   5.910   3.330 -0.5055 -1.0998 -0.1031
14251TIP3   OH264243   2.882   5.502  12.602  0.0603  0.4027  0.3860
14251TIP3    H164244   2.943   5.549  12.658  0.6209 -0.0379  0.1545
14251TIP3    H264245   2.894   5.410  12.625  1.7352 -0.0169 -1.7885
14252TIP3   OH264246   2.264   5.461  16.277  0.2152 -0.1483 -0.3742
14252TIP3    H164247   2.298   5.404  16.346  1.1663 -2.0871 -2.3109
14252TIP3    H264248   2.342   5.508  16.245  0.1507 -0.6273 -1.2860
14253TIP3   OH264249   4.970   3.462   2.436  0.0655 -0.2528  0.4671
14253TIP3    H164250   4.877   3.442   2.450 -0.1499 -0.9434 -1.5767
14253TIP3    H264251   4.983   3.451   2.342  1.9945  0.8856  0.5419
14254TIP3   OH264252   2.449   3.743  14.186  0.0845 -0.3860 -0.2048
14254TIP3    H164253   2.384   3.743  14.116 -1.0531  0.8340  0.7924
14254TIP3    H264254   2.496   3.826  14.176 -2.8708  1.9616  2.7858
14255TIP3   OH264255   3.317   2.415  12.428 -0.4645  0.1527  0.0414
14255TIP3    H164256   3.403   2.455  12.439  1.0201 -2.9372  0.8852
14255TIP3    H264257   3.327   2.326  12.462 -4.2343 -0.1254  0.9486
14256TIP3   OH264258   2.765   2.603  14.465  0.0428 -0.2445 -0.3076
14256TIP3    H164259   2.769   2.512  14.494  0.4512  0.2930  1.4489
14256TIP3    H264260   2.678   2.613  14.428  0.1763 -1.4670 -1.0095
14257TIP3   OH264261   2.028   0.043   0.059  0.1134  0.1024 -0.3238
14257TIP3    H164262   2.121   0.037   0.037 -0.4106  0.3559 -2.8952
14257TIP3    H264263   2.008   0.136   0.053 -0.5506 -0.0747 -1.0259
14258TIP3   OH264264   5.658   0.518   3.140  0.6458  0.3620 -0.7540
14258TIP3    H164265   5.710   0.482   3.068  0.9954 -1.0130  0.1500
14258TIP3    H264266   5.576   0.469   3.137  1.0614 -0.4476  0.3890
14259TIP3   OH264267   5.688   5.632  11.953 -0.0760  0.1148 -0.3759
14259TIP3    H164268   5.650   5.618  12.040  0.0100  0.3884 -0.2950
14259TIP3    H264269   5.771   5.584  11.956  0.9391  1.8347  0.4136
14260TIP3   OH264270   4.889   0.657  13.066  0.4316  0.2168 -0.4081
14260TIP3    H164271   4.852   0.706  13.139 -1.9025 -0.9479 -0.7228
14260TIP3    H264272   4.921   0.576  13.106  1.6536  0.7186 -0.3192
14261TIP3   OH264273   6.227   0.548  15.673 -0.8743 -0.0046 -0.2036
14261TIP3    H164274   6.286   0.608  15.719 -1.2573 -0.8724  1.5103
14261TIP3    H264275   6.205   0.482  15.738 -0.8812 -1.7418 -1.8925
14262TIP3   OH264276   4.461   2.223  11.870  0.2919 -0.7915 -0.2548
14262TIP3    H164277   4.418   2.268  11.797  0.4317 -2.5170 -1.4547
14262TIP3    H264278   4.551   2.254  11.867 -0.0231  0.1895  0.0694
14263TIP3   OH264279   2.777   2.072   4.587 -0.0841  0.1425 -0.3158
14263TIP3    H164280   2.699   2.066   4.642  1.8761 -0.1492  2.6789
14263TIP3    H264281   2.803   1.981   4.572 -0.3146  0.2357 -1.3667
14264TIP3   OH264282   1.479   3.810  15.569  0.0423 -0.5605  0.1158
14264TIP3    H164283   1.463   3.719  15.595 -1.7524  0.0214  1.2129
14264TIP3    H264284   1.569   3.827  15.596 -0.1889 -1.4686  1.5874
14265TIP3   OH264285   3.325   4.481   2.986 -1.2951 -0.2162  0.3117
14265TIP3    H164286   3.381   4.444   3.055 -0.9208  0.2180  0.2491
14265TIP3    H264287   3.328   4.575   3.003 -1.2594 -0.1158 -0.2564
14266TIP3   OH264288   5.441   0.793   1.948 -0.2573 -0.4904  0.4702
14266TIP3    H164289   5.404   0.822   2.031 -1.1297  0.0075 -0.0751
14266TIP3    H264290   5.371   0.742   1.907  1.0012 -2.8632  1.1055
14267TIP3   OH264291   4.671   6.153  13.893 -0.2775 -0.1751 -0.1169
14267TIP3    H164292   4.749   6.133  13.945  0.0409  1.1375 -0.0563
14267TIP3    H264293   4.678   6.247  13.875 -2.8224  0.4302  1.5378
14268TIP3   OH264294   0.922   5.164   1.995 -0.7312  0.2861  0.4299
14268TIP3    H164295   0.982   5.092   1.975 -1.7467 -0.6620  0.6751
14268TIP3    H264296   0.924   5.170   2.090 -1.7828 -0.4452  0.5113
14269TIP3   OH264297   2.781   4.938  16.822 -0.0884  0.6012 -0.4839
14269TIP3    H164298   2.782   5.019  16.770  0.3492  0.3908 -0.8109
14269TIP3    H264299   2.713   4.953  16.887 -0.6257  0.8916 -1.0921
14270TIP3   OH264300   1.118   6.544   5.969  0.0191  0.2496  0.0831
14270TIP3    H164301   1.148   6.455   5.954  1.5896  1.1348 -2.5919
14270TIP3    H264302   1.036   6.534   6.018 -0.0061 -2.6403 -0.4013
14271TIP3   OH264303   0.396   3.248  12.628  0.2625 -0.7289  0.5422
14271TIP3    H164304   0.373   3.297  12.550  0.7471  0.7137  1.2692
14271TIP3    H264305   0.385   3.310  12.700  0.4821 -1.8115  1.5559
14272TIP3   OH264306   1.802   3.951   5.914  0.2353  0.2431  0.0528
14272TIP3    H164307   1.787   4.030   5.966  0.3125 -0.2710  0.8715
14272TIP3    H264308   1.894   3.929   5.928  0.0699 -0.3222  0.3203
14273TIP3   OH264309   6.487   2.995   3.251 -0.2582  0.2981 -0.0389
14273TIP3    H164310   6.494   3.056   3.324  0.0840  1.4262 -0.9809
14273TIP3    H264311   6.547   2.924   3.273  0.2754  0.9073  0.5054
14274TIP3   OH264312   3.950   6.651   6.132 -0.3098  0.4075  0.0797
14274TIP3    H164313   3.930   6.626   6.042 -0.8063  1.7210 -0.1952
14274TIP3    H264314   3.872   6.627   6.182 -0.5582  0.8649 -0.0813
14275TIP3   OH264315   5.923   6.693  15.125  0.1782 -0.3462  0.0034
14275TIP3    H164316   5.936   6.599  15.113  2.1296 -0.2230  0.7301
14275TIP3    H264317   5.888   6.724  15.042 -1.6041 -1.8710  0.1384
14276TIP3   OH264318   1.908   5.316  11.063  0.6436  0.5842 -0.4160
14276TIP3    H164319   1.967   5.359  11.001  0.7647 -1.0577 -1.5043
14276TIP3    H264320   1.921   5.222  11.047 -1.4737  0.1614  0.0568
14277TIP3   OH264321   4.219   3.337  13.074 -0.4694 -0.0609  0.0220
14277TIP3    H164322   4.217   3.406  13.007  1.1838 -1.6547 -1.7616
14277TIP3    H264323   4.151   3.275  13.047 -0.7002 -0.0655  0.5939
14278TIP3   OH264324   4.743   5.623   2.746 -0.8548  0.3896 -0.4088
14278TIP3    H164325   4.776   5.671   2.822  0.7210 -0.8839 -0.2178
14278TIP3    H264326   4.736   5.689   2.677  1.2702  0.9483 -0.1660
14279TIP3   OH264327   2.083   3.365   1.898  0.3459  0.5238 -0.2781
14279TIP3    H164328   2.066   3.341   1.989 -3.4006  4.2060  0.3253
14279TIP3    H264329   2.168   3.408   1.899 -0.0305  1.3306  1.7449
14280TIP3   OH264330   4.968   1.606   5.672  0.2032  0.2547 -0.0372
14280TIP3    H164331   5.043   1.567   5.717  0.2001  0.5432  0.2237
14280TIP3    H264332   4.964   1.696   5.706  0.1147  0.4327 -0.5073
14281TIP3   OH264333   2.339   3.014  12.998 -0.2427  0.2639  0.3944
14281TIP3    H164334   2.279   3.080  13.034  0.1755  0.5922  0.4951
14281TIP3    H264335   2.334   3.027  12.903 -2.7381 -1.7951  0.1318
14282TIP3   OH264336   5.127   2.734   3.631 -0.5200  0.4020  0.2351
14282TIP3    H164337   5.103   2.642   3.641 -1.1617  0.2638 -1.9907
14282TIP3    H264338   5.217   2.733   3.601 -0.4241  0.5253  0.5120
14283TIP3   OH264339   3.661   4.191   1.872 -0.3445 -0.6485 -0.0033
14283TIP3    H164340   3.731   4.202   1.807 -0.1129 -1.4782  0.0844
14283TIP3    H264341   3.687   4.247   1.945 -0.1324 -0.4182 -0.2521
14284TIP3   OH264342   1.758   1.248   3.553  0.0230  1.0496 -0.8399
14284TIP3    H164343   1.810   1.321   3.586 -1.5253  1.3680  1.0270
14284TIP3    H264344   1.715   1.212   3.630 -2.0383  0.4149 -2.2145
14285TIP3   OH264345   3.471   0.178  10.888  0.1282 -0.0580 -0.0472
14285TIP3    H164346   3.479   0.158  10.981  0.8946  4.6454  1.1734
14285TIP3    H264347   3.378   0.165  10.868  0.1964 -2.4437  0.8767
14286TIP3   OH264348   6.779   4.355   4.063 -0.0476 -0.1468 -0.0232
14286TIP3    H164349   6.695   4.400   4.051 -0.1025  0.0578  1.0231
14286TIP3    H264350   6.754   4.265   4.085  0.0229 -0.2648 -0.4277
14287TIP3   OH264351   0.280   3.796  15.775 -0.1385 -0.4541  0.6016
14287TIP3    H164352   0.191   3.825  15.796 -0.1152 -0.3125  0.5022
14287TIP3    H264353   0.267   3.720  15.718 -0.1886  0.1926 -0.2604
14288TIP3   OH264354   4.856   1.090   4.567  0.1201 -0.0331  0.0886
14288TIP3    H164355   4.853   1.150   4.492 -0.2892 -0.7888 -0.5100
14288TIP3    H264356   4.766   1.091   4.602 -0.1007 -0.9346 -0.4394
14289TIP3   OH264357   2.245   4.231   5.443 -0.1651  0.2812  0.2422
14289TIP3    H164358   2.247   4.327   5.448  0.3466  0.2378  1.2214
14289TIP3    H264359   2.312   4.203   5.505 -0.1899 -0.7152 -0.1636
14290TIP3   OH264360   3.204   5.964   2.817  0.4250 -0.1973  0.5749
14290TIP3    H164361   3.271   5.896   2.818 -0.6794 -1.3967  2.8094
14290TIP3    H264362   3.206   6.000   2.906 -3.0173 -1.6254  1.4256
14291TIP3   OH264363   4.568   6.117  12.906  0.3703  0.4098  0.0238
14291TIP3    H164364   4.568   6.165  12.989  2.2848  0.6424 -0.0787
14291TIP3    H264365   4.515   6.171  12.847  1.3242  1.6933  0.3135
14292TIP3   OH264366   5.149   3.050   1.761  0.6469  0.1991  0.3589
14292TIP3    H164367   5.222   3.013   1.711  1.9067 -0.7484  2.7469
14292TIP3    H264368   5.076   3.052   1.699  1.5550 -2.7682 -0.9804
14293TIP3   OH264369   5.329   1.218   2.234  0.3458 -0.1228 -0.3450
14293TIP3    H164370   5.303   1.243   2.322  1.0515  1.0524 -0.4494
14293TIP3    H264371   5.425   1.218   2.236  0.3799  0.7127 -1.3121
14294TIP3   OH264372   1.161   1.502   0.958  0.2676 -0.5375 -0.0199
14294TIP3    H164373   1.138   1.500   0.865  1.3894  0.7400 -0.3544
14294TIP3    H264374   1.256   1.492   0.960  0.6745  2.5919  0.7366
14295TIP3   OH264375   5.030   4.790   2.098 -0.8000 -0.3701  0.3370
14295TIP3    H164376   5.050   4.748   2.015  0.6464 -0.3082  0.6340
14295TIP3    H264377   5.115   4.805   2.139 -1.4547  0.1071  1.5820
14296TIP3   OH264378   4.302   5.162   4.975  0.0181  0.4010  0.3635
14296TIP3    H164379   4.310   5.098   5.046  1.8642  0.2597  0.0703
14296TIP3    H264380   4.221   5.209   4.995 -0.6262 -1.0513  1.3727
14297TIP3   OH264381   5.263   3.492  14.341 -0.2837 -0.6277  0.1688
14297TIP3    H164382   5.355   3.481  14.319 -0.1019  1.8728 -0.5980
14297TIP3    H264383   5.216   3.459  14.264  0.0304 -0.3765 -0.1294
14298TIP3   OH264384   5.662   3.949   5.530  0.0826 -0.4229  0.0912
14298TIP3    H164385   5.708   4.022   5.488  0.5817 -0.5045  0.4939
14298TIP3    H264386   5.704   3.940   5.615 -2.1277  0.9906  1.4595
14299TIP3   OH264387   6.004   2.805   3.251 -0.3317  0.9760 -0.1769
14299TIP3    H164388   6.034   2.875   3.192 -0.3432  1.2756  0.1659
14299TIP3    H264389   6.083   2.779   3.298 -0.3856  0.9702 -0.0892
14300TIP3   OH264390   3.851   6.461  14.223  0.3455  0.1610  0.0925
14300TIP3    H164391   3.796   6.464  14.302  2.2279 -0.1081  1.4814
14300TIP3    H264392   3.853   6.368  14.199 -0.3841  0.2672 -0.4213
14301TIP3   OH264393   1.728   6.457  15.120 -0.2722  0.5992 -0.0197
14301TIP3    H164394   1.632   6.463  15.124 -0.4100 -0.2180 -1.2843
14301TIP3    H264395   1.744   6.368  15.088  0.8714  1.0283 -0.6916
14302TIP3   OH264396   2.303   4.452  16.357  0.1336 -0.1484 -0.2034
14302TIP3    H164397   2.267   4.388  16.296  0.1327  0.4827 -0.8763
14302TIP3    H264398   2.228   4.480  16.410 -0.3885  1.1184 -1.5588
14303TIP3   OH264399   0.914   6.145  11.979  0.9948  0.7113 -0.0675
14303TIP3    H164400   0.821   6.166  11.990  1.1326  0.9625  0.7122
14303TIP3    H264401   0.949   6.217  11.927  0.7529  0.6209 -0.3568
14304TIP3   OH264402   1.674   1.116   3.863 -0.1719  0.0586 -0.0546
14304TIP3    H164403   1.737   1.046   3.843 -0.0404  0.0359  0.4403
14304TIP3    H264404   1.589   1.074   3.852 -0.1469 -1.0139  2.9475
14305TIP3   OH264405   2.438   4.404   0.976 -0.5557 -0.5614 -1.0664
14305TIP3    H164406   2.390   4.322   0.970 -0.6784 -0.7605  1.5688
14305TIP3    H264407   2.406   4.446   1.056 -0.5943  2.1629 -2.3822
14306TIP3   OH264408   2.820   4.538   4.249 -0.4361 -0.0725  0.0506
14306TIP3    H164409   2.916   4.544   4.244 -0.4163  0.3608  0.7830
14306TIP3    H264410   2.792   4.533   4.158  0.2744  0.0520 -0.1847
14307TIP3   OH264411   0.264   4.129   3.419 -0.2471  0.3557 -0.6345
14307TIP3    H164412   0.313   4.157   3.497  0.5263  1.0670 -1.3453
14307TIP3    H264413   0.331   4.117   3.352 -0.9542  0.3633 -1.3623
14308TIP3   OH264414   4.841   4.055  17.048  0.3703 -0.0018 -0.2059
14308TIP3    H164415   4.833   3.961  17.062 -0.4087  0.0282 -0.4034
14308TIP3    H264416   4.871   4.090  17.132  1.6974 -0.5355 -0.4285
14309TIP3   OH264417   6.209   5.171  10.647  0.2449 -0.9485 -0.0029
14309TIP3    H164418   6.266   5.241  10.677  0.7166 -2.0704  1.8440
14309TIP3    H264419   6.268   5.107  10.608  0.1088 -1.4685  0.6340
14310TIP3   OH264420   5.342   2.488   2.348 -0.2182 -0.3494  0.1981
14310TIP3    H164421   5.427   2.531   2.354 -0.3552 -0.1218  0.5622
14310TIP3    H264422   5.279   2.557   2.369 -0.4943 -0.5167 -0.0598
14311TIP3   OH264423   3.148   5.547   2.698 -0.0598 -0.2173 -0.4941
14311TIP3    H164424   3.064   5.511   2.669  0.5109 -1.3042 -0.8211
14311TIP3    H264425   3.195   5.472   2.734  0.1724  0.6604  1.1469
14312TIP3   OH264426   3.854   0.557   2.720  0.3197  0.1367 -0.0872
14312TIP3    H164427   3.812   0.493   2.662 -0.7281  0.2796  0.4844
14312TIP3    H264428   3.781   0.605   2.759  1.0299  0.4020  0.9455
14313TIP3   OH264429   6.297   1.700  15.337  0.0017 -0.1763  0.1658
14313TIP3    H164430   6.213   1.665  15.368 -0.5779 -2.3724 -3.3873
14313TIP3    H264431   6.353   1.623  15.326  1.2905  0.8624 -0.8601
14314TIP3   OH264432   4.035   2.160   3.140 -0.2674  0.3197 -0.0627
14314TIP3    H164433   4.098   2.194   3.205  0.7101  1.5588 -1.5762
14314TIP3    H264434   4.006   2.077   3.177  0.9660  0.5183  1.5141
14315TIP3   OH264435   2.881   6.585  12.579 -0.1478  0.0633 -0.3289
14315TIP3    H164436   2.965   6.551  12.607 -0.2369  1.0217  1.2393
14315TIP3    H264437   2.858   6.533  12.502  0.0030 -2.9687  1.5347
14316TIP3   OH264438   0.626   4.679  12.442  0.1026 -0.2411  0.2820
14316TIP3    H164439   0.720   4.667  12.453 -0.0163  0.1031  1.8611
14316TIP3    H264440   0.616   4.773  12.426 -0.1358  0.1888  2.6311
14317TIP3   OH264441   0.166   5.842   3.300  0.2093 -0.0219 -0.0925
14317TIP3    H164442   0.136   5.772   3.242 -1.7479  0.4383  0.3029
14317TIP3    H264443   0.245   5.876   3.258  0.4167 -1.5535 -0.9983
14318TIP3   OH264444   5.419   6.352  10.711  0.1036  0.5353 -0.1901
14318TIP3    H164445   5.410   6.436  10.666 -2.2567 -0.1136 -1.0384
14318TIP3    H264446   5.506   6.320  10.683  1.0232  2.6193  0.1171
14319TIP3   OH264447   5.960   2.546  13.714 -0.0626 -0.4151  0.6097
14319TIP3    H164448   5.888   2.485  13.725 -2.8241  1.8288 -2.8279
14319TIP3    H264449   5.919   2.633  13.719  2.3799  0.9841 -1.1255
14320TIP3   OH264450   4.821   4.402  16.629  0.1324 -0.0706 -0.2448
14320TIP3    H164451   4.910   4.437  16.630  0.0412  0.1485  0.2659
14320TIP3    H264452   4.821   4.334  16.697  0.2802 -1.0099 -1.1453
14321TIP3   OH264453   6.641   1.500  16.737 -0.3013 -0.4787  1.2230
14321TIP3    H164454   6.549   1.523  16.728 -0.7539 -1.5208  2.7201
14321TIP3    H264455   6.685   1.548  16.668 -1.9890 -0.0824  0.3755
14322TIP3   OH264456   3.328   3.116   3.690 -0.4459  0.1802  0.1345
14322TIP3    H164457   3.308   3.026   3.665  1.6656  0.2457 -2.2363
14322TIP3    H264458   3.398   3.107   3.754 -1.3523  0.1427  1.1440
14323TIP3   OH264459   4.420   0.008  15.049 -0.0786  0.8503  0.3700
14323TIP3    H164460   4.339  -0.012  15.096  0.3803  1.1072  1.3052
14323TIP3    H264461   4.435   0.101  15.065  1.2019  0.4764  1.5343
14324TIP3   OH264462   1.771   2.421   1.675  0.7099 -0.0922 -0.3952
14324TIP3    H164463   1.726   2.501   1.700 -2.7575 -1.8809 -0.3032
14324TIP3    H264464   1.809   2.388   1.756 -1.1774 -0.4025  0.4263
14325TIP3   OH264465   1.563   5.302  15.423  0.7524  0.4594  0.9065
14325TIP3    H164466   1.650   5.342  15.435  2.0619 -1.1531 -2.0271
14325TIP3    H264467   1.575   5.211  15.451 -0.0808  0.2856  0.7166
14326TIP3   OH264468   5.622   1.367  11.293 -0.3615 -0.0482  0.1136
14326TIP3    H164469   5.690   1.405  11.237  0.6473 -2.2218 -0.2732
14326TIP3    H264470   5.603   1.435  11.357  2.6120  0.5123  0.5724
14327TIP3   OH264471   2.752   4.675   5.366 -0.5732 -0.0704  0.2506
14327TIP3    H164472   2.715   4.592   5.338  0.2066 -0.6077  0.7797
14327TIP3    H264473   2.833   4.683   5.316 -1.0851  0.8175 -0.4730
14328TIP3   OH264474   5.436   3.247  16.415 -0.4519  0.1307 -0.6340
14328TIP3    H164475   5.372   3.214  16.478 -0.4272 -0.8474 -1.1047
14328TIP3    H264476   5.395   3.235  16.329 -0.0589  0.4452 -0.8688
14329TIP3   OH264477   2.119   2.987   0.145  0.2033  0.3211  0.0933
14329TIP3    H164478   2.179   3.036   0.089  0.8486 -0.7288 -0.1762
14329TIP3    H264479   2.069   3.053   0.191  1.9563  1.2602  0.7502
14330TIP3   OH264480   2.361   3.588  12.563  0.6055 -0.3421  0.2873
14330TIP3    H164481   2.394   3.605  12.651  0.3808  0.3081  0.2528
14330TIP3    H264482   2.355   3.674  12.523 -0.4469 -0.5070  0.0500
14331TIP3   OH264483   0.146   3.516  13.479 -0.0659 -0.1338  0.0812
14331TIP3    H164484   0.136   3.579  13.551 -0.3783  1.6550 -1.4541
14331TIP3    H264485   0.207   3.559  13.418 -0.4860 -1.2079 -1.1298
14332TIP3   OH264486   1.960   3.584  14.016  0.3610  0.1093  0.3502
14332TIP3    H164487   1.891   3.520  14.033  1.6681 -1.0804  1.4973
14332TIP3    H264488   1.937   3.659  14.070  1.0025 -1.1092  2.4671
14333TIP3   OH264489   5.496   3.179  13.801 -0.2845 -0.0251 -0.0167
14333TIP3    H164490   5.492   3.162  13.707  0.6216 -0.5750  0.0324
14333TIP3    H264491   5.578   3.227  13.813 -0.9641  1.0990  0.3548
14334TIP3   OH264492   3.686   4.392  12.765 -0.1845 -0.2763  0.8293
14334TIP3    H164493   3.685   4.312  12.713 -0.1729  0.2759 -0.0531
14334TIP3    H264494   3.744   4.451  12.716  2.0130 -0.5995  2.8470
14335TIP3   OH264495   3.247   3.692   5.914 -0.1400 -0.0027  0.5511
14335TIP3    H164496   3.211   3.775   5.945  2.6478  0.7900  1.9953
14335TIP3    H264497   3.339   3.711   5.894 -0.0062 -2.2211 -1.4444
14336TIP3   OH264498   4.046   0.388   4.720 -0.0777  0.1642 -0.8562
14336TIP3    H164499   4.080   0.305   4.685 -1.1137 -0.9321  0.5944
14336TIP3    H264500   3.970   0.407   4.665 -0.7530 -0.6951 -0.2435
14337TIP3   OH264501   0.725   3.611   1.668  0.1336  0.2862  0.5904
14337TIP3    H164502   0.666   3.673   1.709 -1.8560 -0.6731 -0.6807
14337TIP3    H264503   0.812   3.648   1.681 -0.7434  1.9094  2.2499
14338TIP3   OH264504   0.061   3.199  12.531  0.2043 -0.5053  0.1970
14338TIP3    H164505   0.079   3.180  12.623  1.6572  0.1582  0.0763
14338TIP3    H264506   0.092   3.289  12.519  0.4627 -0.7509 -1.0493
14339TIP3   OH264507   0.693   4.342  11.168 -0.5553 -0.8158  0.0855
14339TIP3    H164508   0.720   4.330  11.077  1.8752 -1.6864  0.8535
14339TIP3    H264509   0.698   4.254  11.206 -1.5197 -0.4620  1.0760
14340TIP3   OH264510   0.784   6.064   2.693 -0.4576  0.0735 -0.7386
14340TIP3    H164511   0.842   6.054   2.769 -0.9853  1.2794 -0.1502
14340TIP3    H264512   0.749   5.976   2.679 -1.7014  0.1151  1.5523
14341TIP3   OH264513   3.481   0.344   2.019 -0.8874 -0.1589 -0.2516
14341TIP3    H164514   3.407   0.298   1.981  0.7321 -1.1097 -2.4498
14341TIP3    H264515   3.518   0.394   1.947  0.3093  0.7146  0.9153
14342TIP3   OH264516   5.602   6.243   4.151  0.0731 -0.0054 -0.3877
14342TIP3    H164517   5.641   6.301   4.216 -0.0191  0.4589 -0.7402
14342TIP3    H264518   5.631   6.279   4.067  3.4232 -2.7548 -0.6443
14343TIP3   OH264519   0.466   5.416   6.229 -0.0377 -0.3795 -1.0941
14343TIP3    H164520   0.473   5.512   6.236  1.1714 -0.3860 -1.8597
14343TIP3    H264521   0.380   5.396   6.264 -1.4928  1.2776 -3.3844
14344TIP3   OH264522   5.801   1.188  15.720  0.2043  0.2669 -0.0863
14344TIP3    H164523   5.812   1.174  15.626 -2.5475 -0.5283 -0.3857
14344TIP3    H264524   5.861   1.125  15.760  1.9436  1.1021 -1.2582
14345TIP3   OH264525   6.474   1.618  12.092 -0.1097  0.2261  0.0589
14345TIP3    H164526   6.427   1.575  12.021 -0.4818 -1.1348  1.0763
14345TIP3    H264527   6.566   1.594  12.077 -0.0135  1.0230 -0.6749
14346TIP3   OH264528   3.212   0.674  11.905 -0.2198  0.8600  0.4703
14346TIP3    H164529   3.244   0.690  11.994 -0.9539  2.4642  0.4786
14346TIP3    H264530   3.203   0.579  11.900  1.4625  0.5949  1.5191
14347TIP3   OH264531   1.668   3.932   4.025  0.0662  0.1442 -0.7444
14347TIP3    H164532   1.602   3.992   3.990 -1.1448 -0.8041 -0.1540
14347TIP3    H264533   1.654   3.850   3.977  0.3039 -0.2927 -0.0819
14348TIP3   OH264534   5.369   6.790   5.558  0.6737 -0.5302 -0.1164
14348TIP3    H164535   5.322   6.873   5.562  0.0498 -0.8566 -0.5296
14348TIP3    H264536   5.351   6.748   5.642  2.0974  0.3211  0.6575
14349TIP3   OH264537   3.106   5.424   5.490 -0.4790  0.1232 -0.0507
14349TIP3    H164538   3.043   5.445   5.558  1.7079  1.2990  1.7659
14349TIP3    H264539   3.086   5.484   5.418 -1.4009  0.4730  0.4936
14350TIP3   OH264540   0.261   1.481   2.623 -0.4523 -0.3082  0.2771
14350TIP3    H164541   0.184   1.477   2.679  0.3702 -1.9013  1.3673
14350TIP3    H264542   0.303   1.564   2.646 -1.6952  0.4851 -0.2008
14351TIP3   OH264543   0.881   5.552   0.462 -0.0247  0.4456  0.1655
14351TIP3    H164544   0.824   5.628   0.452  0.3468  1.1454  2.7356
14351TIP3    H264545   0.962   5.576   0.416  0.5917  2.2409  2.0398
14352TIP3   OH264546   1.760   2.543  13.299 -0.3273 -0.4152 -0.1240
14352TIP3    H164547   1.747   2.448  13.291 -0.1830 -0.6459  1.9018
14352TIP3    H264548   1.838   2.552  13.353  0.2129  0.9015 -1.0700
14353TIP3   OH264549   2.962   3.527   1.656 -0.5564 -0.0530  0.0799
14353TIP3    H164550   2.886   3.468   1.653 -0.4733 -0.1250 -1.2028
14353TIP3    H264551   2.984   3.532   1.749 -1.9580 -0.2524  0.4576
14354TIP3   OH264552   4.562   2.768   3.760 -0.4587  0.1949  0.6760
14354TIP3    H164553   4.570   2.697   3.695 -0.5057 -0.0042  0.8871
14354TIP3    H264554   4.586   2.847   3.712 -2.6857  0.3851 -0.2481
14355TIP3   OH264555   1.630   4.264  11.183  0.2986 -0.1239 -0.0605
14355TIP3    H164556   1.709   4.303  11.146  0.3871  0.2263  0.4887
14355TIP3    H264557   1.656   4.237  11.271  0.1015 -0.9780 -0.2548
14356TIP3   OH264558   3.396   2.698  10.263  0.0678 -0.0192 -0.0463
14356TIP3    H164559   3.438   2.763  10.319  0.3250 -0.1745 -0.0554
14356TIP3    H264560   3.313   2.679  10.306 -1.5264  2.6200 -1.6151
14357TIP3   OH264561   3.105   6.378   5.737  0.0483  0.0276  0.4501
14357TIP3    H164562   3.179   6.343   5.786  1.0477  0.9383 -0.3251
14357TIP3    H264563   3.068   6.445   5.794  0.3800  0.1729  0.4985
14358TIP3   OH264564   1.450   5.797  13.039 -0.1444  0.8219 -0.9262
14358TIP3    H164565   1.417   5.777  12.952  0.7199  2.1119 -1.5797
14358TIP3    H264566   1.374   5.786  13.097 -0.6042 -0.5229 -1.7447
14359TIP3   OH264567   1.202   4.514  14.922 -0.0117 -0.1836  0.2868
14359TIP3    H164568   1.297   4.516  14.914 -0.0381  0.2830  0.0603
14359TIP3    H264569   1.175   4.605  14.909 -0.5981 -0.5182 -0.9156
14360TIP3   OH264570   3.708   3.920  15.695  0.0091  0.3263 -0.3050
14360TIP3    H164571   3.769   3.993  15.710 -0.2974  0.1348  2.4281
14360TIP3    H264572   3.763   3.849  15.662  0.2630  1.7866 -3.3927
14361TIP3   OH264573   2.318   1.109   0.113  0.4337 -0.1444 -0.0662
14361TIP3    H164574   2.287   1.130   0.024 -0.1439 -2.1926 -0.3877
14361TIP3    H264575   2.293   1.018   0.126  0.7653  0.0375  2.1219
14362TIP3   OH264576   2.944   4.944   5.288  0.1663 -0.0648 -0.6237
14362TIP3    H164577   3.008   5.005   5.252  0.9876 -0.2992  0.3809
14362TIP3    H264578   2.931   4.879   5.219 -0.5320  1.0741 -1.6093
14363TIP3   OH264579   2.490   0.914   4.996  0.2694  0.2455  0.3557
14363TIP3    H164580   2.555   0.885   5.061 -1.9360  1.4754  3.3228
14363TIP3    H264581   2.426   0.843   4.993 -0.8393  1.1704  1.3571
14364TIP3   OH264582   2.476   6.663  15.617  0.0113  0.2075 -0.1926
14364TIP3    H164583   2.507   6.713  15.542 -0.4930 -0.2445 -0.7093
14364TIP3    H264584   2.555   6.642  15.667  0.2666  1.1839 -0.1694
14365TIP3   OH264585   6.501   5.781   3.809  0.2471 -0.0359  0.3163
14365TIP3    H164586   6.411   5.813   3.797 -0.1928 -1.4761 -0.5581
14365TIP3    H264587   6.499   5.692   3.774  1.7619 -0.4932  1.2860
14366TIP3   OH264588   0.525   2.648  14.280  0.3963  0.9650 -0.3975
14366TIP3    H164589   0.602   2.705  14.275  0.5196  0.7623 -0.8826
14366TIP3    H264590   0.550   2.579  14.341  0.5701  0.9496 -0.4845
14367TIP3   OH264591   2.658   6.638   0.705  0.1398 -0.2113  0.3520
14367TIP3    H164592   2.603   6.711   0.676 -0.5505 -0.0288  1.9794
14367TIP3    H264593   2.597   6.564   0.712  0.8192 -0.9622 -1.2085
14368TIP3   OH264594   0.895   2.309   2.513  0.3482  0.0532  0.7144
14368TIP3    H164595   0.990   2.315   2.509  0.2850  3.6515  1.4956
14368TIP3    H264596   0.878   2.226   2.559  3.1422 -0.0299  1.7743
14369TIP3   OH264597   6.807   4.106  17.101 -0.2179  0.3858 -0.2948
14369TIP3    H164598   6.717   4.098  17.071  0.2640 -0.1604 -1.6676
14369TIP3    H264599   6.857   4.046  17.045  0.8437 -0.1179  1.1341
14370TIP3   OH264600   0.056   5.814   1.362  0.4533 -0.0293  0.0707
14370TIP3    H164601   0.017   5.856   1.285 -2.2225 -1.7870  0.3311
14370TIP3    H264602   0.089   5.730   1.330  0.0629 -0.4187  0.6714
14371TIP3   OH264603   3.286   1.345   3.762 -0.3242  0.5948 -0.3213
14371TIP3    H164604   3.254   1.260   3.792 -0.4404 -0.2981 -2.8212
14371TIP3    H264605   3.381   1.338   3.768 -0.3378  0.3467 -0.3746
14372TIP3   OH264606   5.049   0.959  13.128 -0.0352  0.2314  0.6341
14372TIP3    H164607   5.034   0.929  13.039  2.3085  0.1597  0.1995
14372TIP3    H264608   5.117   1.027  13.119  0.2398  0.2266  2.3538
14373TIP3   OH264609   4.577   2.664   1.944 -0.0480  0.4923  0.2907
14373TIP3    H164610   4.497   2.717   1.949 -0.0756  0.4685  0.1085
14373TIP3    H264611   4.645   2.727   1.919 -0.3107  0.2215 -1.1818
14374TIP3   OH264612   4.333   5.620   0.450  0.1681 -0.3881  0.0066
14374TIP3    H164613   4.422   5.653   0.463 -0.2335  0.1191  1.7377
14374TIP3    H264614   4.291   5.686   0.396  1.4051 -1.6790 -2.7087
14375TIP3   OH264615   0.933   4.018  15.718 -0.1943 -0.4809  0.4986
14375TIP3    H164616   0.892   4.104  15.713 -1.8664 -1.2379  0.4453
14375TIP3    H264617   1.004   4.021  15.653 -0.8916  0.5091 -0.2468
14376TIP3   OH264618   3.441   4.725   2.357  0.1884  0.3119  0.9422
14376TIP3    H164619   3.370   4.776   2.320 -0.8770  0.2068  2.7330
14376TIP3    H264620   3.478   4.782   2.425  0.8213 -0.2272  1.0604
14377TIP3   OH264621   3.597   1.375   3.902 -0.2769 -0.7165 -0.0157
14377TIP3    H164622   3.649   1.410   3.830  2.0383  0.9725  2.2969
14377TIP3    H264623   3.659   1.320   3.951 -1.2792 -0.4117  1.6385
14378TIP3   OH264624   1.437   6.816  11.442  0.3097 -0.0982 -0.9866
14378TIP3    H164625   1.440   6.863  11.525  0.5115 -0.9708 -0.4845
14378TIP3    H264626   1.444   6.884  11.375 -1.4358  0.7769 -0.3467
14379TIP3   OH264627   3.997   2.009  16.689  0.4177  0.0586 -0.0595
14379TIP3    H164628   4.008   1.915  16.707  0.2538  0.4318  2.3858
14379TIP3    H264629   4.001   2.016  16.594  1.2505 -2.3247 -0.2730
14380TIP3   OH264630   3.148   0.605   1.251 -0.0732 -0.8942 -0.0923
14380TIP3    H164631   3.237   0.575   1.233  0.4006  0.5755 -0.3007
14380TIP3    H264632   3.159   0.692   1.290 -1.4068 -0.8161  0.1559
14381TIP3   OH264633   0.567   4.430  12.124 -0.3283  0.0490 -0.5694
14381TIP3    H164634   0.647   4.481  12.140 -0.6754  0.4536 -0.0905
14381TIP3    H264635   0.594   4.362  12.063  1.0965 -1.6261  1.7436
14382TIP3   OH264636   3.309   0.695  12.818 -0.1048  0.0274  0.0147
14382TIP3    H164637   3.256   0.761  12.774  0.3482 -0.0205 -0.6272
14382TIP3    H264638   3.247   0.642  12.867 -0.5851  0.3063 -0.2904
14383TIP3   OH264639   1.358   5.499   3.420  0.7966  0.3710 -0.2550
14383TIP3    H164640   1.411   5.514   3.342  0.2033  1.6482 -0.4414
14383TIP3    H264641   1.276   5.463   3.386  0.7467  0.3982 -0.1626
14384TIP3   OH264642   0.980   3.900   9.997  0.3804 -0.0002  0.3394
14384TIP3    H164643   1.012   3.977   9.950 -0.7183 -0.7086 -1.6851
14384TIP3    H264644   1.042   3.888  10.069  2.1590  1.1397 -0.9346
14385TIP3   OH264645   2.813   1.075  11.718 -0.2007  0.2005  0.1873
14385TIP3    H164646   2.786   1.159  11.681 -0.6440 -0.0259 -0.0081
14385TIP3    H264647   2.897   1.056  11.676 -0.0266  0.6163  0.3435
14386TIP3   OH264648   5.407   5.079   4.526  0.0649 -0.3317 -0.1555
14386TIP3    H164649   5.418   5.154   4.583 -1.7884  1.4164 -1.9107
14386TIP3    H264650   5.476   5.018   4.552  0.2832  1.0062  2.7863
14387TIP3   OH264651   0.606   1.085   0.433 -0.0011  0.3136 -0.0385
14387TIP3    H164652   0.557   1.004   0.418 -1.0386  1.1914 -1.8096
14387TIP3    H264653   0.683   1.058   0.482 -1.7676 -1.2751  2.0712
14388TIP3   OH264654   6.680   3.084  13.644 -0.1397 -0.2614 -0.0679
14388TIP3    H164655   6.628   3.024  13.698  1.1185 -0.2397  1.2344
14388TIP3    H264656   6.771   3.057  13.660  0.5298  2.4493  1.1699
14389TIP3   OH264657   4.013   3.165   5.929 -0.4539  0.3615  0.5858
14389TIP3    H164658   4.070   3.171   6.005 -1.0879 -1.3181  1.2289
14389TIP3    H264659   4.036   3.083   5.887 -0.1082  1.2645 -1.0851
14390TIP3   OH264660   1.097   6.342   2.296 -0.4419 -0.0520  0.5914
14390TIP3    H164661   1.007   6.368   2.313 -0.8014 -0.5925 -0.4162
14390TIP3    H264662   1.091   6.278   2.225  0.9718  2.4963 -2.0583
14391TIP3   OH264663   6.475   2.750   5.996 -0.0352  0.7114 -0.0194
14391TIP3    H164664   6.543   2.785   6.053 -0.2508  2.4218 -0.7588
14391TIP3    H264665   6.398   2.803   6.016 -1.1666 -1.0987  0.7159
14392TIP3   OH264666   2.766   6.067  15.322 -0.4372  0.5690 -0.2102
14392TIP3    H164667   2.773   6.020  15.238  0.6946  1.2028 -0.4874
14392TIP3    H264668   2.672   6.084  15.332 -0.7847 -0.9882 -0.5164
14393TIP3   OH264669   6.392   0.722  15.786 -0.5558 -0.4668  0.5773
14393TIP3    H164670   6.483   0.735  15.758 -1.0389  0.7974 -0.5336
14393TIP3    H264671   6.392   0.749  15.878 -0.0290  0.7361  0.2508
14394TIP3   OH264672   3.981   1.366  12.331  0.5490 -0.0292 -0.0471
14394TIP3    H164673   4.010   1.282  12.367 -0.8526 -0.9341 -0.9191
14394TIP3    H264674   4.017   1.368  12.243  0.0266 -0.0331 -0.2643
14395TIP3   OH264675   0.164   2.274   4.096  0.8366 -0.2094  0.2869
14395TIP3    H164676   0.135   2.289   4.006 -0.7390 -0.5026  0.7152
14395TIP3    H264677   0.084   2.277   4.148  1.7127 -0.0785  1.6880
14396TIP3   OH264678   0.538   5.203  10.435 -0.2277 -0.4830 -0.0871
14396TIP3    H164679   0.550   5.296  10.415 -1.1299 -0.8154 -2.5520
14396TIP3    H264680   0.608   5.158  10.386  1.2315 -1.0738  2.3748
14397TIP3   OH264681   5.764   5.355   3.245 -0.0034  0.3426  0.0248
14397TIP3    H164682   5.844   5.344   3.296 -0.2173 -1.3181  0.0725
14397TIP3    H264683   5.757   5.274   3.194 -2.0735  0.0523  0.6526
14398TIP3   OH264684   6.137   4.722  12.889  0.1394 -0.2543 -0.3545
14398TIP3    H164685   6.139   4.628  12.911  2.7519 -0.0798  0.4725
14398TIP3    H264686   6.121   4.765  12.973 -0.0475  0.0765 -0.5607
14399TIP3   OH264687   2.734   0.894   1.410  0.0991  0.0973  0.4562
14399TIP3    H164688   2.803   0.941   1.456 -0.3558 -0.3325  1.6123
14399TIP3    H264689   2.653   0.921   1.454 -0.4189  0.1371 -0.4887
14400TIP3   OH264690   1.854   5.130   2.383  0.0595  0.1188  0.7351
14400TIP3    H164691   1.767   5.168   2.372  0.1574  0.0917 -0.2550
14400TIP3    H264692   1.843   5.037   2.363  0.4900  0.2953 -0.4275
14401TIP3   OH264693   3.994   4.499  15.841  0.2083  0.2331  0.1861
14401TIP3    H164694   3.936   4.548  15.899  0.7859  1.0016  0.1339
14401TIP3    H264695   4.082   4.516  15.875  0.3485 -2.0059  1.0867
14402TIP3   OH264696   3.315   2.189   0.698  0.4963 -0.0622 -0.0021
14402TIP3    H164697   3.363   2.118   0.654 -0.9075 -1.0402 -0.0061
14402TIP3    H264698   3.375   2.218   0.767  0.8759 -1.7121  0.4324
14403TIP3   OH264699   3.902   5.325   2.739 -0.2784  0.0973  0.5593
14403TIP3    H164700   3.881   5.232   2.745 -1.6654  0.4369  1.5760
14403TIP3    H264701   3.945   5.346   2.822  1.5867  0.0411 -0.3412
14404TIP3   OH264702   5.177   1.964   2.290  0.1198  0.4381 -0.1966
14404TIP3    H164703   5.114   1.924   2.230 -0.4223 -0.3613  0.8777
14404TIP3    H264704   5.249   1.993   2.233 -0.8425  0.6425 -1.3423
14405TIP3   OH264705   2.590   4.617  14.007  0.1491 -1.0531  0.1819
14405TIP3    H164706   2.611   4.553  13.939  0.3239 -0.6210 -0.1790
14405TIP3    H264707   2.674   4.634  14.051  0.4396  0.1136 -0.7682
14406TIP3   OH264708   5.812   2.075  14.191  0.4548 -0.0166  0.6104
14406TIP3    H164709   5.819   2.100  14.283  1.9601  0.5934  0.3632
14406TIP3    H264710   5.802   1.980  14.192  0.2631  0.0111  1.4121
14407TIP3   OH264711   1.320   6.111  16.281 -0.1971  0.1536 -0.0234
14407TIP3    H164712   1.320   6.196  16.324  1.6132  0.4088 -0.4547
14407TIP3    H264713   1.326   6.131  16.188  2.7552 -0.4040 -0.0366
14408TIP3   OH264714   2.935   0.724   2.936  0.0796  0.0042  0.0876
14408TIP3    H164715   2.845   0.693   2.925 -0.4206  1.5694 -0.4266
14408TIP3    H264716   2.943   0.799   2.877  1.9560 -0.5304 -0.4265
14409TIP3   OH264717   1.687   3.119  15.892 -0.0570  0.1958  0.2206
14409TIP3    H164718   1.645   3.173  15.959 -0.4184 -0.4855  0.5566
14409TIP3    H264719   1.631   3.041  15.885  0.7503 -0.3906  0.1422
14410TIP3   OH264720   6.699   2.836  12.688  0.1086  0.3766 -0.0062
14410TIP3    H164721   6.675   2.745  12.704  2.9251 -0.4262  0.2761
14410TIP3    H264722   6.711   2.841  12.593  2.5987 -0.3874  0.2007
14411TIP3   OH264723   4.189   0.954   0.183  0.3830 -0.1447  0.1405
14411TIP3    H164724   4.264   0.975   0.127  0.4176  0.0394  0.2584
14411TIP3    H264725   4.189   1.021   0.251  0.4406 -0.4654  0.4626
14412TIP3   OH264726   2.178   2.768  11.499  0.2542 -0.1157 -0.1124
14412TIP3    H164727   2.227   2.686  11.501 -0.2489 -0.4606 -1.0634
14412TIP3    H264728   2.172   2.795  11.591  1.1457 -0.7014  0.1275
14413TIP3   OH264729   2.714   2.132  13.123 -0.3008  0.2241  0.3045
14413TIP3    H164730   2.799   2.165  13.151 -0.6546  0.8363  0.6796
14413TIP3    H264731   2.693   2.063  13.187  0.3332 -0.6030 -0.3469
14414TIP3   OH264732   3.967   0.295  14.096  0.1207  0.5578 -0.0838
14414TIP3    H164733   4.046   0.323  14.050  0.6424  0.2840  0.6177
14414TIP3    H264734   3.965   0.200  14.086  0.0037  0.5420  0.0811
14415TIP3   OH264735   6.439   5.953  12.382  0.0597  0.3401 -0.3875
14415TIP3    H164736   6.383   5.979  12.455  3.5049  1.1185  2.2375
14415TIP3    H264737   6.434   5.857  12.382  0.0275  0.3198  0.9367
14416TIP3   OH264738   1.158   0.230   4.565  0.0068 -0.3553  0.2866
14416TIP3    H164739   1.084   0.290   4.564  0.9537  0.9851  2.7530
14416TIP3    H264740   1.186   0.224   4.473 -0.8742  2.0340 -0.2087
14417TIP3   OH264741   1.005   5.358  11.973 -0.1796 -0.0683 -0.3329
14417TIP3    H164742   1.060   5.412  11.916 -0.3282 -0.9640 -1.3742
14417TIP3    H264743   0.988   5.413  12.050 -0.2681  1.3391 -1.3131
14418TIP3   OH264744   4.966   3.040   5.886  0.0708  0.1911  0.3181
14418TIP3    H164745   4.987   3.000   5.970  0.4727 -0.2938 -0.0033
14418TIP3    H264746   5.042   3.093   5.864  0.4886 -0.6413 -0.3001
14419TIP3   OH264747   0.618   4.507   2.200  0.2161  0.0620 -0.3781
14419TIP3    H164748   0.646   4.574   2.263  1.6510  0.0775 -0.9768
14419TIP3    H264749   0.538   4.541   2.162 -1.8199 -0.8073  2.7546
14420TIP3   OH264750   5.478   4.500  14.805 -0.7638  0.1092 -0.2603
14420TIP3    H164751   5.445   4.434  14.745  0.1279 -0.3066 -0.3121
14420TIP3    H264752   5.519   4.566  14.749 -0.8838  0.2653 -0.1660
14421TIP3   OH264753   0.851   2.226   1.209 -0.1773 -0.0886  0.2514
14421TIP3    H164754   0.774   2.278   1.232 -1.2241 -1.7200  0.6245
14421TIP3    H264755   0.887   2.199   1.294  2.2126  2.4972  0.1915
14422TIP3   OH264756   4.410   1.167   5.180  0.6649 -0.1803  0.0897
14422TIP3    H164757   4.494   1.182   5.223  1.8938 -0.8107 -1.9604
14422TIP3    H264758   4.425   1.089   5.126 -0.4527  1.0839 -2.1943
14423TIP3   OH264759   6.590   5.510   0.464  0.3028 -0.5297  0.4018
14423TIP3    H164760   6.544   5.560   0.397  1.4729 -1.0770 -0.8578
14423TIP3    H264761   6.585   5.419   0.434 -0.7911 -1.0764  2.0552
14424TIP3   OH264762   1.940   2.549   1.517  0.1774  0.2022  0.5471
14424TIP3    H164763   1.896   2.526   1.599 -0.9822  0.2553 -0.0294
14424TIP3    H264764   1.868   2.568   1.457  1.0219  1.3118 -0.1507
14425TIP3   OH264765   2.198   0.895  12.340  0.7618 -0.0250 -0.3194
14425TIP3    H164766   2.259   0.896  12.413  0.7254  0.5935 -0.2943
14425TIP3    H264767   2.164   0.985  12.336  0.3461 -0.1981 -0.7409
14426TIP3   OH264768   6.663   2.586   3.735 -0.3370 -0.2012 -0.2345
14426TIP3    H164769   6.748   2.621   3.762  0.7586 -1.5105 -1.8524
14426TIP3    H264770   6.675   2.558   3.645 -2.9085  0.8341 -1.0078
14427TIP3   OH264771   1.941   6.186  15.362  0.6530 -0.1325 -0.0496
14427TIP3    H164772   1.997   6.150  15.293  0.5825 -1.1895  0.4242
14427TIP3    H264773   1.995   6.253  15.405  1.1205 -0.3043 -0.3663
14428TIP3   OH264774   2.919   3.905   2.971 -0.2779 -0.3389 -0.1548
14428TIP3    H164775   2.948   3.817   2.996 -0.7488 -0.4269  0.0925
14428TIP3    H264776   2.999   3.958   2.973 -0.0067 -0.7352 -0.2076
14429TIP3   OH264777   1.133   6.555  13.212  0.0810  0.1598  0.0023
14429TIP3    H164778   1.208   6.574  13.267  0.3369 -0.7072 -0.0338
14429TIP3    H264779   1.079   6.496  13.265 -0.5385  0.7138 -0.0022
14430TIP3   OH264780   0.099   6.251  16.694 -0.2594  0.5268  0.1360
14430TIP3    H164781   0.143   6.168  16.674 -1.2933 -0.2472  0.8983
14430TIP3    H264782   0.065   6.238  16.783  0.8175  2.3332  0.8461
14431TIP3   OH264783   3.767   4.207   3.042 -0.1870 -0.7518 -0.2885
14431TIP3    H164784   3.755   4.112   3.054 -1.2353 -0.6571 -0.4999
14431TIP3    H264785   3.706   4.246   3.105 -0.5491 -0.2237 -0.9587
14432TIP3   OH264786   4.771   5.649  11.661  0.3557  0.2978  0.1855
14432TIP3    H164787   4.795   5.596  11.737  0.5647  1.5454  1.0180
14432TIP3    H264788   4.693   5.696  11.688 -0.9968 -1.0146 -1.2390
14433TIP3   OH264789   0.366   3.222  16.536  0.2054 -0.0151  0.0056
14433TIP3    H164790   0.439   3.281  16.552 -0.5645  0.7388  0.8265
14433TIP3    H264791   0.380   3.148  16.595 -0.3769  0.7489  1.1166
14434TIP3   OH264792   3.802   5.916   0.020 -0.3183  0.0733 -0.2679
14434TIP3    H164793   3.773   5.869  -0.058  1.2359 -2.5053  0.6058
14434TIP3    H264794   3.886   5.955  -0.006 -0.2844  0.0666 -0.1658
14435TIP3   OH264795   1.083   4.124   3.395  0.1164 -0.0212  0.7158
14435TIP3    H164796   1.144   4.057   3.363  0.1842  0.1723  0.4433
14435TIP3    H264797   1.131   4.207   3.384  0.4447 -0.0147  2.0083
14436TIP3   OH264798   3.540   4.462   6.212  0.1689 -0.2039 -0.3029
14436TIP3    H164799   3.556   4.376   6.251 -1.4959 -0.1226  0.6581
14436TIP3    H264800   3.495   4.512   6.281  0.7157  1.3006 -0.9895
14437TIP3   OH264801   4.337   2.102   5.186  0.4382 -0.3190 -0.9213
14437TIP3    H164802   4.290   2.027   5.222 -1.6497  0.5022 -1.7509
14437TIP3    H264803   4.358   2.157   5.261 -2.3550  0.5543 -0.6522
14438TIP3   OH264804   2.390   2.499   5.906  0.2531 -0.6015  0.0762
14438TIP3    H164805   2.354   2.505   5.817 -3.3087 -0.9938  1.3322
14438TIP3    H264806   2.368   2.583   5.946  1.4929 -0.5725  0.7336
14439TIP3   OH264807   1.947   2.418   3.754 -0.6012 -0.0445  0.0493
14439TIP3    H164808   1.872   2.395   3.699  0.0143 -0.0294 -0.8272
14439TIP3    H264809   1.976   2.334   3.791 -0.2114 -0.2577 -0.7200
14440TIP3   OH264810   0.374   6.411  11.035  0.1839 -0.2883  0.3140
14440TIP3    H164811   0.285   6.443  11.043 -0.1305 -1.2770  0.9790
14440TIP3    H264812   0.429   6.490  11.038 -0.6352  0.2909  0.3324
14441TIP3   OH264813   2.452   5.405  14.269 -0.7764  0.6396  0.0005
14441TIP3    H164814   2.419   5.494  14.253 -2.2119  0.2540  0.6719
14441TIP3    H264815   2.463   5.401  14.364  0.5137  0.4900 -0.1388
14442TIP3   OH264816   1.242   4.939   4.075 -0.2101 -0.5629  0.2083
14442TIP3    H164817   1.308   4.882   4.034  0.1332 -2.4668  3.1346
14442TIP3    H264818   1.293   5.006   4.120 -0.5034  0.2291 -0.5963
14443TIP3   OH264819   3.140   0.986   3.601 -0.5485 -0.3434 -0.3245
14443TIP3    H164820   3.072   0.979   3.534  0.0360  1.8238 -1.2322
14443TIP3    H264821   3.192   0.907   3.591 -2.9321 -2.1594  0.4878
14444TIP3   OH264822   2.456   5.732  12.310  0.0567 -0.5443  0.8045
14444TIP3    H164823   2.461   5.648  12.264 -2.0257 -0.8212  0.9655
14444TIP3    H264824   2.507   5.719  12.389  2.1115 -0.6905 -0.4823
14445TIP3   OH264825   4.149   6.454   2.172 -0.0385  0.1022 -0.4668
14445TIP3    H164826   4.226   6.453   2.117  0.6099  1.2703  0.3651
14445TIP3    H264827   4.120   6.545   2.171 -0.8005 -0.1205  0.0384
14446TIP3   OH264828   3.511   1.704  12.431  0.1337 -0.0861 -0.1747
14446TIP3    H164829   3.499   1.644  12.357  0.5195  1.3093 -1.4059
14446TIP3    H264830   3.592   1.674  12.473  0.8224  0.0905 -1.3230
14447TIP3   OH264831   2.059   3.904  16.731  0.2890 -0.2200 -0.0141
14447TIP3    H164832   1.978   3.948  16.756  1.2668  0.3026  2.5517
14447TIP3    H264833   2.113   3.972  16.691  0.5021  0.1363  0.8558
14448TIP3   OH264834   5.666   0.381  15.954 -0.2916  0.1079  0.0003
14448TIP3    H164835   5.599   0.345  16.012 -0.8418  2.4041  0.8906
14448TIP3    H264836   5.624   0.383  15.868 -0.6340 -0.3181  0.1501
14449TIP3   OH264837   6.057   2.315  13.054 -0.0593 -0.1881  0.2070
14449TIP3    H164838   6.098   2.335  12.970 -0.4869  1.1231  0.2832
14449TIP3    H264839   6.008   2.234  13.038 -2.7831  1.6566 -1.8097
14450TIP3   OH264840   2.880   4.047  16.398  0.1752 -0.0837  0.2240
14450TIP3    H164841   2.942   4.101  16.447 -0.9317 -0.5719  2.2440
14450TIP3    H264842   2.798   4.098  16.399  0.0098 -0.3156 -0.7355
14451TIP3   OH264843   3.595   5.709  15.385  0.4240 -0.2937 -0.1304
14451TIP3    H164844   3.539   5.737  15.457 -1.5868 -1.6486 -1.0719
14451TIP3    H264845   3.641   5.789  15.358 -0.6318  0.7567  1.0507
14452TIP3   OH264846   6.618   0.765  10.879  0.6812  0.1690 -0.0022
14452TIP3    H164847   6.604   0.713  10.958 -0.6455  1.5767  0.7463
14452TIP3    H264848   6.596   0.706  10.807 -0.0342 -0.5358  0.7755
14453TIP3   OH264849   3.943   2.766  13.316 -0.2790 -0.0704 -0.2060
14453TIP3    H164850   3.896   2.686  13.338 -0.5165 -0.4862 -2.0161
14453TIP3    H264851   3.897   2.801  13.240 -0.4777  2.0930  0.8220
14454TIP3   OH264852   5.139   0.907  14.609 -1.0432 -0.5346  0.2552
14454TIP3    H164853   5.122   0.988  14.561  1.1264 -0.2619 -0.1419
14454TIP3    H264854   5.104   0.838  14.553 -0.9041 -0.0223 -0.4798
14455TIP3   OH264855   1.607   5.174   0.198  0.2224  0.2742  0.4980
14455TIP3    H164856   1.697   5.201   0.183 -0.2327  0.9836 -1.2025
14455TIP3    H264857   1.612   5.080   0.214  1.1278  0.0291 -1.1158
14456TIP3   OH264858   1.796   6.681  11.367  0.3047 -0.4421  0.5140
14456TIP3    H164859   1.880   6.640  11.388  1.1057 -0.2028 -1.8267
14456TIP3    H264860   1.809   6.774  11.387 -0.4283 -0.7859  2.8254
14457TIP3   OH264861   4.534   5.636  14.275 -0.4092 -0.8211  0.3175
14457TIP3    H164862   4.445   5.640  14.309 -1.1339  0.9359 -1.5511
14457TIP3    H264863   4.588   5.674  14.345 -1.4265  0.0477  0.6611
14458TIP3   OH264864   2.538   3.060   2.699  0.6141 -0.2701 -0.1314
14458TIP3    H164865   2.566   3.076   2.609 -0.8456  1.0866 -0.3749
14458TIP3    H264866   2.613   3.088   2.752  2.8896 -4.1071 -0.8596
14459TIP3   OH264867   1.345   3.190  14.798  0.3463 -0.0100 -0.2102
14459TIP3    H164868   1.323   3.283  14.808  1.7937  0.2014  1.3360
14459TIP3    H264869   1.440   3.187  14.803  0.4332 -1.4503 -1.7770
14460TIP3   OH264870   0.665   6.169  15.766 -0.1216  0.1761  0.3172
14460TIP3    H164871   0.672   6.250  15.817 -3.4663  0.6682  0.1859
14460TIP3    H264872   0.707   6.103  15.821 -0.8324  1.2762  2.2800
14461TIP3   OH264873   5.596   4.935  11.886 -0.2558  0.4548  0.3369
14461TIP3    H164874   5.524   4.977  11.839 -0.0454  2.5637  1.7926
14461TIP3    H264875   5.621   4.998  11.954  0.2725 -1.9226  2.5000
14462TIP3   OH264876   5.708   1.666   2.015 -0.3034 -0.2416  1.1619
14462TIP3    H164877   5.666   1.750   2.037  1.3979  1.4638 -1.4709
14462TIP3    H264878   5.649   1.626   1.952  0.4238  0.6293 -0.1117
14463TIP3   OH264879   6.058   6.490   0.107 -0.0269  0.3681 -0.1821
14463TIP3    H164880   5.990   6.551   0.078 -1.8786  0.5684  3.8165
14463TIP3    H264881   6.117   6.544   0.159  0.3661 -0.6350  0.4383
14464TIP3   OH264882   1.732   1.001  15.305 -0.0923 -0.4201 -0.1059
14464TIP3    H164883   1.652   1.030  15.350  1.2033  2.0183  0.7946
14464TIP3    H264884   1.733   1.050  15.224  1.4457  1.1415  0.8009
14465TIP3   OH264885   4.911   0.319  14.486  0.6167 -0.0790  0.4834
14465TIP3    H164886   4.904   0.251  14.419  0.7475  0.2762  0.0998
14465TIP3    H264887   4.927   0.272  14.567  0.6215 -0.5085  0.2352
14466TIP3   OH264888   1.927   5.641  16.870 -0.5888  0.0548  0.3756
14466TIP3    H164889   1.952   5.693  16.794 -0.1367 -0.4164  0.1954
14466TIP3    H264890   1.914   5.706  16.940 -0.4393  0.4416  0.0507
14467TIP3   OH264891   3.678   3.149  13.576 -0.5082  0.2736 -0.4931
14467TIP3    H164892   3.703   3.233  13.539  1.5710 -0.3032 -0.5049
14467TIP3    H264893   3.749   3.127  13.636 -1.4251 -1.0853  0.1387
14468TIP3   OH264894   0.404   4.578  15.694 -0.3261  0.4556  0.1751
14468TIP3    H164895   0.423   4.561  15.787  0.4013 -2.8140 -0.4722
14468TIP3    H264896   0.474   4.638  15.667 -0.0254  0.7470  1.5073
14469TIP3   OH264897   2.287   6.788  13.319 -0.4112  0.2664 -0.3944
14469TIP3    H164898   2.199   6.810  13.348 -1.0563 -0.0898 -1.9600
14469TIP3    H264899   2.336   6.771  13.399 -1.8665  0.0847  0.4834
14470TIP3   OH264900   5.581   4.701  13.572  0.1282 -0.5517  0.6256
14470TIP3    H164901   5.547   4.724  13.658 -2.3613 -0.5704 -0.2602
14470TIP3    H264902   5.520   4.635  13.539  1.4213 -1.0697 -0.8913
14471TIP3   OH264903   2.372   1.069  14.193  0.0947 -0.4267  0.1657
14471TIP3    H164904   2.452   1.017  14.201  0.7436  0.1979 -1.5289
14471TIP3    H264905   2.312   1.013  14.145 -0.2691 -0.6722  0.9041
14472TIP3   OH264906   2.414   3.108   2.000  0.4296 -0.5437  0.7244
14472TIP3    H164907   2.380   3.089   2.088  2.5886 -0.5372  1.6342
14472TIP3    H264908   2.485   3.045   1.989 -0.4168 -1.1927 -1.4613
14473TIP3   OH264909   2.592   3.193  13.172  0.5458 -0.5696 -0.3369
14473TIP3    H164910   2.635   3.170  13.090 -0.0834 -1.0972 -0.5222
14473TIP3    H264911   2.554   3.112  13.204  1.2199 -0.4797  0.7533
14474TIP3   OH264912   5.925   1.884   1.716 -0.5215  0.1138 -0.4938
14474TIP3    H164913   5.978   1.964   1.716 -0.6134  0.1901  0.5243
14474TIP3    H264914   5.950   1.839   1.635 -0.0696  0.9032 -0.8123
14475TIP3   OH264915   5.544   1.881  15.060 -0.0297 -0.6135 -0.3403
14475TIP3    H164916   5.537   1.973  15.034 -1.1422 -0.8173 -0.7859
14475TIP3    H264917   5.623   1.878  15.114  1.0695  0.2587 -1.8170
14476TIP3   OH264918   6.072   3.247  10.588  0.4226  0.2203  0.0549
14476TIP3    H164919   6.121   3.286  10.660  0.7252 -2.5838  1.5481
14476TIP3    H264920   6.101   3.156  10.586 -1.7347 -0.5326 -1.7160
14477TIP3   OH264921   4.309   2.542  14.200 -0.4416  0.5160 -0.0886
14477TIP3    H164922   4.378   2.593  14.156  0.1264 -1.1288 -1.2227
14477TIP3    H264923   4.229   2.591  14.183  0.1430  1.3108 -0.6761
14478TIP3   OH264924   2.806   2.105   5.985  0.1611  0.8454 -0.1024
14478TIP3    H164925   2.746   2.064   5.923  0.0510 -0.1172  0.6211
14478TIP3    H264926   2.867   2.035   6.009 -0.1955  1.0071  1.3646
14479TIP3   OH264927   3.643   0.155  11.791  0.9901 -0.6006 -0.3824
14479TIP3    H164928   3.559   0.184  11.826  0.6196 -1.1323 -0.8165
14479TIP3    H264929   3.696   0.135  11.868  0.5231 -0.8012 -0.1128
14480TIP3   OH264930   5.953   2.281   4.365  0.6958  0.6288 -0.8032
14480TIP3    H164931   5.879   2.341   4.378  1.1875  1.3991 -1.4515
14480TIP3    H264932   6.028   2.339   4.350  1.5040 -0.1337  0.1755
14481TIP3   OH264933   3.022   2.194  13.685  0.4757 -0.3609  0.2855
14481TIP3    H164934   3.038   2.152  13.601 -0.3212  0.6406 -0.3966
14481TIP3    H264935   2.926   2.198  13.692  0.5336  0.1444  0.9295
14482TIP3   OH264936   1.577   2.903   4.688  0.2222 -0.6672  0.3054
14482TIP3    H164937   1.490   2.864   4.693  0.1542 -1.0079 -2.0673
14482TIP3    H264938   1.561   2.997   4.692 -0.3807 -0.6973 -0.8377
14483TIP3   OH264939   1.277   4.296   0.797  0.4114  0.4703 -0.4310
14483TIP3    H164940   1.368   4.315   0.819  0.1949 -0.5241  1.6419
14483TIP3    H264941   1.270   4.201   0.804 -0.3221  0.2965 -2.7313
14484TIP3   OH264942   3.566   1.182   6.596 -0.0542 -0.2780  0.1115
14484TIP3    H164943   3.604   1.208   6.513 -1.1146  1.7098  0.1912
14484TIP3    H264944   3.625   1.217   6.662 -1.5118  2.1736  0.2206
14485TIP3   OH264945   3.990   4.839   1.849 -0.5795 -0.3861  0.0347
14485TIP3    H164946   4.014   4.773   1.784 -0.9846  1.3852 -2.0509
14485TIP3    H264947   3.958   4.789   1.924 -0.8260 -2.5388 -1.4283
14486TIP3   OH264948   0.966   2.294  17.087  0.3177  0.0862 -0.1718
14486TIP3    H164949   0.890   2.304  17.030  0.4605 -0.9857 -0.5656
14486TIP3    H264950   0.956   2.207  17.125  0.8165  0.3481  0.5655
14487TIP3   OH264951   6.443   5.444  15.580  0.4174 -0.3030 -0.1147
14487TIP3    H164952   6.380   5.494  15.528  0.6090  0.2869  0.2044
14487TIP3    H264953   6.503   5.406  15.515  0.2452 -0.1478 -0.3674
14488TIP3   OH264954   4.942   6.088   1.483 -0.3459  0.1711 -0.4309
14488TIP3    H164955   5.037   6.081   1.472 -0.0017  1.4427  1.2355
14488TIP3    H264956   4.930   6.105   1.576 -2.2048  0.2389 -0.6447
14489TIP3   OH264957   2.766   5.970   1.234  0.2706  0.5935  0.3095
14489TIP3    H164958   2.710   5.953   1.310  0.9506 -1.4167  0.4114
14489TIP3    H264959   2.796   6.060   1.247  0.3303  0.3293  2.4067
14490TIP3   OH264960   3.544   1.637  13.139 -0.4320  0.0160 -0.5781
14490TIP3    H164961   3.552   1.565  13.078 -0.5087  0.3710 -1.0140
14490TIP3    H264962   3.587   1.711  13.096  0.7400 -0.0663  0.3847
14491TIP3   OH264963   1.674   0.840  16.372 -0.5880 -0.0124 -0.9751
14491TIP3    H164964   1.700   0.906  16.437 -1.4169 -0.0911 -0.5574
14491TIP3    H264965   1.579   0.840  16.375 -0.6164 -2.4000  0.2341
14492TIP3   OH264966   4.527   5.286  10.852 -0.4114  0.0091 -0.5230
14492TIP3    H164967   4.623   5.278  10.846  0.0534  3.7088 -0.4463
14492TIP3    H264968   4.498   5.201  10.885  3.1124 -0.5061  1.8171
14493TIP3   OH264969   3.512   4.322  11.685  0.3072  0.0696 -0.5544
14493TIP3    H164970   3.472   4.291  11.604  0.0159 -1.6310  0.1962
14493TIP3    H264971   3.470   4.406  11.702 -1.0257 -0.4370 -1.1866
14494TIP3   OH264972   1.221   3.089  10.383 -0.4034  0.7615 -0.2077
14494TIP3    H164973   1.165   3.024  10.341  1.4432 -1.2350  0.2330
14494TIP3    H264974   1.303   3.085  10.334  0.2310  1.7224  0.7280
14495TIP3   OH264975   0.639   3.794   0.336  0.6672 -0.9969 -0.9110
14495TIP3    H164976   0.720   3.747   0.356  0.6999 -1.4087 -1.9451
14495TIP3    H264977   0.666   3.862   0.274  0.8552  1.2945  1.4995
14496TIP3   OH264978   6.674   6.460   4.515 -0.6745 -0.1235 -0.6092
14496TIP3    H164979   6.711   6.375   4.539 -0.1023  0.0041 -1.0052
14496TIP3    H264980   6.670   6.459   4.420 -2.0202 -0.2512 -0.5691
14497TIP3   OH264981   3.293   2.386  12.813 -0.5523 -0.0146 -0.3121
14497TIP3    H164982   3.307   2.473  12.852  0.8523  0.7519 -2.3900
14497TIP3    H264983   3.223   2.400  12.749  0.0774 -0.2792 -1.0609
14498TIP3   OH264984   5.673   4.325   5.821 -0.6389 -0.6742 -0.2379
14498TIP3    H164985   5.647   4.346   5.911 -0.0313  0.8459 -0.3998
14498TIP3    H264986   5.613   4.254   5.795 -2.1999  0.2682  0.6336
14499TIP3   OH264987   2.050   0.489  10.625 -0.1296  0.4733 -0.8192
14499TIP3    H164988   2.143   0.488  10.646 -0.4436  0.1179  0.6769
14499TIP3    H264989   2.028   0.582  10.620  0.1746  0.5605 -0.5744
14500TIP3   OH264990   2.372   3.201   5.070  0.2708  0.4652 -0.4947
14500TIP3    H164991   2.315   3.277   5.071  0.3636  0.5480  0.7824
14500TIP3    H264992   2.375   3.173   4.979 -1.9383  0.3444 -0.5675
14501TIP3   OH264993   5.106   5.829   4.612 -0.0738 -0.1559  0.8005
14501TIP3    H164994   5.178   5.866   4.560  0.2965  0.4999  1.7503
14501TIP3    H264995   5.080   5.751   4.563  1.5523 -0.6533  0.6408
14502TIP3   OH264996   6.206   4.606  12.089  0.3030 -0.0946 -0.1178
14502TIP3    H164997   6.291   4.570  12.064  1.1450  1.2087  0.7394
14502TIP3    H264998   6.215   4.625  12.183 -1.3758 -1.0946  0.3006
14503TIP3   OH264999   4.974   6.139   1.771  0.0770 -0.0160  0.0192
14503TIP3    H165000   4.898   6.140   1.830  0.2367  0.2411  0.2224
14503TIP3    H265001   5.014   6.053   1.785  0.2667  0.1435  0.4865
14504TIP3   OH265002   3.329   1.251   1.334  0.0704 -0.2737 -0.5527
14504TIP3    H165003   3.269   1.190   1.291  1.5396 -1.1766 -1.3967
14504TIP3    H265004   3.305   1.247   1.426 -0.4898 -1.3855 -0.7299
14505TIP3   OH265005   5.051   5.680  16.125 -0.6359  0.2062 -0.3744
14505TIP3    H165006   5.010   5.609  16.174 -1.1600  0.7852  0.0428
14505TIP3    H265007   5.132   5.698  16.173  0.0196 -0.7821 -1.0679
14506TIP3   OH265008   4.588   0.383   4.019  0.2788  0.3449 -0.5103
14506TIP3    H165009   4.671   0.391   4.067 -0.9205  2.9758  1.3654
14506TIP3    H265010   4.554   0.297   4.043  0.8342  0.6530  1.5805
14507TIP3   OH265011   3.651   4.169  12.583  0.7037  0.2415  0.1606
14507TIP3    H165012   3.628   4.076  12.581 -0.8404  0.5277  1.8200
14507TIP3    H265013   3.743   4.172  12.557  0.8962 -1.7878  0.4720
14508TIP3   OH265014   1.003   6.162   4.102 -0.3605  0.4766  0.2247
14508TIP3    H165015   0.920   6.193   4.065  0.2420 -0.6616 -2.3195
14508TIP3    H265016   0.987   6.071   4.125 -0.1373  0.5997  0.8945
14509TIP3   OH265017   0.838   1.677   1.922  0.2028 -0.3484 -0.1221
14509TIP3    H165018   0.745   1.696   1.912  0.1269 -0.0533  1.0514
14509TIP3    H265019   0.850   1.594   1.874 -1.0610 -1.4066  1.2778
14510TIP3   OH265020   5.591   4.040  10.679  0.2811  0.1243 -0.0919
14510TIP3    H165021   5.685   4.060  10.680  0.0851  1.0789  0.8462
14510TIP3    H265022   5.582   3.965  10.737  0.0200  2.4708  3.2006
14511TIP3   OH265023   3.279   6.292  12.469 -0.5011  0.1379  0.0918
14511TIP3    H165024   3.193   6.275  12.431 -0.4709  0.2699 -0.0356
14511TIP3    H265025   3.285   6.231  12.543 -0.5108 -0.2171 -0.1926
14512TIP3   OH265026   5.461   1.446  14.119  0.6311 -0.6745 -0.7562
14512TIP3    H165027   5.464   1.376  14.184  0.3684 -0.5752 -0.6390
14512TIP3    H265028   5.429   1.523  14.167  1.2537 -0.3824 -0.8031
14513TIP3   OH265029   4.338   0.825  15.445 -0.2367 -0.1353  0.2423
14513TIP3    H165030   4.283   0.748  15.433 -0.4045  0.2454 -1.7692
14513TIP3    H265031   4.304   0.866  15.525 -1.2754 -1.2124  0.3860
14514TIP3   OH265032   2.586   3.977  15.736 -0.5451  0.5883 -0.1799
14514TIP3    H165033   2.491   3.969  15.751 -0.4929 -0.4138 -0.2993
14514TIP3    H265034   2.616   3.887  15.725  0.7615  0.7222  1.8211
14515TIP3   OH265035   4.148   3.847   4.356 -0.2342  0.2289  0.0612
14515TIP3    H165036   4.064   3.831   4.399 -0.4544 -0.1098 -0.4968
14515TIP3    H265037   4.189   3.916   4.409  1.7417 -3.4168  3.9113
14516TIP3   OH265038   6.189   5.474  17.074 -0.2820  0.0432  0.1325
14516TIP3    H165039   6.169   5.447  16.985  1.5998 -1.6161  0.1321
14516TIP3    H265040   6.109   5.460  17.123 -0.3717 -2.4133 -0.6116
14517TIP3   OH265041   6.115   0.179  12.756 -0.0877 -0.0941 -0.2345
14517TIP3    H165042   6.054   0.133  12.814  1.5169 -2.2833 -0.1513
14517TIP3    H265043   6.165   0.109  12.714  1.8737  1.5832 -0.8359
14518TIP3   OH265044   5.831   4.556  14.596 -0.5790  0.3427 -0.3790
14518TIP3    H165045   5.915   4.537  14.554  0.3225  1.1898  0.9677
14518TIP3    H265046   5.852   4.561  14.689 -2.0943  0.8181 -0.0469
14519TIP3   OH265047   6.325   3.770   5.021  0.2636 -0.3990  0.1124
14519TIP3    H165048   6.285   3.843   5.067  0.5105 -0.0100 -0.2851
14519TIP3    H265049   6.406   3.752   5.069  0.0418 -0.6256  0.4029
14520TIP3   OH265050   6.479   4.220  14.221  0.1279  0.4419  0.1129
14520TIP3    H165051   6.517   4.135  14.196 -0.5231  0.0472  0.4518
14520TIP3    H265052   6.386   4.211  14.201  0.0037  0.9708  0.4477
14521TIP3   OH265053   4.093   5.811  12.645  0.5823  0.0297 -1.1577
14521TIP3    H165054   4.016   5.774  12.601  0.4194 -0.1059 -0.7636
14521TIP3    H265055   4.156   5.739  12.649 -0.4946 -0.8922  1.4624
14522TIP3   OH265056   2.563   5.347  11.894 -0.2016 -0.2395 -0.0811
14522TIP3    H165057   2.644   5.334  11.943 -0.0424 -0.0402 -0.2899
14522TIP3    H265058   2.527   5.259  11.883 -0.1317 -0.3051  0.2140
14523TIP3   OH265059   4.655   4.248  12.213 -0.0908  0.4132  0.0281
14523TIP3    H165060   4.692   4.168  12.248 -1.7364 -0.5245 -0.2611
14523TIP3    H265061   4.636   4.228  12.122 -0.0509  1.3107 -0.1908
14524TIP3   OH265062   3.630   3.504   2.212 -0.0862 -0.0864  0.4638
14524TIP3    H165063   3.710   3.536   2.170 -0.9260  1.8009  0.2088
14524TIP3    H265064   3.661   3.449   2.283  1.4377  0.3368  0.1632
14525TIP3   OH265065   0.409   4.825  16.387  0.0774 -0.9855  0.3736
14525TIP3    H165066   0.332   4.838  16.443  0.5583  1.4737  0.5405
14525TIP3    H265067   0.461   4.760  16.434  0.0737  0.3855  2.4178
14526TIP3   OH265068   6.205   2.465  10.959  0.0796 -0.1193  0.7832
14526TIP3    H165069   6.153   2.538  10.994  0.8152 -0.0747  1.8328
14526TIP3    H265070   6.186   2.465  10.865 -2.3883 -0.5948  1.2139
14527TIP3   OH265071   5.684   1.758  12.912  0.8330 -0.3890  0.7691
14527TIP3    H165072   5.686   1.681  12.856 -0.6778 -0.2906  0.5449
14527TIP3    H265073   5.727   1.826  12.861 -1.4713  0.0045 -0.8097
14528TIP3   OH265074   3.352   3.162   4.722 -0.4997  0.4028 -0.2742
14528TIP3    H165075   3.294   3.145   4.796  0.3189 -1.7877 -0.0461
14528TIP3    H265076   3.439   3.170   4.761  0.1210 -1.9410 -0.9829
14529TIP3   OH265077   2.624   5.145   1.582  0.5396  0.3355  0.2858
14529TIP3    H165078   2.659   5.100   1.659  0.4472  1.5062  1.0422
14529TIP3    H265079   2.670   5.106   1.508  1.7620  0.2529  1.0655
14530TIP3   OH265080   0.485   4.355  11.652  0.0410  0.1198 -0.2040
14530TIP3    H165081   0.442   4.295  11.714  0.3964  1.5473  1.5231
14530TIP3    H265082   0.415   4.383  11.593 -0.5999 -0.3677  0.3142
14531TIP3   OH265083   6.114   0.138  13.295  0.2155 -0.7906 -0.4651
14531TIP3    H165084   6.035   0.085  13.287  1.3637 -2.3439 -2.3353
14531TIP3    H265085   6.184   0.075  13.312  1.1698  0.5075  0.7339
14532TIP3   OH265086   4.731   6.249  11.670 -0.3028  0.3176  0.4614
14532TIP3    H165087   4.646   6.274  11.633  0.0373  0.3713 -0.3136
14532TIP3    H265088   4.745   6.160  11.639 -0.1799  0.2238  0.7850
14533TIP3   OH265089   3.405   5.692  15.184 -0.9220  0.2419  0.0269
14533TIP3    H165090   3.476   5.741  15.225 -0.1649  1.4610 -2.5457
14533TIP3    H265091   3.325   5.740  15.207 -0.6674  0.2041  1.0100
14534TIP3   OH265092   4.869   6.261  15.469 -0.2135  0.2013  0.4443
14534TIP3    H165093   4.856   6.167  15.476  1.3724  0.0518  2.0506
14534TIP3    H265094   4.937   6.271  15.402  0.0369  0.1767  0.6978
14535TIP3   OH265095   1.701   2.288  11.102  0.2421 -0.5284 -0.1081
14535TIP3    H165096   1.787   2.283  11.060  0.2307 -0.3109 -0.1640
14535TIP3    H265097   1.699   2.214  11.162  1.3161  0.6308  1.4608
14536TIP3   OH265098   5.058   5.160   2.708 -0.2789 -0.4118  0.7393
14536TIP3    H165099   4.992   5.230   2.710  0.9749  1.2594 -3.4597
14536TIP3    H265100   5.129   5.193   2.763 -1.0782  0.0058  1.5416
14537TIP3   OH265101   1.864   3.165   4.133 -0.5172 -0.2377 -0.2082
14537TIP3    H165102   1.789   3.187   4.188 -0.4251  0.0160 -0.1823
14537TIP3    H265103   1.890   3.248   4.094 -0.2416 -0.3238 -0.2073
14538TIP3   OH265104   5.764   3.530   4.860  0.0200 -0.5317 -0.2111
14538TIP3    H165105   5.746   3.585   4.784 -0.3091 -0.7937 -0.3267
14538TIP3    H265106   5.827   3.580   4.912  0.6140 -0.5678 -0.8949
14539TIP3   OH265107   3.451   0.981   3.154  0.2543 -0.5408 -0.5875
14539TIP3    H165108   3.397   1.057   3.133  0.2108 -0.6806 -0.9944
14539TIP3    H265109   3.388   0.911   3.170  0.1735  0.0595  2.2329
14540TIP3   OH265110   5.519   2.466  16.518 -0.2075 -0.6166 -0.8737
14540TIP3    H165111   5.607   2.446  16.551 -0.3233 -0.0638 -0.1982
14540TIP3    H265112   5.483   2.381  16.492 -0.2408 -1.1487  0.7853
14541TIP3   OH265113   6.449   5.205   1.039 -0.3331  0.6132  0.0884
14541TIP3    H165114   6.450   5.117   1.075  0.1248  0.8608  0.7097
14541TIP3    H265115   6.528   5.247   1.075 -1.7959  2.0618  1.8396
14542TIP3   OH265116   0.935   4.523   5.934 -0.1482  0.2938 -0.4910
14542TIP3    H165117   1.017   4.553   5.894  1.8775 -0.9852  2.3364
14542TIP3    H265118   0.941   4.428   5.934 -0.9029  0.2035  1.0717
14543TIP3   OH265119   6.326   0.391   4.410  0.6475 -0.0902  0.3534
14543TIP3    H165120   6.302   0.362   4.498 -0.1081 -0.1592  0.1289
14543TIP3    H265121   6.283   0.476   4.399 -1.3218 -1.1927 -0.8488
14544TIP3   OH265122   6.030   6.129  10.947 -0.1721 -0.5303 -0.2461
14544TIP3    H165123   6.016   6.179  11.027  1.5677 -0.8427  0.2905
14544TIP3    H265124   6.006   6.190  10.877  3.9500  2.0540  0.2381
14545TIP3   OH265125   0.688   3.672  15.131 -0.4781  0.4848  0.1107
14545TIP3    H165126   0.633   3.692  15.207  0.1505  1.4390  0.3334
14545TIP3    H265127   0.763   3.731  15.139  0.4063 -0.5269 -0.3874
14546TIP3   OH265128   3.133   3.387   0.245  0.2227 -0.1991  0.1752
14546TIP3    H165129   3.180   3.470   0.237  0.4602 -0.5037 -2.8023
14546TIP3    H265130   3.045   3.405   0.212 -0.0538 -0.9244  0.4842
14547TIP3   OH265131   4.930   4.458   5.126  0.4416 -0.0722  0.2495
14547TIP3    H165132   4.916   4.370   5.092  1.0081 -0.2085  0.3626
14547TIP3    H265133   4.894   4.455   5.215 -0.6065  0.1506 -0.1542
14548TIP3   OH265134   4.576   6.250   1.622 -0.0973 -0.0450  0.2980
14548TIP3    H165135   4.495   6.205   1.597  0.5248 -1.0237 -0.0168
14548TIP3    H265136   4.640   6.180   1.631  0.5063  0.6289  1.4231
14549TIP3   OH265137   5.656   3.988   2.819  0.3318  0.0829  0.2622
14549TIP3    H165138   5.575   4.032   2.792  0.8603 -0.0234 -1.6330
14549TIP3    H265139   5.637   3.956   2.908 -1.5572  0.4166  0.0313
14550TIP3   OH265140   2.142   5.030   2.343 -0.5386 -0.0527  0.3900
14550TIP3    H165141   2.087   4.957   2.373  0.1249 -0.6641  0.1752
14550TIP3    H265142   2.146   5.019   2.248 -1.0583  0.7283  0.2704
14551TIP3   OH265143   5.399   5.104  15.169 -0.6350  0.2299 -0.2870
14551TIP3    H165144   5.463   5.064  15.227  0.7286  1.2066 -1.0577
14551TIP3    H265145   5.377   5.035  15.106 -1.2303 -0.4611  0.6507
14552TIP3   OH265146   1.643   2.714  15.022 -0.6814  0.2159 -0.3156
14552TIP3    H165147   1.700   2.768  14.967  0.1966  0.4015  0.7558
14552TIP3    H265148   1.703   2.658  15.071 -1.3453  0.9573  1.4037
14553TIP3   OH265149   5.607   2.477  15.978 -0.3535  0.2883 -0.1988
14553TIP3    H165150   5.577   2.412  15.914  0.2285 -0.3340  0.1447
14553TIP3    H265151   5.569   2.447  16.061  1.2733 -0.6003  0.2724
14554TIP3   OH265152   0.408   2.585   1.904  0.1176 -0.0053  0.6879
14554TIP3    H165153   0.435   2.625   1.987  1.5877 -0.1461  0.3208
14554TIP3    H265154   0.394   2.493   1.925 -1.6395  0.3488  1.1960
14555TIP3   OH265155   6.277   6.578  15.012 -0.1452 -0.1439  0.1080
14555TIP3    H165156   6.181   6.576  15.015 -0.1296 -0.4656  0.3121
14555TIP3    H265157   6.303   6.488  14.997  0.2171 -0.4975  2.5211
14556TIP3   OH265158   6.330   3.852   0.009 -0.3075  0.8150  0.4023
14556TIP3    H165159   6.340   3.766   0.050 -1.4280  0.2803 -0.4027
14556TIP3    H265160   6.260   3.840  -0.055  0.8481  1.8163 -1.1229
14557TIP3   OH265161   2.149   1.214  11.369 -0.3680  0.6402 -0.4195
14557TIP3    H165162   2.109   1.204  11.282  1.0520  0.0815 -1.0348
14557TIP3    H265163   2.172   1.307  11.374 -1.0916  0.8217 -0.3422
14558TIP3   OH265164   4.081   4.218   4.111 -0.1194  0.3421 -0.3331
14558TIP3    H165165   4.042   4.176   4.035 -1.7882  1.2807 -0.0588
14558TIP3    H265166   4.097   4.309   4.084  0.9677  0.2367 -0.1093
14559TIP3   OH265167   1.297   2.932   3.093 -0.1270 -0.3999  0.5923
14559TIP3    H165168   1.229   2.917   3.027 -0.8124  0.5111  1.0600
14559TIP3    H265169   1.307   2.848   3.137  1.1787 -1.3627 -1.4102
14560TIP3   OH265170   0.011   2.300  11.697  0.1561 -0.5279  0.3551
14560TIP3    H165171  -0.059   2.365  11.706  1.0909  0.2981  2.0848
14560TIP3    H265172  -0.026   2.220  11.735  0.0983 -0.1137  1.1988
14561TIP3   OH265173   0.366   0.335   1.242  1.1454  0.3086  0.5502
14561TIP3    H165174   0.302   0.264   1.229  0.1446  1.3315 -0.3122
14561TIP3    H265175   0.451   0.291   1.238  0.5849 -0.7424 -0.8626
14562TIP3   OH265176   6.439   1.649  15.039  0.0827  0.4359 -0.4583
14562TIP3    H165177   6.505   1.579  15.042 -0.0807  0.2781 -0.5210
14562TIP3    H265178   6.472   1.710  14.974  0.8486  1.0490  0.4638
14563TIP3   OH265179   2.781   2.015  15.794 -0.3548  0.0639  0.1062
14563TIP3    H165180   2.740   1.939  15.835 -2.4016  1.4038  0.7134
14563TIP3    H265181   2.851   2.041  15.854 -1.3685  0.2152  1.2534
14564TIP3   OH265182   0.251   5.120   2.755 -0.2771 -0.3774  0.0508
14564TIP3    H165183   0.175   5.095   2.702  0.0303  0.1763 -0.6684
14564TIP3    H265184   0.221   5.195   2.806 -0.0073  0.3097 -0.7799
14565TIP3   OH265185   3.443   2.699   2.078 -0.6120 -0.2601  0.0501
14565TIP3    H165186   3.536   2.691   2.099 -0.7439  0.0938  0.8143
14565TIP3    H265187   3.437   2.780   2.027 -0.8628  1.3657  2.4982
14566TIP3   OH265188   1.239   0.839   1.604  0.0056 -0.6818 -0.2084
14566TIP3    H165189   1.321   0.852   1.557 -0.9231 -1.1076 -2.0399
14566TIP3    H265190   1.263   0.847   1.696  1.7097  1.2733 -0.7450
14567TIP3   OH265191   4.595   2.417  14.341  0.7842 -0.6318 -0.1559
14567TIP3    H165192   4.509   2.398  14.305  0.5721 -1.4290  0.7417
14567TIP3    H265193   4.643   2.456  14.268 -0.4039  0.0673 -0.6020
14568TIP3   OH265194   3.086   3.344  14.880  0.2662 -0.1412  0.2456
14568TIP3    H165195   3.096   3.306  14.967  3.5967  0.7034  0.3726
14568TIP3    H265196   3.048   3.273  14.828  2.2887 -2.2647  1.4403
14569TIP3   OH265197   3.425   2.518  15.127 -0.5107 -0.2935 -0.2007
14569TIP3    H165198   3.391   2.539  15.040 -1.2306  0.8742  0.3426
14569TIP3    H265199   3.520   2.523  15.118 -0.5889  2.5221 -0.3309
14570TIP3   OH265200   5.637   3.889   6.521 -0.2217 -0.6089  0.1045
14570TIP3    H165201   5.616   3.935   6.602 -2.1570 -0.9772 -0.1598
14570TIP3    H265202   5.729   3.864   6.531  0.1325  1.0260  1.3449
14571TIP3   OH265203   6.087   6.216  12.689  0.1187 -0.2109 -0.1764
14571TIP3    H165204   6.083   6.308  12.712 -2.6612 -0.8555  2.5951
14571TIP3    H265205   6.017   6.205  12.623 -0.3216 -0.4942  0.3277
14572TIP3   OH265206   5.210   5.067  11.544  0.1770  0.1301  0.3613
14572TIP3    H165207   5.154   5.084  11.469  0.6275  1.2633  0.2626
14572TIP3    H265208   5.227   4.973  11.540  0.3341  0.1970 -1.0635
14573TIP3   OH265209   0.857   0.284   3.657  0.0334  0.1885  0.1516
14573TIP3    H165210   0.777   0.337   3.659  0.2039  0.5427 -1.2364
14573TIP3    H265211   0.925   0.343   3.689  0.0028  0.4158 -0.1899
14574TIP3   OH265212   3.416   6.552  15.534  0.2912  0.2631  0.3171
14574TIP3    H165213   3.497   6.518  15.572 -0.0384 -0.0480  0.7439
14574TIP3    H265214   3.352   6.482  15.547 -0.1253  0.6282  0.2486
14575TIP3   OH265215   4.167   4.264  17.062 -0.1528  0.4227 -0.0313
14575TIP3    H165216   4.235   4.327  17.084  0.2659  0.1906 -0.6251
14575TIP3    H265217   4.090   4.318  17.043  0.0680  0.7323 -0.0613
14576TIP3   OH265218   6.734   1.288  12.291  0.0479 -0.0448  0.5949
14576TIP3    H165219   6.715   1.340  12.369  0.1323 -0.7017  1.0652
14576TIP3    H265220   6.708   1.199  12.315 -0.3921 -0.1683 -0.3094
14577TIP3   OH265221   3.823   1.729   0.365  0.3219  0.7200 -0.4881
14577TIP3    H165222   3.886   1.690   0.306  2.0770  2.4298  0.1475
14577TIP3    H265223   3.851   1.702   0.453 -0.2907  0.8680 -0.2359
14578TIP3   OH265224   1.133   4.623   5.771  0.1436  0.7289  0.6490
14578TIP3    H165225   1.122   4.701   5.826 -0.6771  0.8808  0.2924
14578TIP3    H265226   1.167   4.657   5.688 -0.8853  0.8197  0.2437
14579TIP3   OH265227   2.300   1.454  12.318  0.3068 -0.0786  0.1254
14579TIP3    H165228   2.365   1.513  12.356 -0.1623 -0.0344  0.8808
14579TIP3    H265229   2.351   1.379  12.288  0.9265  0.7534 -0.9746
14580TIP3   OH265230   0.584   0.670   3.628  0.0020  0.3520  0.1790
14580TIP3    H165231   0.507   0.716   3.594 -0.7118  0.1712  1.4856
14580TIP3    H265232   0.655   0.696   3.569 -0.8627  1.2617 -0.5062
14581TIP3   OH265233   4.959   0.574   2.474  0.5852  0.6398 -0.3911
14581TIP3    H165234   5.025   0.629   2.516  1.6278 -0.5610 -0.4095
14581TIP3    H265235   4.908   0.635   2.420  0.7346  1.8154  0.7474
14582TIP3   OH265236   2.841   1.892  13.242 -0.0961  0.4481 -0.0071
14582TIP3    H165237   2.823   1.824  13.307  1.6135  1.4665  1.6439
14582TIP3    H265238   2.793   1.864  13.164  0.5900 -2.7009  0.5485
14583TIP3   OH265239   0.323   1.109  14.091  0.4782  0.3078 -0.0086
14583TIP3    H165240   0.375   1.189  14.082  0.6192  0.3673  1.1146
14583TIP3    H265241   0.247   1.136  14.143  0.7323 -0.3566  0.7231
14584TIP3   OH265242   3.291   4.955  14.159 -0.0182 -0.0965 -0.2277
14584TIP3    H165243   3.325   4.895  14.225  0.2340  0.1189 -0.1626
14584TIP3    H265244   3.217   4.998  14.202  1.9125  2.2428  1.0161
14585TIP3   OH265245   3.925   0.730   6.583  0.0238 -0.4777  0.5079
14585TIP3    H165246   4.003   0.783   6.600  1.0176 -1.7576  0.0773
14585TIP3    H265247   3.945   0.645   6.623 -0.6915 -1.1582 -0.5390
14586TIP3   OH265248   0.884   0.548  14.033  0.7780  0.5836  0.0170
14586TIP3    H165249   0.825   0.592  14.095  0.0672 -0.2510 -0.0562
14586TIP3    H265250   0.923   0.620  13.983  2.4948  1.4124  2.3686
14587TIP3   OH265251   5.961   2.731   3.709 -0.3614  0.3413  0.2401
14587TIP3    H165252   5.966   2.747   3.615  1.1927 -0.6080  0.1332
14587TIP3    H265253   5.868   2.744   3.730 -0.9017 -0.2781 -1.5684
14588TIP3   OH265254   2.271   1.800  10.752  0.3044 -0.0720  0.1108
14588TIP3    H165255   2.289   1.708  10.770 -1.4363 -0.7643 -1.3627
14588TIP3    H265256   2.200   1.799  10.688  0.2862  2.3079 -0.0189
14589TIP3   OH265257   5.813   3.541   5.354 -0.6547  0.4703  0.0435
14589TIP3    H165258   5.772   3.626   5.338  2.0927  1.9964  0.4850
14589TIP3    H265259   5.824   3.537   5.450  0.4072  0.2251 -0.0751
14590TIP3   OH265260   5.916   3.131  14.237 -0.9715  0.2457  0.3002
14590TIP3    H165261   6.006   3.097  14.230 -0.3783  1.7489  0.2680
14590TIP3    H265262   5.887   3.102  14.323  0.2358  1.2914  1.0877
14591TIP3   OH265263   3.909   5.887  12.849 -0.0270  0.0356 -0.1167
14591TIP3    H165264   3.932   5.947  12.919 -1.7527  1.9890 -1.1072
14591TIP3    H265265   3.977   5.900  12.783 -0.1949  0.6607 -0.1729
14592TIP3   OH265266   0.760   2.882   1.186  0.5370  0.0035 -0.3215
14592TIP3    H165267   0.710   2.953   1.226 -0.1699 -0.0620 -1.0491
14592TIP3    H265268   0.771   2.817   1.255 -1.0374 -0.3062 -0.3320
14593TIP3   OH265269   0.550   3.099  12.079  0.1291  0.4248  0.0961
14593TIP3    H165270   0.461   3.132  12.066 -0.1344 -0.1885  0.3268
14593TIP3    H265271   0.556   3.023  12.021  0.3838  0.2641  0.3297
14594TIP3   OH265272   1.892   6.262   0.625 -0.0920 -0.5322 -0.7676
14594TIP3    H165273   1.973   6.226   0.661  1.4301  3.4128  0.3909
14594TIP3    H265274   1.920   6.343   0.582 -3.4461  1.1757 -0.0641
14595TIP3   OH265275   2.977   6.739  16.369  0.2294 -0.1592 -0.7514
14595TIP3    H165276   2.886   6.718  16.391 -0.0440  0.2487 -1.4362
14595TIP3    H265277   3.008   6.662  16.320  0.7030 -0.8831  0.6396
14596TIP3   OH265278   4.389   1.464  13.252 -0.0162  0.0819  0.9339
14596TIP3    H165279   4.360   1.374  13.241  0.6339 -0.1328  0.9475
14596TIP3    H265280   4.319   1.506  13.303 -1.0729  0.0167 -0.4100
14597TIP3   OH265281   4.005   2.208  11.709 -0.2707  0.7121  0.0483
14597TIP3    H165282   4.039   2.272  11.772  2.6689  1.1242 -1.7313
14597TIP3    H265283   4.016   2.250  11.624  0.6353 -1.6377 -1.0948
14598TIP3   OH265284   1.443   3.282  10.906 -0.0292 -0.3957 -0.1137
14598TIP3    H165285   1.412   3.358  10.857  1.2295 -0.5032 -1.1333
14598TIP3    H265286   1.477   3.319  10.988  0.0566  0.0747 -0.3559
14599TIP3   OH265287   6.298   2.075  11.607 -0.4148  0.3698 -0.0650
14599TIP3    H165288   6.326   2.029  11.528 -0.4569 -0.1530  0.2183
14599TIP3    H265289   6.304   2.168  11.585 -0.0928  0.2307 -0.5657
14600TIP3   OH265290   2.022   4.101  12.902 -0.0864  0.1112 -0.0192
14600TIP3    H165291   2.010   4.169  12.836 -1.2458 -0.2403 -0.1882
14600TIP3    H265292   2.064   4.146  12.976  0.0161  0.7913 -0.4861
14601TIP3   OH265293   5.696   4.184   3.132  0.4815 -0.2392  0.2447
14601TIP3    H165294   5.640   4.262   3.131 -0.0621 -0.5778  1.7530
14601TIP3    H265295   5.783   4.217   3.158  1.2014  0.3649 -2.5856
14602TIP3   OH265296   3.605   0.721   3.725  0.9562  0.3579  0.2165
14602TIP3    H165297   3.693   0.749   3.749  1.9501 -2.3245 -0.0441
14602TIP3    H265298   3.591   0.640   3.774  0.4747 -1.7600 -3.1310
14603TIP3   OH265299   6.054   0.454  14.671  0.2854  0.2023  0.0119
14603TIP3    H165300   6.126   0.505  14.634  1.1945 -0.6324  0.5911
14603TIP3    H265301   6.005   0.424  14.594  0.9248  0.2409 -0.4263
14604TIP3   OH265302   2.670   3.773  12.925 -0.2312  0.0597 -0.0280
14604TIP3    H165303   2.758   3.781  12.888 -0.1990  2.7128  0.4216
14604TIP3    H265304   2.678   3.813  13.012 -1.5059 -1.2622  0.7324
14605TIP3   OH265305   1.206   6.284   5.915 -0.3410 -0.5703 -0.4027
14605TIP3    H165306   1.177   6.222   5.983 -0.5921 -0.5441 -0.4842
14605TIP3    H265307   1.301   6.283   5.921 -0.2464 -2.1525 -1.4417
14606TIP3   OH265308   2.049   1.267   3.459  0.3082 -0.4116  0.1093
14606TIP3    H165309   2.031   1.295   3.548 -2.7462  0.0260 -0.5454
14606TIP3    H265310   2.063   1.348   3.410  0.0408 -0.5363 -0.1771
14607TIP3   OH265311   0.388   1.561   5.780 -0.3082  0.0914  0.8187
14607TIP3    H165312   0.433   1.608   5.709 -0.0072  0.4170  1.2216
14607TIP3    H265313   0.304   1.536   5.742  1.2592 -3.1238 -0.9821
14608TIP3   OH265314   6.278   4.684  16.257  0.2895  0.0827  0.2925
14608TIP3    H165315   6.314   4.611  16.307 -1.4912 -1.9309 -1.1512
14608TIP3    H265316   6.350   4.746  16.248  2.9662 -2.9417 -1.0959
14609TIP3   OH265317   1.444   1.693   1.182 -0.2242 -0.1195 -0.2292
14609TIP3    H165318   1.373   1.683   1.246  1.2650 -3.1815  1.1313
14609TIP3    H265319   1.400   1.692   1.097 -1.8974 -0.9860  0.5983
14610TIP3   OH265320   4.619   1.755  15.479 -0.0352  0.5470 -0.2211
14610TIP3    H165321   4.632   1.806  15.399 -2.0277  1.0583 -0.2560
14610TIP3    H265322   4.573   1.814  15.538 -1.0484 -0.7136  0.2903
14611TIP3   OH265323   6.818   3.438  15.267  0.1924  0.6596 -0.0670
14611TIP3    H165324   6.750   3.466  15.206 -0.0604  1.5669  0.5935
14611TIP3    H265325   6.876   3.514  15.275  1.3213 -0.1204 -0.6535
14612TIP3   OH265326   0.155   6.179   3.559 -0.3314  0.3857 -0.2676
14612TIP3    H165327   0.226   6.116   3.547 -0.9229 -0.1823 -0.8127
14612TIP3    H265328   0.155   6.196   3.653  0.4478  0.2984 -0.2448
14613TIP3   OH265329   2.001   4.319   0.642  0.3226  0.7654  0.4468
14613TIP3    H165330   2.086   4.285   0.615  0.4170  0.7156  0.8070
14613TIP3    H265331   2.008   4.330   0.737 -1.3558 -3.0981  1.2357
14614TIP3   OH265332   0.022   4.187  10.373 -0.2974 -0.1011 -0.3962
14614TIP3    H165333  -0.019   4.273  10.363 -0.6789 -0.2470 -0.1102
14614TIP3    H265334   0.007   4.163  10.465 -0.6251 -0.6904 -0.5985
14615TIP3   OH265335   1.576   4.336   3.132 -0.8636  0.1020  0.0009
14615TIP3    H165336   1.528   4.274   3.079 -2.8027  0.2043  1.5277
14615TIP3    H265337   1.543   4.422   3.105 -1.9492  0.1515  1.3548
14616TIP3   OH265338   1.478   4.637   3.088  0.2883 -0.3578 -0.4740
14616TIP3    H165339   1.435   4.655   3.004 -0.1814  0.0113 -0.1663
14616TIP3    H265340   1.547   4.703   3.094  0.2684 -0.3312 -0.5336
14617TIP3   OH265341   3.342   4.073  16.513  0.0750 -0.4502 -0.0893
14617TIP3    H165342   3.364   4.146  16.455 -0.0499 -0.9271 -0.7469
14617TIP3    H265343   3.344   3.996  16.457 -0.7477 -0.8393  0.3903
14618TIP3   OH265344   2.135   6.806   4.326  0.0989  0.4860  0.5713
14618TIP3    H165345   2.114   6.843   4.240  0.6473 -0.6833 -0.0819
14618TIP3    H265346   2.053   6.814   4.376 -0.2600  1.0491 -0.0913
14619TIP3   OH265347   3.990   3.979  16.237  0.6464 -0.5313 -0.0459
14619TIP3    H165348   4.018   3.900  16.192 -1.9759 -0.6722 -1.6001
14619TIP3    H265349   3.993   4.047  16.170 -2.2995 -0.5280 -0.2900
14620TIP3   OH265350   3.790   1.541   3.803  0.0016 -0.4522  0.0866
14620TIP3    H165351   3.742   1.619   3.773  1.3045 -0.0232 -0.9460
14620TIP3    H265352   3.831   1.568   3.885  2.3932  0.7838 -1.4290
14621TIP3   OH265353   0.995   2.775  15.297  0.2216 -0.4939  0.1979
14621TIP3    H165354   1.079   2.735  15.319  0.3613  0.7162  2.0571
14621TIP3    H265355   0.930   2.723  15.346 -0.0373 -0.8611 -0.5165
14622TIP3   OH265356   1.161   6.821   2.058  0.4720 -0.3238 -0.2601
14622TIP3    H165357   1.167   6.747   2.119  2.6501  0.5812  0.7200
14622TIP3    H265358   1.071   6.852   2.066  0.7367 -0.0711  2.7861
14623TIP3   OH265359   5.925   1.346  10.399 -0.1321 -0.0697  0.4971
14623TIP3    H165360   5.971   1.382  10.324 -0.6090  2.4112  1.2827
14623TIP3    H265361   5.965   1.260  10.414  0.9584  0.0049 -1.6552
14624TIP3   OH265362   0.363   4.693   4.832  0.2393 -0.4804  0.3310
14624TIP3    H165363   0.419   4.739   4.895  1.6426 -0.0422 -1.1879
14624TIP3    H265364   0.289   4.753   4.819  0.5014 -0.0652  0.6914
14625TIP3   OH265365   6.836   6.623   2.433 -0.1157 -0.1076  0.4445
14625TIP3    H165366   6.903   6.608   2.500  0.8799  0.2922 -0.4281
14625TIP3    H265367   6.872   6.583   2.354 -0.3364  1.2001 -0.3471
14626TIP3   OH265368   1.563   4.818   1.061  0.2206 -0.0442 -0.0876
14626TIP3    H165369   1.571   4.803   1.155  0.9477 -0.7576 -0.2550
14626TIP3    H265370   1.525   4.737   1.027 -0.1536  0.2578 -0.3968
14627TIP3   OH265371   5.316   1.269   6.673 -0.5658  0.2060 -0.0303
14627TIP3    H165372   5.331   1.313   6.756  0.9959  0.2229 -0.2959
14627TIP3    H265373   5.331   1.176   6.691 -4.2337 -0.4390  0.6265
14628TIP3   OH265374   4.047   0.296  14.636  0.1931  0.2115  1.0288
14628TIP3    H165375   4.026   0.245  14.714  2.7360 -2.0554  0.4014
14628TIP3    H265376   4.017   0.242  14.563  1.5013  0.3255  0.3767
14629TIP3   OH265377   5.811   0.238   1.645  0.3146 -0.6107  0.1770
14629TIP3    H165378   5.880   0.267   1.585  0.3566  0.5714  0.7849
14629TIP3    H265379   5.729   0.256   1.598  0.3538  0.0748  0.3701
14630TIP3   OH265380   3.071   5.839  17.026 -0.1012  0.0865  0.6859
14630TIP3    H165381   3.124   5.881  17.094  1.2670 -0.7299  0.1711
14630TIP3    H265382   3.107   5.872  16.944  0.3488 -1.2814  0.3022
14631TIP3   OH265383   3.177   5.116  13.336 -0.3212 -0.3633  0.2630
14631TIP3    H165384   3.232   5.067  13.275  0.9875  0.9047  0.3723
14631TIP3    H265385   3.172   5.204  13.298 -1.0618 -0.0679  1.0238
14632TIP3   OH265386   2.154   6.316   3.808 -0.2570  0.5092 -0.3977
14632TIP3    H165387   2.211   6.241   3.826 -1.2547 -0.1475  0.1509
14632TIP3    H265388   2.085   6.281   3.753  0.0599  1.3889 -1.3865
14633TIP3   OH265389   6.727   1.145   1.234 -0.1697 -0.3437  0.4442
14633TIP3    H165390   6.699   1.212   1.296  1.3385 -0.6507  1.5128
14633TIP3    H265391   6.772   1.194   1.164 -1.3753 -0.0502 -0.1608
14634TIP3   OH265392   0.532   2.464  16.407 -0.5765  0.0704 -0.3593
14634TIP3    H165393   0.516   2.557  16.393 -0.7878  0.2381  0.9353
14634TIP3    H265394   0.466   2.437  16.471  1.4334 -0.2508  1.6731
14635TIP3   OH265395   3.476   3.094   1.471  1.0062 -0.6681  0.0469
14635TIP3    H165396   3.443   3.158   1.534 -0.2316 -1.1746 -0.0388
14635TIP3    H265397   3.539   3.141   1.417  1.2050  0.0761  0.9159
14636TIP3   OH265398   2.327   2.572   3.511 -0.2147  0.5664 -0.1308
14636TIP3    H165399   2.285   2.598   3.593 -0.5501 -1.0299  0.2373
14636TIP3    H265400   2.418   2.558   3.535 -0.5501 -1.0658  0.2628
14637TIP3   OH265401   4.211   4.452  11.088  0.1089  0.0874  0.4499
14637TIP3    H165402   4.118   4.431  11.077  0.5008 -1.5121 -0.1154
14637TIP3    H265403   4.234   4.414  11.173  0.3825 -0.0388  0.3207
14638TIP3   OH265404   6.490   4.896  11.270 -0.1995 -0.3145 -0.1652
14638TIP3    H165405   6.444   4.905  11.354  0.0603 -2.1959  0.2285
14638TIP3    H265406   6.566   4.954  11.278 -1.0767  0.8079  0.2138
14639TIP3   OH265407   1.989   3.025  11.516 -0.3896  1.0366  0.7522
14639TIP3    H165408   2.055   3.073  11.466  0.6800 -0.3366  0.8124
14639TIP3    H265409   2.038   2.960  11.565 -1.8652 -0.7335 -0.0165
14640TIP3   OH265410   2.657   4.831   1.978  0.8200 -0.1055 -0.2373
14640TIP3    H165411   2.576   4.842   2.027  1.5926  0.9961  0.8666
14640TIP3    H265412   2.690   4.746   2.006 -0.6798 -1.2959 -1.8783
14641TIP3   OH265413   0.053   5.395  10.639  0.1323  0.5422 -0.5128
14641TIP3    H165414  -0.042   5.388  10.630 -0.0048  1.7690 -0.1079
14641TIP3    H265415   0.071   5.489  10.640  1.3703  0.3275 -0.7270
14642TIP3   OH265416   3.064   5.827  11.121  0.1456 -0.2483 -0.5395
14642TIP3    H165417   3.000   5.896  11.138 -1.4297 -1.7450 -0.0232
14642TIP3    H265418   3.120   5.862  11.052  0.1614  1.9809  0.5256
14643TIP3   OH265419   6.320   6.667   1.539  0.2368 -0.4225  0.0574
14643TIP3    H165420   6.404   6.691   1.501 -0.1857  0.3823 -0.4051
14643TIP3    H265421   6.340   6.596   1.600  1.1440 -0.7037 -0.5532
14644TIP3   OH265422   2.451   6.760   3.869 -0.1055 -0.0306  0.1021
14644TIP3    H165423   2.371   6.748   3.920 -0.9011 -0.9965 -1.3186
14644TIP3    H265424   2.507   6.687   3.895 -1.5641 -2.1445 -2.2417
14645TIP3   OH265425   0.633   4.040   3.084 -0.4490 -0.4262  0.1930
14645TIP3    H165426   0.660   3.987   3.009 -1.5376 -0.0730 -0.4665
14645TIP3    H265427   0.716   4.069   3.124  0.1573 -1.9731  0.1214
14646TIP3   OH265428   3.373   5.819  12.197 -0.5111  0.4869  0.0399
14646TIP3    H165429   3.331   5.790  12.116 -0.4130 -1.2804  0.5887
14646TIP3    H265430   3.372   5.742  12.254  1.2219  1.1095  0.9918
14647TIP3   OH265431   6.392   3.092  12.485 -0.3156 -0.1353  0.0945
14647TIP3    H165432   6.330   3.064  12.552 -0.8182  1.0601  0.1573
14647TIP3    H265433   6.412   3.013  12.436 -0.8608 -0.7952  0.9112
14648TIP3   OH265434   5.924   4.523   5.733  0.2795  0.1153 -1.3868
14648TIP3    H165435   5.958   4.567   5.811 -0.8531 -0.2566 -0.6616
14648TIP3    H265436   5.829   4.525   5.744  0.1601 -2.1223 -1.5092
14649TIP3   OH265437   1.702   1.215   2.415 -0.0507  0.1307 -0.5357
14649TIP3    H165438   1.754   1.233   2.336 -0.5714  1.2447 -0.6508
14649TIP3    H265439   1.724   1.286   2.475  0.4207 -0.7668  0.3795
14650TIP3   OH265440   3.901   3.905  14.707  0.2291  0.3830 -0.3022
14650TIP3    H165441   3.822   3.958  14.700  0.4130  1.1627  2.4698
14650TIP3    H265442   3.870   3.815  14.714 -0.4329  0.6816  0.7359
14651TIP3   OH265443   5.967   2.161   0.601 -0.7139 -0.0518  0.4270
14651TIP3    H165444   6.053   2.181   0.637 -0.4843  0.3524 -0.3497
14651TIP3    H265445   5.958   2.217   0.524 -1.8280  0.1947  0.7149
14652TIP3   OH265446   4.631   5.989  15.255  0.8909 -0.4094 -0.3341
14652TIP3    H165447   4.723   5.966  15.268  0.5783 -1.4004  0.2428
14652TIP3    H265448   4.592   5.982  15.342  0.4267  0.7769 -0.4370
14653TIP3   OH265449   5.147   3.472   4.844 -0.2736 -0.7472  0.2382
14653TIP3    H165450   5.195   3.449   4.764  0.2491 -1.9305  0.8611
14653TIP3    H265451   5.062   3.503   4.813  0.4743  0.3194 -0.8372
14654TIP3   OH265452   1.707   0.985  15.777  0.1308  0.3085  0.4814
14654TIP3    H165453   1.664   1.047  15.836 -0.1041  0.8778 -0.2676
14654TIP3    H265454   1.671   1.006  15.691  0.8774 -0.1386  0.0553
14655TIP3   OH265455   0.576   0.176   1.606  0.0481  0.0265 -0.2837
14655TIP3    H165456   0.641   0.216   1.663  0.1171 -0.6719  0.1369
14655TIP3    H265457   0.580   0.082   1.626  1.2296 -0.4871 -2.5857
14656TIP3   OH265458   2.726   1.267   3.105  0.0299  0.0897 -0.3775
14656TIP3    H165459   2.776   1.242   3.028 -1.4012  0.7250 -1.5538
14656TIP3    H265460   2.653   1.205   3.108 -0.1963  0.3721  0.1922
14657TIP3   OH265461   6.627   6.716  11.612  0.4587  0.0801 -0.1924
14657TIP3    H165462   6.644   6.678  11.698 -0.2107  0.6356  0.1987
14657TIP3    H265463   6.639   6.644  11.550  0.0972 -0.5335  0.4448
14658TIP3   OH265464   2.834   4.914  12.795 -0.2105  0.1008 -0.0670
14658TIP3    H165465   2.832   4.875  12.882  1.2394 -0.5075 -0.2800
14658TIP3    H265466   2.758   4.973  12.794  0.6067  1.3503  2.1856
14659TIP3   OH265467   1.683   0.461   2.329 -0.8538  0.4106  0.3010
14659TIP3    H165468   1.655   0.531   2.270  0.1860  0.3841 -0.2509
14659TIP3    H265469   1.604   0.408   2.343 -1.4619  1.2502  0.1148
14660TIP3   OH265470   6.404   4.755   4.684  0.4334 -0.6260  0.0273
14660TIP3    H165471   6.486   4.720   4.648  0.9701  1.0204 -0.4387
14660TIP3    H265472   6.385   4.698   4.758  1.6735 -1.4218 -0.2264
14661TIP3   OH265473   5.431   6.785   0.673  0.0709  0.1916  0.1895
14661TIP3    H165474   5.364   6.843   0.638  0.8807 -0.2111 -2.1810
14661TIP3    H265475   5.499   6.783   0.607  0.8809 -2.0828  0.9781
14662TIP3   OH265476   1.938   5.083  14.316  0.5489 -0.1569 -0.0330
14662TIP3    H165477   1.984   5.152  14.268  0.1826  0.1418  0.0369
14662TIP3    H265478   1.982   5.079  14.401  1.1117 -0.5928 -0.3371
14663TIP3   OH265479   0.082   4.785   1.226 -0.1151  0.2006 -0.0250
14663TIP3    H165480   0.067   4.693   1.201 -1.1567  0.6652 -1.1963
14663TIP3    H265481   0.130   4.779   1.309  1.8615 -1.4123 -1.2053
14664TIP3   OH265482   4.430   0.458   1.376  0.0524 -0.2724 -0.1467
14664TIP3    H165483   4.464   0.373   1.405  0.0359 -0.3762 -0.4292
14664TIP3    H265484   4.337   0.444   1.361  0.0931 -0.2665 -0.4195
14665TIP3   OH265485   0.797   2.987  13.983  0.1869  0.3843 -0.3823
14665TIP3    H165486   0.745   3.048  13.930 -0.0253 -0.3990 -1.1026
14665TIP3    H265487   0.738   2.913  13.999  0.4847  0.3010  0.3580
14666TIP3   OH265488   5.663   0.755   2.881  0.0226 -0.5410 -0.9503
14666TIP3    H165489   5.669   0.850   2.868  1.0436 -0.3053  0.8915
14666TIP3    H265490   5.751   0.729   2.909 -0.5089 -1.8723 -0.4332
14667TIP3   OH265491   2.865   5.009   6.719  0.0582  1.1078  0.0150
14667TIP3    H165492   2.829   4.948   6.783  1.4431  1.3712  1.0965
14667TIP3    H265493   2.794   5.072   6.704 -1.2347 -0.4804 -0.8032
14668TIP3   OH265494   4.172   0.892   6.656  0.7171  0.1502  0.7325
14668TIP3    H165495   4.153   0.980   6.689  0.9260  0.1460  0.8689
14668TIP3    H265496   4.265   0.880   6.674  0.9142  0.2783 -0.1831
14669TIP3   OH265497   6.411   6.250  16.116 -0.0767 -0.0511  0.6081
14669TIP3    H165498   6.451   6.321  16.166  0.4896  0.1654 -0.1420
14669TIP3    H265499   6.480   6.218  16.059 -0.9429  0.2892 -0.6728
14670TIP3   OH265500   1.056   0.137  12.321  0.0530 -0.5514  0.3663
14670TIP3    H165501   1.103   0.214  12.290 -3.0381  1.2173 -0.3963
14670TIP3    H265502   1.108   0.063  12.292  0.8187  1.1612 -3.1595
14671TIP3   OH265503   4.019   0.352  11.663 -0.1802  0.1603  0.0632
14671TIP3    H165504   3.937   0.402  11.663 -0.7595 -0.7628 -0.7152
14671TIP3    H265505   4.080   0.407  11.615 -0.2280  1.0081  0.9302
14672TIP3   OH265506   6.530   5.892  14.227  0.3003  0.6369  0.4226
14672TIP3    H165507   6.457   5.945  14.193  1.2868  0.7002 -1.7610
14672TIP3    H265508   6.601   5.955  14.239  1.3565 -0.0467 -1.7993
14673TIP3   OH265509   4.429   3.022  11.256  0.1404  0.4641  0.1321
14673TIP3    H165510   4.351   3.017  11.200 -0.4891  1.4078  0.8789
14673TIP3    H265511   4.455   3.114  11.252 -0.1559  0.6410  1.6875
14674TIP3   OH265512   0.679   6.492   3.543  0.8960  0.9502  0.4316
14674TIP3    H165513   0.760   6.524   3.503 -0.0277 -0.3952 -2.8654
14674TIP3    H265514   0.659   6.412   3.495 -2.2574  1.0837  1.3182
14675TIP3   OH265515   3.607   2.492  14.030 -0.1751 -0.3672 -0.0881
14675TIP3    H165516   3.529   2.460  14.076 -1.3325  1.6856 -0.4851
14675TIP3    H265517   3.616   2.434  13.955 -0.1392 -1.8315  1.0191
14676TIP3   OH265518   5.000   1.990  11.514  0.2458 -0.0111 -0.0340
14676TIP3    H165519   4.945   2.065  11.537 -0.6509 -0.2992 -1.1716
14676TIP3    H265520   5.084   2.029  11.488 -0.0017  0.5535  0.0081
14677TIP3   OH265521   2.632   4.802   6.082 -0.1857  0.3449  0.0425
14677TIP3    H165522   2.658   4.877   6.135  0.7140 -0.2539  0.4614
14677TIP3    H265523   2.580   4.747   6.142  0.0161  0.1398  0.0309
14678TIP3   OH265524   1.745   5.327  15.058 -0.2288  0.2738 -0.3251
14678TIP3    H165525   1.751   5.280  14.975 -1.1740  0.5628 -0.5725
14678TIP3    H265526   1.757   5.259  15.125  2.1216  0.2854 -0.6696
14679TIP3   OH265527   5.579   5.481  11.721  0.4273  0.2387  0.5411
14679TIP3    H165528   5.571   5.563  11.771 -0.1534  0.0407  0.7784
14679TIP3    H265529   5.517   5.491  11.648  1.3255  0.5565 -0.1958
14680TIP3   OH265530   0.051   0.408   2.399 -0.2519 -0.1991 -0.3741
14680TIP3    H165531   0.020   0.399   2.489 -0.1068 -3.9397 -0.5663
14680TIP3    H265532   0.146   0.397   2.405 -0.1723  0.1093 -0.9604
14681TIP3   OH265533   1.251   5.605   1.911 -0.6167 -0.5329 -0.1190
14681TIP3    H165534   1.219   5.515   1.919  1.5546 -1.3698 -0.1194
14681TIP3    H265535   1.248   5.624   1.817  0.1544 -1.1201 -0.2719
14682TIP3   OH265536   0.214   2.122  16.793 -0.0262  0.3424  0.0732
14682TIP3    H165537   0.222   2.029  16.772 -1.0378  0.7024 -2.1929
14682TIP3    H265538   0.193   2.124  16.887  2.2461 -1.5480  0.7161
14683TIP3   OH265539   6.112   5.815   6.049  0.0960 -0.1262 -0.1753
14683TIP3    H165540   6.115   5.903   6.010  0.8138  0.7440  1.7147
14683TIP3    H265541   6.203   5.786   6.049  0.0759 -0.2010  0.6265
14684TIP3   OH265542   5.885   6.182   1.539 -0.4509  0.4856 -0.7395
14684TIP3    H165543   5.795   6.180   1.570 -0.1797  3.4110  0.6073
14684TIP3    H265544   5.932   6.122   1.597 -1.4947 -1.1933 -1.5630
14685TIP3   OH265545   4.132   4.993   2.296 -1.0180 -0.2629  0.0341
14685TIP3    H165546   4.216   4.963   2.259 -0.7535  0.6395 -0.1240
14685TIP3    H265547   4.076   5.007   2.220 -1.0685 -0.1498  0.0922
14686TIP3   OH265548   1.258   6.824  14.678  0.0538  0.0442  0.2893
14686TIP3    H165549   1.264   6.751  14.615  0.0035 -0.3586  0.7441
14686TIP3    H265550   1.275   6.783  14.763 -1.1000  0.3476  0.6885
14687TIP3   OH265551   6.272   4.512   6.007  0.4699  0.0624  0.2063
14687TIP3    H165552   6.349   4.530   6.061  2.1087 -2.4663 -1.1333
14687TIP3    H265553   6.282   4.567   5.930  0.7846 -0.0424  0.1730
14688TIP3   OH265554   5.140   6.616  13.982 -0.2174  0.0843  0.5766
14688TIP3    H165555   5.086   6.549  13.942 -0.1573 -0.4255  1.3297
14688TIP3    H265556   5.230   6.589  13.961 -0.1575 -0.5427  1.5783
14689TIP3   OH265557   5.911   4.383   2.980  0.3885 -0.0230  0.2382
14689TIP3    H165558   5.994   4.347   2.950  1.7456  1.6629  1.7952
14689TIP3    H265559   5.919   4.386   3.076 -1.5617 -0.0307  0.4399
14690TIP3   OH265560   4.652   5.398   4.744 -0.3265 -0.4518 -0.2429
14690TIP3    H165561   4.680   5.324   4.797 -0.5237 -0.1918  0.2297
14690TIP3    H265562   4.567   5.422   4.779 -0.0863  0.2565 -0.1259
14691TIP3   OH265563   5.494   5.562  13.813 -0.3162  0.0650 -0.4207
14691TIP3    H165564   5.473   5.552  13.906 -1.4135  0.6442 -0.5835
14691TIP3    H265565   5.571   5.619  13.812  1.3732 -2.0893  0.2006
14692TIP3   OH265566   3.880   2.162  14.699  0.1380 -0.0548  0.1566
14692TIP3    H165567   3.817   2.219  14.743 -0.7194 -0.2147 -0.8236
14692TIP3    H265568   3.952   2.153  14.761 -0.1450  1.3207  0.7205
14693TIP3   OH265569   5.993   5.964   3.209  0.0317 -0.9015 -0.6300
14693TIP3    H165570   6.077   5.943   3.250  0.3492  2.4316  0.7534
14693TIP3    H265571   5.931   5.901   3.247  1.4621 -1.9507  0.0527
14694TIP3   OH265572   3.189   2.870  15.776  0.4413 -1.1739  0.4583
14694TIP3    H165573   3.106   2.889  15.820  1.2171  0.8891  1.1942
14694TIP3    H265574   3.256   2.885  15.844  1.4938 -1.2062 -0.5384
14695TIP3   OH265575   4.138   1.447   3.638 -0.3670  0.2070  0.1813
14695TIP3    H165576   4.221   1.414   3.605 -0.7123  1.1914 -1.8420
14695TIP3    H265577   4.104   1.502   3.567 -0.5474  3.6605  2.6521
14696TIP3   OH265578   0.086   3.653  11.542  0.0923  0.1769 -0.6852
14696TIP3    H165579   0.008   3.606  11.571  2.0165 -1.0902  3.2875
14696TIP3    H265580   0.056   3.741  11.523 -2.5386 -0.7485 -1.1987
14697TIP3   OH265581   5.327   5.705  16.185 -0.0628  0.1575 -0.1514
14697TIP3    H165582   5.353   5.734  16.273 -0.2120  1.2134 -0.4464
14697TIP3    H265583   5.381   5.757  16.125 -1.4168  0.9738 -0.7217
14698TIP3   OH265584   3.153   5.752   5.037 -0.1470 -0.0147  0.4917
14698TIP3    H165585   3.232   5.802   5.056  1.4989 -1.1787 -2.5719
14698TIP3    H265586   3.107   5.804   4.971  0.1457 -1.1754 -0.6656
14699TIP3   OH265587   3.949   4.500   0.935  0.3565 -0.3726 -0.2136
14699TIP3    H165588   3.946   4.596   0.928 -0.7965 -0.3839  0.0103
14699TIP3    H265589   3.960   4.470   0.845 -1.0018 -0.0717 -0.4954
14700TIP3   OH265590   0.959   2.936  16.486  0.1978  0.5160  0.3615
14700TIP3    H165591   0.988   2.999  16.421  0.2134  1.3157  1.1259
14700TIP3    H265592   0.895   2.983  16.539  0.5772  0.0569  1.2547
14701TIP3   OH265593   3.088   0.042   0.694 -0.1127  0.2834 -0.2338
14701TIP3    H165594   3.101   0.127   0.653 -0.0768  0.7629  0.7527
14701TIP3    H265595   3.117  -0.021   0.628  0.2471  1.0467 -0.8169
14702TIP3   OH265596   0.462   0.670   2.623 -0.0156  0.4629  0.6544
14702TIP3    H165597   0.404   0.648   2.696 -1.8637  0.4533 -0.7423
14702TIP3    H265598   0.499   0.755   2.647 -0.5912  0.4616  1.6058
14703TIP3   OH265599   3.785   3.533   4.467  0.0628 -0.1787  0.8415
14703TIP3    H165600   3.828   3.455   4.501 -0.2428 -0.0667  1.4869
14703TIP3    H265601   3.747   3.505   4.383  2.2555 -0.0212 -0.2740
14704TIP3   OH265602   2.913   5.897  14.132  0.3945 -0.0656 -0.1872
14704TIP3    H165603   2.978   5.830  14.153 -0.0603 -0.4334  0.0654
14704TIP3    H265604   2.926   5.914  14.039  1.6023  0.6897  0.0900
14705TIP3   OH265605   2.597   4.120  15.497 -0.0910 -0.4732  0.6252
14705TIP3    H165606   2.602   4.214  15.512  0.7976 -0.5840  1.1041
14705TIP3    H265607   2.642   4.082  15.572  2.8275 -1.1511 -1.3121
14706TIP3   OH265608   5.408   6.232   1.477 -0.4650  0.0594 -0.0905
14706TIP3    H165609   5.397   6.304   1.538  1.0997 -0.3145  0.6918
14706TIP3    H265610   5.418   6.154   1.532 -1.7383 -0.7139 -0.9052
14707TIP3   OH265611   6.512   3.277  12.793  0.5395  0.1939 -0.7309
14707TIP3    H165612   6.532   3.187  12.818  2.3803  0.3970 -1.3055
14707TIP3    H265613   6.558   3.290  12.710  0.7709  1.8189 -0.3805
14708TIP3   OH265614   5.699   5.835   3.932  0.0471 -0.1099 -0.3947
14708TIP3    H165615   5.778   5.789   3.906 -0.1773 -0.4046 -0.5519
14708TIP3    H265616   5.730   5.922   3.958  0.3457 -0.0236 -1.0306
14709TIP3   OH265617   0.848   1.018  16.945  0.1401  0.1687 -0.6505
14709TIP3    H165618   0.913   1.040  16.879  1.0378  0.3140  0.2608
14709TIP3    H265619   0.891   1.037  17.028 -1.1912  0.5910 -0.0344
14710TIP3   OH265620   0.758   1.344   1.383  0.0642 -0.1528 -0.0470
14710TIP3    H165621   0.804   1.362   1.301 -0.3725  0.9678 -0.0629
14710TIP3    H265622   0.752   1.429   1.426  1.4102 -0.9049  1.7661
14711TIP3   OH265623   0.733   2.039  14.057  0.5871 -0.4385 -0.7493
14711TIP3    H165624   0.680   1.994  13.990  1.4662 -0.0826 -1.7099
14711TIP3    H265625   0.685   2.024  14.138  0.0294 -1.7883 -1.2800
14712TIP3   OH265626   6.544   1.192   1.938  0.4153 -0.2404 -0.1253
14712TIP3    H165627   6.536   1.287   1.931  1.7285 -0.1380 -0.6033
14712TIP3    H265628   6.477   1.158   1.880  2.0253  0.4739 -2.5836
14713TIP3   OH265629   0.548   5.841  14.841 -0.0317  0.6277 -0.3938
14713TIP3    H165630   0.463   5.869  14.808 -0.2029 -1.0180 -1.4728
14713TIP3    H265631   0.591   5.801  14.765  2.5549  3.1564 -0.4108
14714TIP3   OH265632   6.476   2.590   2.204 -0.5163  0.0311  0.3778
14714TIP3    H165633   6.462   2.554   2.291  0.5442 -1.5504 -0.0798
14714TIP3    H265634   6.396   2.569   2.156 -0.7257  0.1017  0.6915
14715TIP3   OH265635   5.235   4.014  14.197  0.6081  0.0721  0.5495
14715TIP3    H165636   5.202   4.044  14.281 -1.1205  1.0405 -0.4133
14715TIP3    H265637   5.257   4.095  14.150 -0.8705 -0.2945 -0.8417
14716TIP3   OH265638   2.585   0.333   5.342 -0.5515 -0.1061 -0.3183
14716TIP3    H165639   2.670   0.376   5.336 -1.0561  0.7738 -1.5102
14716TIP3    H265640   2.604   0.246   5.376  1.0250 -0.4971 -2.0903
14717TIP3   OH265641   5.915   0.845   0.062  0.3896  0.3739  0.7359
14717TIP3    H165642   5.971   0.919   0.087  1.1177 -0.4548  1.6203
14717TIP3    H265643   5.959   0.768   0.098 -0.1645 -0.5415 -0.4773
14718TIP3   OH265644   2.130   3.175   5.640 -0.5850 -0.5466  0.1757
14718TIP3    H165645   2.179   3.142   5.565 -1.4664 -1.3220 -0.0841
14718TIP3    H265646   2.059   3.227   5.601 -0.6304 -0.3674  0.4933
14719TIP3   OH265647   1.711   4.309  14.270  0.1558 -0.0861  0.1751
14719TIP3    H165648   1.626   4.311  14.226 -0.1572 -2.7429  0.4960
14719TIP3    H265649   1.771   4.275  14.204  0.7891  0.8240  0.2642
14720TIP3   OH265650   3.556   6.143   0.409 -0.4198  0.0774  0.1729
14720TIP3    H165651   3.616   6.092   0.354 -1.2806  1.3901 -2.1253
14720TIP3    H265652   3.581   6.121   0.498  1.4014 -1.7941 -0.7101
14721TIP3   OH265653   3.827   2.537  12.019 -0.4367  0.3342 -0.5198
14721TIP3    H165654   3.753   2.478  12.028 -0.5149  0.4228 -0.5858
14721TIP3    H265655   3.821   2.572  11.930 -0.7168  0.8739 -0.2927
14722TIP3   OH265656   4.810   2.007   4.681  0.1611  0.2658 -0.3119
14722TIP3    H165657   4.766   1.936   4.635  0.0443 -0.0581  0.2846
14722TIP3    H265658   4.752   2.083   4.670 -1.5500 -0.5879  2.0184
14723TIP3   OH265659   0.390   5.708   4.221 -0.3265  0.8199 -0.3251
14723TIP3    H165660   0.299   5.723   4.247 -0.5953  1.5195 -1.6019
14723TIP3    H265661   0.404   5.614   4.237 -1.6266  0.4584 -1.1698
14724TIP3   OH265662   4.587   4.736   3.591 -0.7718  0.5666  0.5262
14724TIP3    H165663   4.612   4.675   3.660  1.7921  1.4610  0.4806
14724TIP3    H265664   4.579   4.681   3.513  0.8159  0.1194  0.6323
14725TIP3   OH265665   3.065   2.152   0.571 -0.1219 -0.0213 -0.0819
14725TIP3    H165666   3.002   2.171   0.641 -0.6763 -0.5987 -0.4106
14725TIP3    H265667   3.151   2.169   0.610 -0.4782  0.7332  0.3906
14726TIP3   OH265668   1.177   5.539  13.419  0.1003 -0.3854 -0.0494
14726TIP3    H165669   1.259   5.544  13.370 -0.1189 -3.5659 -1.0082
14726TIP3    H265670   1.155   5.630  13.440  4.5861  0.5840  1.6184
14727TIP3   OH265671   6.494   3.220  15.709 -0.1305 -0.2764 -0.1450
14727TIP3    H165672   6.530   3.218  15.620  1.9625  1.2354  0.5678
14727TIP3    H265673   6.520   3.305  15.743 -0.5432 -0.9596  2.0546
14728TIP3   OH265674   4.776   2.350  16.332 -0.6574 -0.2517 -0.2050
14728TIP3    H165675   4.871   2.341  16.324 -0.6565 -1.7723  1.0975
14728TIP3    H265676   4.741   2.269  16.296 -1.4983  0.3616 -0.8141
14729TIP3   OH265677   1.473   0.182   1.948  0.0100  0.2818  0.4203
14729TIP3    H165678   1.411   0.254   1.942 -1.9544 -1.4087 -1.3626
14729TIP3    H265679   1.459   0.145   2.035 -3.2896 -1.3954 -0.6269
14730TIP3   OH265680   5.065   4.728  16.913  0.1803  0.9823  0.3119
14730TIP3    H165681   5.070   4.632  16.906  0.6624  1.0855 -1.2218
14730TIP3    H265682   5.031   4.744  17.001 -0.9659 -0.6289  0.2124
14731TIP3   OH265683   2.367   5.342   0.400  0.1015  0.5075  0.4874
14731TIP3    H165684   2.443   5.286   0.387 -0.2133  0.2739 -0.3845
14731TIP3    H265685   2.405   5.429   0.417  0.5753  0.7672 -1.6427
14732TIP3   OH265686   3.180   1.141  15.973  0.3391 -0.2501  0.2049
14732TIP3    H165687   3.216   1.121  16.059  0.8955 -1.1991 -0.2391
14732TIP3    H265688   3.198   1.234  15.960  3.5120 -0.8429 -0.3832
14733TIP3   OH265689   3.313   4.036   5.260  0.2093 -0.5535 -0.6095
14733TIP3    H165690   3.332   4.129   5.252 -1.9132  0.0658  0.8019
14733TIP3    H265691   3.378   3.994   5.204  1.1995  1.7509 -1.3246
14734TIP3   OH265692   6.049   2.667   1.472  0.6891  0.1967  0.2500
14734TIP3    H165693   5.984   2.701   1.534  2.0541  0.0459  1.8423
14734TIP3    H265694   6.079   2.744   1.424 -0.1211  0.3722  0.0106
14735TIP3   OH265695   6.450   0.091  14.281 -0.0482 -0.3594  0.5100
14735TIP3    H165696   6.478   0.018  14.336  0.2223  0.5887  1.6985
14735TIP3    H265697   6.510   0.162  14.305  2.7815 -0.9022 -3.9037
14736TIP3   OH265698   0.470   5.938  15.175 -0.4527 -0.7462  0.0340
14736TIP3    H165699   0.513   5.911  15.094 -1.7659 -0.7982 -0.6720
14736TIP3    H265700   0.394   5.988  15.146 -0.0349  0.6997  1.2681
14737TIP3   OH265701   1.593   4.844   1.816  0.2667  0.0911 -0.5955
14737TIP3    H165702   1.651   4.847   1.892  1.3520  1.5342 -1.4256
14737TIP3    H265703   1.612   4.760   1.775  1.1427  0.1669 -0.3682
14738TIP3   OH265704   4.271   2.871   4.402 -0.7619  0.1905  0.0654
14738TIP3    H165705   4.199   2.933   4.391 -1.6597 -1.1204 -1.8521
14738TIP3    H265706   4.269   2.848   4.495 -1.4964  1.7140  0.4483
14739TIP3   OH265707   2.125   2.398  15.894 -0.5062  0.2557  0.2347
14739TIP3    H165708   2.121   2.451  15.973  1.4186  1.1202 -0.1793
14739TIP3    H265709   2.049   2.425  15.843  0.3885  2.6397  0.0640
14740TIP3   OH265710   1.496   6.041   2.789 -0.4183  0.2539  0.3364
14740TIP3    H165711   1.404   6.017   2.785 -0.6225  1.0828 -2.5741
14740TIP3    H265712   1.496   6.136   2.786  0.4696  0.2531 -2.3129
14741TIP3   OH265713   4.380   2.858  12.451  0.0015  0.0032  0.1598
14741TIP3    H165714   4.377   2.947  12.416 -1.0798  0.1254  0.5057
14741TIP3    H265715   4.438   2.864  12.527  2.1160 -0.2000 -1.3623
14742TIP3   OH265716   3.507   5.891   4.252 -0.0895  0.4465  0.4156
14742TIP3    H165717   3.470   5.870   4.166 -1.3695  0.6882  0.8818
14742TIP3    H265718   3.443   5.856   4.315  0.1647  1.4381  1.2520
14743TIP3   OH265719   1.192   3.970  14.254  0.0146 -0.3827 -0.5560
14743TIP3    H165720   1.162   3.901  14.314  0.0693 -0.4511 -0.6078
14743TIP3    H265721   1.201   4.047  14.309  0.0821 -0.4502 -0.4718
14744TIP3   OH265722   5.230   2.256   2.152  0.1380  0.2299 -0.0999
14744TIP3    H165723   5.164   2.271   2.219 -1.2042 -2.2027 -0.7645
14744TIP3    H265724   5.189   2.285   2.070  0.3581 -0.1615 -0.3554
14745TIP3   OH265725   6.572   1.178  14.580  0.1294 -0.6557  0.5688
14745TIP3    H165726   6.494   1.232  14.589  0.1027 -0.8207  1.5227
14745TIP3    H265727   6.636   1.234  14.536 -0.1652 -0.1350  0.8022
14746TIP3   OH265728   6.012   4.652   5.956  0.6616 -0.0160  0.0312
14746TIP3    H165729   6.098   4.691   5.972 -0.2975  1.9320  0.8147
14746TIP3    H265730   5.960   4.680   6.031 -0.7524 -0.8936 -0.5975
14747TIP3   OH265731   4.203   1.352  14.891 -0.2165  0.2367  0.0398
14747TIP3    H165732   4.167   1.283  14.947  0.2998 -0.0901 -0.0223
14747TIP3    H265733   4.283   1.379  14.936 -0.0228  0.2657 -0.3234
14748TIP3   OH265734   5.607   3.666   6.216 -0.2299 -0.1976 -0.1795
14748TIP3    H165735   5.663   3.717   6.158 -2.1389  0.6885 -1.3605
14748TIP3    H265736   5.663   3.596   6.248  1.7888  1.1807 -0.5171
14749TIP3   OH265737   2.378   5.876  15.304  0.0695  0.2258 -0.3012
14749TIP3    H165738   2.339   5.944  15.358  0.3935  1.3376 -1.4056
14749TIP3    H265739   2.313   5.859  15.236  1.4900  2.3504 -2.3664
14750TIP3   OH265740   2.174   2.440  12.874  0.1687 -0.0283  0.3261
14750TIP3    H165741   2.243   2.387  12.913  1.1774  0.5680 -0.5912
14750TIP3    H265742   2.210   2.529  12.872  0.4448 -0.1132 -2.4868
14751TIP3   OH265743   2.787   4.027   0.011  0.9000  0.3251  0.1409
14751TIP3    H165744   2.824   4.092   0.071 -0.4448  0.0700  1.2872
14751TIP3    H265745   2.860   4.005  -0.047  2.5055  0.0778  2.0989
14752TIP3   OH265746   1.480   1.069   5.640 -0.3465 -0.1834 -0.2126
14752TIP3    H165747   1.398   1.116   5.658 -0.2143  0.3312 -0.9002
14752TIP3    H265748   1.547   1.123   5.681 -0.2011  0.2043 -0.9453
14753TIP3   OH265749   4.571   5.686   1.232  0.9415  0.4346  0.4500
14753TIP3    H165750   4.522   5.681   1.315  0.5263 -0.7685  0.1613
14753TIP3    H265751   4.602   5.776   1.228 -0.6009  1.0354  1.0249
14754TIP3   OH265752   5.236   4.597  13.730 -0.4402  0.0108 -0.1936
14754TIP3    H165753   5.267   4.517  13.687 -0.0768 -0.5108  0.9931
14754TIP3    H265754   5.190   4.566  13.808  1.7256  0.9816  1.5864
14755TIP3   OH265755   2.616   1.000  16.393  0.0074  0.5025  0.1398
14755TIP3    H165756   2.702   0.979  16.428 -0.0560 -2.3369 -1.1523
14755TIP3    H265757   2.628   1.001  16.298 -0.7162  3.6905 -0.0363
14756TIP3   OH265758   1.429   4.513  10.899 -0.0009  0.3138  0.3651
14756TIP3    H165759   1.444   4.543  10.989 -0.2679 -1.5374  1.0778
14756TIP3    H265760   1.370   4.578  10.861  0.7336  1.5505  1.2580
14757TIP3   OH265761   4.742   2.901   4.595 -0.1045  0.3771 -0.3006
14757TIP3    H165762   4.689   2.969   4.553  0.5969  0.4700 -1.0641
14757TIP3    H265763   4.686   2.824   4.595 -1.2583  1.1420  1.3936
14758TIP3   OH265764   6.125   4.769  14.936 -0.3338 -0.3987  0.2156
14758TIP3    H165765   6.198   4.821  14.903  0.4428 -2.8039 -2.2215
14758TIP3    H265766   6.132   4.685  14.890 -4.1307 -1.0772  0.5274
14759TIP3   OH265767   1.529   4.931  13.378 -0.1897 -0.6794  0.3374
14759TIP3    H165768   1.579   4.981  13.314 -1.4334 -1.3971 -1.2746
14759TIP3    H265769   1.595   4.887  13.431  0.8802  0.7262  0.2168
14760TIP3   OH265770   4.458   6.267   5.605  0.0428  0.3088  0.3375
14760TIP3    H165771   4.477   6.361   5.606 -0.2505  0.3668  1.1133
14760TIP3    H265772   4.543   6.226   5.622  0.8195  0.2804 -2.9771
14761TIP3   OH265773   4.963   3.609   5.316 -0.3559  0.2377 -0.1158
14761TIP3    H165774   5.000   3.616   5.228 -2.1922  1.3286 -0.8730
14761TIP3    H265775   4.950   3.515   5.329 -1.5246  0.1313 -1.6962
14762TIP3   OH265776   5.364   1.098  11.517 -0.2190 -0.0418  0.3731
14762TIP3    H165777   5.414   1.111  11.436  0.4927  0.1040  0.8229
14762TIP3    H265778   5.272   1.104  11.490 -0.0092 -0.7525 -0.5473
14763TIP3   OH265779   1.502   5.741  17.101 -0.3896  0.2896  0.1442
14763TIP3    H165780   1.565   5.805  17.067  0.8390 -0.2496  1.3512
14763TIP3    H265781   1.514   5.664  17.045  1.0670 -0.3123  1.2188
14764TIP3   OH265782   0.551   6.724  15.075 -0.1847 -0.5278 -0.1926
14764TIP3    H165783   0.484   6.734  15.007 -1.3407  0.5428  1.0611
14764TIP3    H265784   0.513   6.662  15.137  0.7366 -1.2671 -0.3611
14765TIP3   OH265785   5.032   4.178   3.767 -0.3459 -0.6807 -0.1483
14765TIP3    H165786   5.072   4.202   3.851 -1.8011 -0.6340  0.5615
14765TIP3    H265787   4.946   4.142   3.791 -0.2724 -1.8641 -1.5379
14766TIP3   OH265788   6.819   5.786  14.234  0.2357  0.1224  0.2259
14766TIP3    H165789   6.853   5.822  14.316  0.4637  0.9238 -0.2118
14766TIP3    H265790   6.780   5.861  14.189  0.8404 -0.1340 -0.7620
14767TIP3   OH265791   1.283   6.239   0.176  0.2801  0.3853 -0.4888
14767TIP3    H165792   1.359   6.293   0.154 -0.7524  1.3247 -1.9705
14767TIP3    H265793   1.287   6.230   0.271  1.2997  1.8379 -0.3510
14768TIP3   OH265794   6.790   1.780   0.341 -0.3033  1.1069 -0.5476
14768TIP3    H165795   6.723   1.832   0.297 -2.0043  0.1328  0.7291
14768TIP3    H265796   6.769   1.788   0.434  0.4864 -0.3530 -0.2090
14769TIP3   OH265797   2.318   2.894   2.614 -0.1865  0.3692  0.0242
14769TIP3    H165798   2.396   2.937   2.650  1.3457 -1.6849 -0.6553
14769TIP3    H265799   2.324   2.910   2.519 -1.7377  1.8841  0.1236
14770TIP3   OH265800   1.706   0.141   4.503 -0.0646 -0.2987  0.4165
14770TIP3    H165801   1.758   0.207   4.549  2.3445 -1.2078 -0.7920
14770TIP3    H265802   1.630   0.126   4.560 -0.3044  2.8420  1.1158
14771TIP3   OH265803   0.632   1.259  14.671 -0.2033 -0.7988  0.3610
14771TIP3    H165804   0.691   1.191  14.702  0.8608 -0.6145 -1.1842
14771TIP3    H265805   0.659   1.338  14.718  2.3961 -0.1743 -1.9652
14772TIP3   OH265806   4.534   0.164   2.118 -0.2072  0.3508 -0.4167
14772TIP3    H165807   4.483   0.242   2.139  0.0328  0.5316 -0.4908
14772TIP3    H265808   4.598   0.195   2.053 -0.9487 -0.1914 -1.4294
14773TIP3   OH265809   2.347   1.813  13.697  0.4973 -0.1222 -0.2368
14773TIP3    H165810   2.363   1.785  13.607 -0.4552  1.2493 -0.8732
14773TIP3    H265811   2.306   1.737  13.739 -0.6969 -0.2045 -1.4865
14774TIP3   OH265812   1.417   0.545   2.729 -0.1111  0.2492  0.7024
14774TIP3    H165813   1.371   0.480   2.677 -2.1951  0.5175  2.0701
14774TIP3    H265814   1.461   0.601   2.665 -1.4057 -0.2550 -0.6792
14775TIP3   OH265815   4.119   1.659  16.692 -0.4464 -0.5464  0.6340
14775TIP3    H165816   4.159   1.583  16.734  0.1657 -0.2787  0.5368
14775TIP3    H265817   4.091   1.626  16.606  0.8049 -0.3989  0.1506
14776TIP3   OH265818   3.910   4.095  12.434  0.4112 -0.5184 -0.1002
14776TIP3    H165819   3.994   4.050  12.421 -0.2382 -1.1994 -2.3949
14776TIP3    H265820   3.853   4.059  12.366 -0.7454  2.3480 -0.7781
14777TIP3   OH265821   0.631   2.534  14.513 -0.0550  0.0240  0.4343
14777TIP3    H165822   0.691   2.601  14.482  1.1714 -0.8610  0.7981
14777TIP3    H265823   0.627   2.547  14.608 -0.0880 -0.1752  0.4621
14778TIP3   OH265824   0.371   4.377  12.924 -0.3254 -0.8030 -0.0015
14778TIP3    H165825   0.370   4.409  13.015 -1.0626 -0.5948 -0.0726
14778TIP3    H265826   0.437   4.431  12.881 -2.0073  1.1655 -0.2764
14779TIP3   OH265827   0.735   0.773  14.150  0.0188  0.0874  0.5271
14779TIP3    H165828   0.710   0.796  14.060  0.9334 -1.4677 -0.1686
14779TIP3    H265829   0.652   0.749  14.192 -0.6155  2.1610  0.5693
14780TIP3   OH265830   5.367   4.271   5.732  0.2425  0.5625  0.4254
14780TIP3    H165831   5.360   4.365   5.750 -1.1364  0.4095  0.8101
14780TIP3    H265832   5.347   4.263   5.638 -2.1919  0.4510  0.8863
14781TIP3   OH265833   4.779   3.808   5.487 -0.0877 -0.1696 -0.1337
14781TIP3    H165834   4.865   3.792   5.447  0.3821 -2.0161  1.4429
14781TIP3    H265835   4.730   3.727   5.470 -0.6555 -0.0936  1.0478
14782TIP3   OH265836   3.032   2.464   3.102  0.2854  0.3609 -0.4149
14782TIP3    H165837   3.050   2.436   3.012 -0.2463  1.2464 -0.8136
14782TIP3    H265838   2.949   2.511   3.096  0.5518  0.9673  0.4249
14783TIP3   OH265839   4.408   6.615   4.833 -0.2625 -0.5134 -0.5883
14783TIP3    H165840   4.336   6.655   4.785  0.9981  0.2525 -1.9417
14783TIP3    H265841   4.467   6.687   4.853 -0.2816 -0.9723  1.3466
14784TIP3   OH265842   6.821   4.148  12.349  0.2077  0.3668 -0.2179
14784TIP3    H165843   6.863   4.232  12.363 -1.0054  1.0770 -0.6025
14784TIP3    H265844   6.866   4.111  12.273 -0.4729  1.5666 -1.2582
14785TIP3   OH265845   5.468   1.090   5.502 -0.1445  0.3501  0.9587
14785TIP3    H165846   5.529   1.161   5.483 -1.7933  1.0417 -2.6374
14785TIP3    H265847   5.523   1.013   5.516  1.6302  1.3412 -0.2216
14786TIP3   OH265848   6.369   1.248   5.741  0.2048  0.5541  0.7662
14786TIP3    H165849   6.371   1.165   5.694  1.6461  1.0361 -0.0943
14786TIP3    H265850   6.323   1.228   5.823  0.5956 -1.1093  0.6187
14787TIP3   OH265851   5.959   5.238  14.963  0.5285  0.0511 -0.4663
14787TIP3    H165852   5.921   5.152  14.981  2.7561 -0.9062  0.0177
14787TIP3    H265853   5.912   5.270  14.886  0.4895 -2.1869 -1.4452
14788TIP3   OH265854   2.892   3.713   6.306  0.2057 -0.1263  0.0629
14788TIP3    H165855   2.807   3.748   6.332  0.0818 -1.0463  0.9578
14788TIP3    H265856   2.915   3.652   6.376  1.2064 -0.5379 -0.6038
14789TIP3   OH265857   5.060   5.440  12.863 -0.5662  0.1314  0.1925
14789TIP3    H165858   5.080   5.426  12.771  0.4934  0.6633  0.3190
14789TIP3    H265859   5.059   5.353  12.902 -0.9238 -0.0872 -0.2978
14790TIP3   OH265860   0.429   6.583  15.302 -0.6167 -0.7172 -0.1266
14790TIP3    H165861   0.400   6.493  15.292 -1.8969 -0.5357  1.4454
14790TIP3    H265862   0.433   6.597  15.397  1.1708  0.4010 -0.3221
14791TIP3   OH265863   0.246   1.082  12.571  0.4192  0.0519  0.6990
14791TIP3    H165864   0.316   1.080  12.636  1.6642 -0.3360 -0.5993
14791TIP3    H265865   0.250   1.170  12.533  1.2572 -0.4596 -0.4511
14792TIP3   OH265866   6.371   5.110  14.262 -0.2066  0.3083 -0.4331
14792TIP3    H165867   6.427   5.102  14.185  0.1921  0.0013 -0.1138
14792TIP3    H265868   6.283   5.090  14.230 -0.0761  0.3889 -0.8499
14793TIP3   OH265869   6.596   1.096   0.524  0.4307  0.3409 -0.4790
14793TIP3    H165870   6.508   1.060   0.513  0.4417  0.3278 -0.5241
14793TIP3    H265871   6.622   1.123   0.436  0.1969  0.9863 -0.3527
14794TIP3   OH265872   5.962   5.769   0.039  0.2215 -0.2648  0.4956
14794TIP3    H165873   5.938   5.679   0.061  0.1010 -0.9865 -2.2438
14794TIP3    H265874   5.884   5.806  -0.002  1.5969 -0.5329 -2.6466
14795TIP3   OH265875   4.130   1.432   5.186 -0.2924  0.2365 -0.4707
14795TIP3    H165876   4.147   1.356   5.130  0.1101  0.6126 -0.8624
14795TIP3    H265877   4.034   1.435   5.193 -0.4072  0.7087 -1.8835
14796TIP3   OH265878   6.827   5.812  16.628 -0.0144 -0.5954 -0.1124
14796TIP3    H165879   6.733   5.811  16.642  0.0258 -0.8546  0.1624
14796TIP3    H265880   6.850   5.721  16.612  0.4731 -0.8879  1.8911
14797TIP3   OH265881   6.751   4.508   1.769  0.2265  0.2489 -0.0614
14797TIP3    H165882   6.719   4.441   1.830  1.4191  1.3967  1.9206
14797TIP3    H265883   6.790   4.458   1.698 -1.1138 -1.1413  0.1189
14798TIP3   OH265884   4.926   3.941  14.248  0.4598 -0.6247 -0.2470
14798TIP3    H165885   4.996   3.977  14.302 -0.1233  0.8159 -0.4095
14798TIP3    H265886   4.955   3.852  14.227  1.3895 -0.6752  1.1615
14799TIP3   OH265887   1.181   0.155  13.938  0.0157 -0.3039  0.5619
14799TIP3    H165888   1.100   0.139  13.986  0.0843 -2.4308  0.0794
14799TIP3    H265889   1.249   0.150  14.005 -0.1736  0.8744  0.8672
14800TIP3   OH265890   1.477   0.358   1.461  0.5455  0.3977  0.2640
14800TIP3    H165891   1.464   0.440   1.413 -1.1882  0.7435  1.2627
14800TIP3    H265892   1.515   0.299   1.396  0.0594  1.4295 -1.0038
14801TIP3   OH265893   5.159   3.801   6.075  0.6687  0.2236  0.5260
14801TIP3    H165894   5.229   3.745   6.109 -1.5496 -3.4335 -0.4284
14801TIP3    H265895   5.078   3.762   6.107 -1.2266  0.4584 -3.3992
14802TIP3   OH265896   4.512   6.522  17.070  0.1095 -0.4851 -0.1262
14802TIP3    H165897   4.452   6.594  17.088 -0.3492 -0.1435 -2.5586
14802TIP3    H265898   4.511   6.468  17.149  0.3914  2.0720  1.7402
14803TIP3   OH265899   0.600   1.766  15.350 -0.3294  0.1464  0.4163
14803TIP3    H165900   0.628   1.675  15.338  0.3374  0.5024 -0.8100
14803TIP3    H265901   0.522   1.775  15.295 -1.3192 -0.0860  1.7268
14804TIP3   OH265902   4.751   3.727   4.967 -0.4274  0.1782 -0.1365
14804TIP3    H165903   4.709   3.802   5.009 -0.2026 -0.1303  0.6547
14804TIP3    H265904   4.834   3.716   5.014 -0.2780 -0.3259 -0.5015
14805TIP3   OH265905   0.494   0.920   4.039  0.1854 -0.5551 -0.6158
14805TIP3    H165906   0.506   0.829   4.068 -0.3286 -0.5598 -0.4127
14805TIP3    H265907   0.423   0.916   3.975 -0.6033 -0.1436  0.2117
14806TIP3   OH265908   6.691   4.370   0.186 -0.0807 -0.3385 -0.2307
14806TIP3    H165909   6.693   4.431   0.113 -1.1032  1.5288  1.2059
14806TIP3    H265910   6.607   4.325   0.178 -1.2279  1.4417  0.8984
14807TIP3   OH265911   5.490   2.412  15.368 -0.0700  0.4709  0.8150
14807TIP3    H165912   5.545   2.490  15.373 -0.2091  0.5811  0.6222
14807TIP3    H265913   5.456   2.401  15.457  0.2648  0.4005  0.9352
14808TIP3   OH265914   3.598   0.100   0.220 -0.2429  0.0822  0.7386
14808TIP3    H165915   3.644   0.044   0.282  0.9780 -0.0980 -0.2831
14808TIP3    H265916   3.531   0.043   0.181  0.9455 -0.7070 -0.2499
14809TIP3   OH265917   4.402   1.879  13.512  0.3576  0.0383 -0.0799
14809TIP3    H165918   4.330   1.859  13.572 -0.1754 -0.2184 -0.7827
14809TIP3    H265919   4.375   1.839  13.429  0.5520  1.3125 -0.7803
14810TIP3   OH265920   0.536   0.151   0.116  0.0673  1.1206  0.6437
14810TIP3    H165921   0.512   0.124   0.027 -0.8980  1.8742  0.6630
14810TIP3    H265922   0.551   0.245   0.109  0.7241  1.0608  1.1388
14811TIP3   OH265923   2.115   3.705  14.830 -0.0730 -0.2701  0.2496
14811TIP3    H165924   2.129   3.610  14.835  0.4836 -0.2039  0.0520
14811TIP3    H265925   2.020   3.715  14.833 -0.1494 -0.8524  0.0625
14812TIP3   OH265926   3.195   1.431   1.781  0.8213  0.4993 -0.5374
14812TIP3    H165927   3.188   1.477   1.865 -0.4936 -0.4560 -0.0972
14812TIP3    H265928   3.256   1.359   1.799  1.3816  0.9256 -0.7059
14813TIP3   OH265929   2.051   6.817  11.321  0.1003 -0.0667  0.3486
14813TIP3    H165930   2.013   6.897  11.284 -1.4150  0.1622  2.2602
14813TIP3    H265931   2.097   6.777  11.247 -0.9318  1.4485 -1.2117
14814TIP3   OH265932   5.692   3.923  16.934 -0.4896 -0.4590  0.5439
14814TIP3    H165933   5.628   3.991  16.914 -0.3951 -0.4849  0.1384
14814TIP3    H265934   5.656   3.878  17.011 -0.8656 -0.3538  0.4319
14815TIP3   OH265935   3.312   5.567   1.617 -0.2960  0.2285 -0.3274
14815TIP3    H165936   3.223   5.532   1.611 -0.6082  0.7008  1.1755
14815TIP3    H265937   3.368   5.499   1.580 -1.3577  0.3889 -2.3491
14816TIP3   OH265938   4.633   6.739   3.159 -0.5713  0.0018  0.2826
14816TIP3    H165939   4.635   6.644   3.155 -0.9720 -0.1045  2.0922
14816TIP3    H265940   4.552   6.763   3.113 -0.4959 -0.5261 -0.1256
14817TIP3   OH265941   5.963   6.456   1.648  0.5700 -0.3014  0.3656
14817TIP3    H165942   5.964   6.397   1.724  0.2148 -1.2118 -0.3165
14817TIP3    H265943   5.972   6.398   1.573  0.2239  0.5257 -0.3303
14818TIP3   OH265944   1.115   5.413   2.243  0.2704 -0.1015 -0.8297
14818TIP3    H165945   1.122   5.319   2.229 -0.6483 -0.6113  1.6491
14818TIP3    H265946   1.205   5.445   2.237  0.8624 -1.4816  0.2665
14819TIP3   OH265947   3.323   0.864  15.833  0.2490 -0.3482  0.4685
14819TIP3    H165948   3.311   0.769  15.823 -0.5529 -0.5016  2.4647
14819TIP3    H265949   3.238   0.896  15.861 -0.0786  1.3429 -2.0687
14820TIP3   OH265950   6.528   1.916  14.263 -0.1215  0.0788 -0.3003
14820TIP3    H165951   6.580   1.897  14.186  1.3739  0.9405  0.4472
14820TIP3    H265952   6.521   2.012  14.264 -1.9393 -0.0064 -0.4862
14821TIP3   OH265953   5.020   3.836   3.796  0.4983 -0.0387  1.1137
14821TIP3    H165954   4.978   3.759   3.834  0.4896  0.0889  1.3616
14821TIP3    H265955   5.043   3.891   3.871  1.6989 -0.4023  1.0322
14822TIP3   OH265956   2.570   2.185   1.045  0.0398  0.1079 -0.4623
14822TIP3    H165957   2.507   2.118   1.019  0.2542 -0.1764 -0.2523
14822TIP3    H265958   2.651   2.137   1.061 -0.1651  0.1976  1.0830
14823TIP3   OH265959   5.127   3.804  13.548  1.0365 -0.3075 -0.4985
14823TIP3    H165960   5.209   3.819  13.501  1.3063 -0.1469  0.0184
14823TIP3    H265961   5.060   3.843  13.492  1.6223  2.1720  0.4172
14824TIP3   OH265962   2.477   1.409  11.587 -0.1280  0.6552  0.3206
14824TIP3    H165963   2.396   1.437  11.544 -1.2977 -0.4085  1.7417
14824TIP3    H265964   2.518   1.349  11.524 -0.8320  0.6032 -0.1000
14825TIP3   OH265965   5.627   4.249  11.960  0.2754 -0.1100 -0.3782
14825TIP3    H165966   5.716   4.215  11.950  0.1653 -0.9858  1.3257
14825TIP3    H265967   5.584   4.227  11.877  0.9301 -1.9572 -0.2848
14826TIP3   OH265968   1.712   2.844   5.645  0.2942  0.0709 -0.1277
14826TIP3    H165969   1.690   2.914   5.583 -0.2490  1.2664  1.3550
14826TIP3    H265970   1.804   2.826   5.630  0.2783  0.6603 -0.9731
14827TIP3   OH265971   6.397   4.737   3.855  0.0086 -0.1762  0.0711
14827TIP3    H165972   6.434   4.702   3.774 -0.3735 -1.9508  0.6195
14827TIP3    H265973   6.363   4.823   3.831  1.0460 -0.1291 -1.3361
14828TIP3   OH265974   6.748   3.790   3.874  0.2299  0.4255 -0.0165
14828TIP3    H165975   6.712   3.825   3.955 -2.0461  0.3792 -0.9404
14828TIP3    H265976   6.728   3.857   3.808  1.0340 -0.0370 -0.7471
14829TIP3   OH265977   6.610   1.867  14.931  0.0792 -0.3009  0.0172
14829TIP3    H165978   6.640   1.921  14.859 -0.1605 -1.1814 -0.7587
14829TIP3    H265979   6.688   1.855  14.986 -0.5811  3.8561  2.3078
14830TIP3   OH265980   6.572   4.944   1.126  0.8004 -0.0509  0.3446
14830TIP3    H165981   6.658   4.972   1.093 -0.6172  1.3828 -2.4897
14830TIP3    H265982   6.551   4.866   1.075 -0.4695  0.8804 -0.6169
14831TIP3   OH265983   1.616   4.807   1.337  0.1075 -0.8443 -0.5290
14831TIP3    H165984   1.677   4.740   1.367  1.7851  0.5952 -0.5315
14831TIP3    H265985   1.644   4.887   1.382 -0.4651  0.3072 -2.1081
14832TIP3   OH265986   1.792   4.627  11.261 -0.2018 -0.0365 -0.0797
14832TIP3    H165987   1.846   4.676  11.323 -0.5152 -1.1632  1.1286
14832TIP3    H265988   1.709   4.613  11.307 -0.4658 -0.8310 -0.7696
14833TIP3   OH265989   5.545   1.373  17.077 -0.5260 -0.0906 -0.0388
14833TIP3    H165990   5.485   1.326  17.134  0.4874 -0.3550  0.8279
14833TIP3    H265991   5.598   1.426  17.135 -0.7167  1.0909 -0.8944
14834TIP3   OH265992   0.905   4.127  12.025  0.0855  0.0731  0.5309
14834TIP3    H165993   0.983   4.075  12.006  0.5688  1.1731 -0.6400
14834TIP3    H265994   0.921   4.163  12.112  0.5230 -0.3624  0.6345
14835TIP3   OH265995   0.098   2.033  14.836  0.0356  0.5342 -0.3114
14835TIP3    H165996   0.169   1.969  14.843 -0.0858  0.5669  2.2589
14835TIP3    H265997   0.140   2.113  14.806  1.0910  0.5017  0.9893
14836TIP3   OH265998   1.363   3.640  11.036 -0.1894 -0.5403 -0.0970
14836TIP3    H165999   1.338   3.563  11.088 -2.5415  0.2114 -0.0366
14836TIP3    H266000   1.379   3.604  10.949 -2.0592 -1.0489 -0.2747
14837TIP3   OH266001   4.323   5.381   1.940  0.5583  0.4592 -0.6857
14837TIP3    H166002   4.304   5.353   1.850 -1.5270  0.5320 -0.3154
14837TIP3    H266003   4.312   5.301   1.992  1.4805  0.4819 -0.4347
14838TIP3   OH266004   1.206   6.804  17.013 -0.4066 -0.2160 -0.2938
14838TIP3    H166005   1.196   6.858  17.091 -0.3348 -0.8327  0.1522
14838TIP3    H266006   1.233   6.865  16.944 -0.7058  0.3725  0.1003
14839TIP3   OH266007   4.921   5.846  13.037 -0.5430  0.7837  0.6316
14839TIP3    H166008   4.889   5.776  12.980  0.4945  0.6694  0.1695
14839TIP3    H266009   4.917   5.925  12.983 -1.2051  1.0015  0.9819
14840TIP3   OH266010   6.368   3.670   2.495 -0.0462  0.1773  0.0520
14840TIP3    H166011   6.393   3.757   2.463 -3.9149  1.1165 -1.0427
14840TIP3    H266012   6.364   3.679   2.590 -0.2643  1.2059 -0.0418
14841TIP3   OH266013   4.897   6.279   4.303  0.2957  0.1074 -0.7211
14841TIP3    H166014   4.850   6.249   4.226  0.9918 -1.9621 -0.3836
14841TIP3    H266015   4.925   6.199   4.348 -1.2199  1.1483  2.4282
14842TIP3   OH266016   2.549   6.145  15.518  0.2460 -0.5233 -0.1339
14842TIP3    H166017   2.612   6.211  15.548 -1.5668  2.4053 -2.2505
14842TIP3    H266018   2.525   6.097  15.597  1.4497  1.5655  1.6208
14843TIP3   OH266019   4.795   3.650   3.935 -0.1682  0.0422  0.1608
14843TIP3    H166020   4.881   3.646   3.976  0.1437  0.3605 -0.4521
14843TIP3    H266021   4.784   3.564   3.893 -0.7115 -0.4762  1.3366
14844TIP3   OH266022   1.229   0.165  13.011  0.1996 -0.5308 -0.3989
14844TIP3    H166023   1.152   0.191  13.062  1.9194 -0.4129  2.3873
14844TIP3    H266024   1.221   0.069  13.004 -0.2210 -0.5198 -0.1509
14845TIP3   OH266025   5.129   4.845  12.421  0.0523  0.4687  0.1938
14845TIP3    H166026   5.037   4.866  12.409  0.0331  3.2260  3.7405
14845TIP3    H266027   5.129   4.763  12.472 -0.8429  2.6914  4.1694
14846TIP3   OH266028   0.620   4.636   4.021  0.0471 -0.5357  0.4670
14846TIP3    H166029   0.569   4.555   4.029 -0.8563 -0.1212 -0.8723
14846TIP3    H266030   0.702   4.610   3.979 -0.7917 -0.5716 -1.2015
14847TIP3   OH266031   4.056   4.116  14.814  0.6541 -0.3538 -0.4766
14847TIP3    H166032   3.998   4.040  14.810  0.4822 -0.1900 -2.8233
14847TIP3    H266033   4.077   4.126  14.906 -0.9381 -2.0181  0.1223
14848TIP3   OH266034   2.958   3.644   4.543 -0.4238  0.2951  0.1177
14848TIP3    H166035   3.002   3.727   4.524 -0.5944 -0.0315 -2.0569
14848TIP3    H266036   3.027   3.586   4.573  0.0180  0.7230 -0.0544
14849TIP3   OH266037   4.998   4.531  11.791  0.2227 -0.0977  0.1146
14849TIP3    H166038   5.083   4.551  11.831  0.6472  0.3890 -0.9893
14849TIP3    H266039   4.941   4.513  11.865  0.6496  2.0411  1.0468
14850TIP3   OH266040   1.113   4.753  14.981  0.3170 -0.0062 -0.1454
14850TIP3    H166041   1.075   4.831  15.023 -1.8966 -1.4983  0.8348
14850TIP3    H266042   1.198   4.743  15.022  0.1086  1.1907  0.6323
14851TIP3   OH266043   1.799   1.299  12.288 -0.4109 -0.3207  0.3035
14851TIP3    H166044   1.715   1.253  12.292 -0.0053 -1.0194  1.5435
14851TIP3    H266045   1.786   1.375  12.345 -0.4469  0.0063 -0.1398
14852TIP3   OH266046   3.228   5.250  13.917  0.4155 -0.6740  0.0283
14852TIP3    H166047   3.293   5.318  13.938 -0.5173  0.7706 -1.5495
14852TIP3    H266048   3.161   5.259  13.985 -1.0321  1.8625 -1.5909
14853TIP3   OH266049   2.921   2.836  17.019  0.6603 -0.3025 -0.6156
14853TIP3    H166050   2.845   2.874  16.974 -0.5344 -0.4457  1.1597
14853TIP3    H266051   2.963   2.782  16.953 -1.9020 -1.7537 -1.1969
14854TIP3   OH266052   0.077   2.146   2.826  0.2886  0.1823 -0.5216
14854TIP3    H166053   0.141   2.203   2.869  1.9522 -0.6232 -1.8439
14854TIP3    H266054   0.060   2.076   2.890 -0.7396  1.3698  0.5666
14855TIP3   OH266055   3.562   6.235  11.363 -0.0644 -0.5296  0.5128
14855TIP3    H166056   3.636   6.213  11.307 -0.8861 -0.0989 -0.8052
14855TIP3    H266057   3.526   6.151  11.391 -1.2388 -0.8936 -1.8328
14856TIP3   OH266058   6.663   0.566  13.309  0.0841 -0.2219 -0.3685
14856TIP3    H166059   6.639   0.500  13.243 -0.5462 -0.7556  0.3853
14856TIP3    H266060   6.697   0.640  13.258  2.5768 -1.8089 -1.1884
14857TIP3   OH266061   3.836   0.114  14.856  0.1176 -0.1116  0.5001
14857TIP3    H166062   3.810   0.053  14.787  1.7899  0.0104 -0.2693
14857TIP3    H266063   3.837   0.200  14.812  1.9900 -0.1447  0.4366
14858TIP3   OH266064   1.957   6.494  11.573 -0.3490 -0.0651  0.0649
14858TIP3    H166065   2.042   6.496  11.529  0.1559 -1.5626  0.9178
14858TIP3    H266066   1.914   6.416  11.540 -0.3516 -0.6915  1.4842
14859TIP3   OH266067   5.330   6.329   2.223 -0.0915  0.6498 -0.0944
14859TIP3    H166068   5.327   6.408   2.278  0.8038  0.7944 -0.2425
14859TIP3    H266069   5.349   6.258   2.284  1.3843  0.8759 -0.2577
14860TIP3   OH266070   3.526   4.423  11.245 -0.0918 -0.1520  0.3103
14860TIP3    H166071   3.554   4.349  11.191  0.0762 -0.2470  0.5248
14860TIP3    H266072   3.488   4.383  11.323  1.3601 -0.0263  1.1202
14861TIP3   OH266073   4.527   5.359   4.057  0.4620 -0.0063 -0.0481
14861TIP3    H166074   4.462   5.315   4.002  2.5302 -3.4800  0.0312
14861TIP3    H266075   4.526   5.450   4.026 -2.2742 -0.5839 -2.0634
14862TIP3   OH266076   3.223   0.572  12.492  0.4386 -0.1333  0.3939
14862TIP3    H166077   3.208   0.665  12.476 -0.8376 -0.9050 -4.6264
14862TIP3    H266078   3.319   0.563  12.490  0.6094  1.0779  1.6213
14863TIP3   OH266079   5.753   3.089   1.885  0.2104 -0.0985 -0.0367
14863TIP3    H166080   5.661   3.075   1.904  0.4805 -1.7033  0.2209
14863TIP3    H266081   5.756   3.110   1.791 -0.5893  2.2897  0.3990
14864TIP3   OH266082   1.210   5.180  16.110 -0.6867 -0.0141  0.2952
14864TIP3    H166083   1.290   5.195  16.059 -0.5214 -0.8552  0.2964
14864TIP3    H266084   1.241   5.138  16.191 -1.2975 -2.4037 -0.6288
14865TIP3   OH266085   5.402   1.175  10.501 -0.3108 -0.2036 -0.4324
14865TIP3    H166086   5.402   1.125  10.419  1.3876  0.1771 -0.7022
14865TIP3    H266087   5.401   1.108  10.570 -4.4295 -0.5685 -0.5870
14866TIP3   OH266088   0.336   3.050   5.301 -0.1920 -0.3765 -0.3768
14866TIP3    H166089   0.251   3.014   5.276 -0.9035 -0.5726  2.0629
14866TIP3    H266090   0.315   3.127   5.353  1.0987 -0.6216  0.5480
14867TIP3   OH266091   0.213   5.253  15.010 -0.0462 -0.4535  0.4856
14867TIP3    H166092   0.154   5.252  14.934  1.5568 -1.5908 -0.8026
14867TIP3    H266093   0.173   5.192  15.072 -0.9217 -0.1887  0.1950
14868TIP3   OH266094   2.640   2.699  13.784  0.2689 -0.2741  0.1604
14868TIP3    H166095   2.565   2.759  13.785  0.1459 -0.3391 -1.7157
14868TIP3    H266096   2.716   2.756  13.796 -0.0286 -0.1503  1.5895
14869TIP3   OH266097   5.600   6.704  11.949 -0.4482  0.2186 -0.2177
14869TIP3    H166098   5.555   6.629  11.988 -1.2891 -0.3396 -2.1774
14869TIP3    H266099   5.536   6.775  11.953  0.4434  0.9933  1.8968
14870TIP3   OH266100   2.990   2.267  12.380 -0.1249  0.1879  0.4617
14870TIP3    H166101   2.947   2.275  12.466  0.3736  3.9854  0.5697
14870TIP3    H266102   3.056   2.200  12.393 -0.6070  0.0646  2.8436
14871TIP3   OH266103   2.420   1.548   2.574 -0.0200 -0.1629 -0.3490
14871TIP3    H166104   2.414   1.533   2.479 -2.9145 -0.7086 -0.1763
14871TIP3    H266105   2.346   1.500   2.610  0.4992  0.7659  2.1390
14872TIP3   OH266106   4.390   6.701   2.093  0.2710  0.2849  0.0872
14872TIP3    H166107   4.382   6.645   2.016  0.3568 -0.0341  0.3102
14872TIP3    H266108   4.329   6.773   2.077 -0.9439 -0.6396  0.4867
14873TIP3   OH266109   3.219   5.871   6.285 -0.2930 -0.1188  0.5159
14873TIP3    H166110   3.293   5.900   6.338 -1.2604 -0.1692  1.9551
14873TIP3    H266111   3.170   5.812   6.342 -0.8328 -1.0058 -0.8042
14874TIP3   OH266112   4.300   0.247  15.639  0.0660  0.7478 -0.1556
14874TIP3    H166113   4.321   0.201  15.720  1.0702  1.5509  0.0491
14874TIP3    H266114   4.364   0.214  15.576 -0.6285  0.2234 -0.6055
14875TIP3   OH266115   5.290   3.735  15.872 -0.0987 -0.2936  0.1328
14875TIP3    H166116   5.264   3.723  15.781  0.4196  0.9455 -0.2118
14875TIP3    H266117   5.383   3.713  15.873  0.3164  1.3068 -0.0403
14876TIP3   OH266118   6.460   3.325  12.097  0.0206  0.5936 -0.9045
14876TIP3    H166119   6.443   3.236  12.129 -2.4564  2.0780  2.4535
14876TIP3    H266120   6.553   3.339  12.115  0.3094 -1.0726 -0.9434
14877TIP3   OH266121   0.433   0.012  12.056  0.0777 -0.0621  0.1816
14877TIP3    H166122   0.438   0.095  12.104 -0.0583 -0.0188  0.1218
14877TIP3    H266123   0.519   0.003  12.015 -0.3786  0.7986 -1.0465
14878TIP3   OH266124   0.713   0.615  13.612  0.1421 -0.3826  0.3373
14878TIP3    H166125   0.785   0.576  13.662  1.0974 -0.0579 -0.7499
14878TIP3    H266126   0.699   0.700  13.654  1.3544  0.1531 -0.2885
14879TIP3   OH266127   1.181   2.476   5.153  0.1124  0.3088 -1.0187
14879TIP3    H166128   1.091   2.446   5.163 -0.2250  1.6943  0.5926
14879TIP3    H266129   1.225   2.407   5.103 -1.2074 -1.6129  0.3620
14880TIP3   OH266130   4.976   1.514  16.141  0.3554 -0.3663 -0.3966
14880TIP3    H166131   4.889   1.546  16.164  0.3715 -0.2523 -0.4962
14880TIP3    H266132   5.021   1.505  16.225  0.5999  0.5817 -0.4205
14881TIP3   OH266133   0.411   2.958   2.315 -0.1020  0.2911  0.7335
14881TIP3    H166134   0.466   2.940   2.391 -1.2826 -0.6937  1.3826
14881TIP3    H266135   0.347   3.022   2.346 -0.3126  0.2238  0.4375
14882TIP3   OH266136   3.383   6.312  13.592  0.0911 -0.0220  0.1480
14882TIP3    H166137   3.359   6.338  13.503 -2.1028  1.5903  1.0858
14882TIP3    H266138   3.331   6.233  13.609  0.7672 -0.5262 -0.0927
14883TIP3   OH266139   4.496   3.680  15.464  0.1791 -0.2414  0.8238
14883TIP3    H166140   4.402   3.674  15.449  0.1163  0.2901  0.9710
14883TIP3    H266141   4.523   3.590  15.482 -0.2611 -0.4316  0.5679
14884TIP3   OH266142   6.345   1.648  13.498 -0.1057 -0.2257  0.1754
14884TIP3    H166143   6.438   1.655  13.477 -0.4351 -3.7299 -3.4481
14884TIP3    H266144   6.303   1.712  13.440 -0.1144  0.3721  0.8217
14885TIP3   OH266145   2.232   3.429   1.599  0.4108 -0.2301 -0.1303
14885TIP3    H166146   2.165   3.368   1.631  0.6283  0.2495  1.3005
14885TIP3    H266147   2.295   3.374   1.553  0.4297 -1.0434  0.8494
14886TIP3   OH266148   0.133   1.327   0.710  0.2383  0.2577 -0.3107
14886TIP3    H166149   0.058   1.269   0.722  0.0777  0.2817 -1.1101
14886TIP3    H266150   0.095   1.408   0.677  0.5050  0.6836  0.4153
14887TIP3   OH266151   4.757   6.748  11.020  0.0843 -0.7290 -0.2264
14887TIP3    H166152   4.843   6.717  11.046 -0.2482 -1.3974  0.0871
14887TIP3    H266153   4.768   6.843  11.010  0.1039 -0.2679  3.0215
14888TIP3   OH266154   2.891   3.406  16.515  0.1931  0.2303 -0.2185
14888TIP3    H166155   2.854   3.350  16.447 -2.1200 -1.5372  2.2915
14888TIP3    H266156   2.841   3.487  16.510  0.0526  0.1165 -0.6354
14889TIP3   OH266157   3.145   0.005   2.995 -0.0780  0.4085 -0.0217
14889TIP3    H166158   3.239   0.020   2.997 -0.0384  0.2762 -0.8177
14889TIP3    H266159   3.118   0.033   2.908 -0.6452 -0.3232 -0.0878
14890TIP3   OH266160   1.553   3.765  14.154  0.6816 -0.5842  0.2381
14890TIP3    H166161   1.495   3.735  14.084  1.0960  0.2057 -0.4587
14890TIP3    H266162   1.528   3.856  14.169 -0.0738 -1.0183  1.8314
14891TIP3   OH266163   0.500   2.966  14.202 -0.1340  0.4430 -0.1003
14891TIP3    H166164   0.527   2.910  14.129 -0.1416  1.6740 -1.0908
14891TIP3    H266165   0.407   2.985  14.185  0.6747  3.5851 -1.8284
14892TIP3   OH266166   1.670   4.593  11.798 -0.3101  0.3627  0.7213
14892TIP3    H166167   1.602   4.569  11.861 -1.0343  0.2597 -0.0812
14892TIP3    H266168   1.674   4.689  11.803 -0.6510  0.3838  0.6369
14893TIP3   OH266169   2.998   5.957  11.691  0.6822  0.2961 -0.2819
14893TIP3    H166170   2.934   6.027  11.678  0.3432  0.0888  0.2498
14893TIP3    H266171   2.948   5.884  11.726  1.0664 -0.1569 -0.6499
14894TIP3   OH266172   3.750   3.335  15.593  0.1335  0.7333  0.5350
14894TIP3    H166173   3.811   3.277  15.639 -0.9993 -1.1434 -0.2098
14894TIP3    H266174   3.664   3.314  15.629 -0.1836  3.1882  1.4202
14895TIP3   OH266175   2.170   0.579   6.142 -0.1587  0.6508 -0.0733
14895TIP3    H166176   2.077   0.589   6.124  0.0360 -0.0709 -1.5773
14895TIP3    H266177   2.175   0.509   6.207 -0.6894  1.2234  0.6054
14896TIP3   OH266178   6.428   1.640   4.768  0.1042  0.5281  0.2500
14896TIP3    H166179   6.493   1.677   4.709  0.1668 -0.7961 -0.5442
14896TIP3    H266180   6.391   1.566   4.721 -1.2776  0.6409  1.0867
14897TIP3   OH266181   3.824   0.694   1.576 -0.2921 -0.5664  0.9733
14897TIP3    H166182   3.831   0.745   1.496 -0.6659  0.9258  1.8554
14897TIP3    H266183   3.730   0.686   1.591 -0.2201 -0.3009  1.5833
14898TIP3   OH266184   5.714   0.137  12.220  0.0458 -0.7567  0.1346
14898TIP3    H166185   5.646   0.189  12.177  1.2309  1.3314  0.6450
14898TIP3    H266186   5.670   0.057  12.247 -2.9565  1.4895  2.6691
14899TIP3   OH266187   1.299   2.894   1.308  0.1730  0.5601 -0.3255
14899TIP3    H166188   1.241   2.836   1.359  0.9925 -1.9615 -2.0945
14899TIP3    H266189   1.240   2.939   1.248 -0.1953 -0.6274 -0.8819
14900TIP3   OH266190   2.830   2.998  15.023 -0.2394 -0.0672 -0.5229
14900TIP3    H166191   2.894   3.069  15.026 -2.8729  2.5293 -0.4307
14900TIP3    H266192   2.772   3.015  15.098 -1.7277 -1.5712 -1.2537
14901TIP3   OH266193   3.477   1.914  11.583 -0.1683 -0.5910  0.1805
14901TIP3    H166194   3.428   1.996  11.577 -0.9803 -0.9879  1.0940
14901TIP3    H266195   3.515   1.902  11.496  1.2888  1.5396  0.4346
14902TIP3   OH266196   0.736   6.726   1.587 -0.2105 -0.5343 -0.2762
14902TIP3    H166197   0.648   6.698   1.562 -1.1465  0.7496  1.3605
14902TIP3    H266198   0.779   6.745   1.504 -0.9659 -2.5352 -1.1918
14903TIP3   OH266199   0.303   4.929  13.535 -0.9850 -0.3844  0.0471
14903TIP3    H166200   0.256   4.892  13.610  0.4800  2.7357  2.7864
14903TIP3    H266201   0.236   4.941  13.468 -2.4894 -2.7813  0.9729
14904TIP3   OH266202   2.581   3.733  14.901 -0.1203 -0.4101  0.0241
14904TIP3    H166203   2.654   3.779  14.943 -0.3936 -0.5998  0.7274
14904TIP3    H266204   2.602   3.640  14.910 -0.3260 -0.4595  0.0073
14905TIP3   OH266205   4.795   5.369   1.927  0.1268 -0.4405  0.0110
14905TIP3    H166206   4.761   5.458   1.937  0.0037 -0.4900  0.0378
14905TIP3    H266207   4.857   5.375   1.854  1.6481  0.0888  1.3021
14906TIP3   OH266208   3.277   3.059   5.953 -0.3926  0.1150  0.5508
14906TIP3    H166209   3.259   3.011   6.034  0.2025  0.7931  1.0942
14906TIP3    H266210   3.209   3.029   5.893 -0.7017 -0.5808  1.2177
14907TIP3   OH266211   4.674   6.590   5.013  0.2191 -0.2386  0.3360
14907TIP3    H166212   4.673   6.534   4.935  0.3431  0.9816 -0.5739
14907TIP3    H266213   4.763   6.625   5.016 -0.4557  1.6635 -0.4357
14908TIP3   OH266214   4.608   6.181  16.922  0.1400  0.1689 -0.6083
14908TIP3    H166215   4.635   6.225  16.841 -0.5426  2.0247  0.1316
14908TIP3    H266216   4.611   6.249  16.989  0.4423 -1.2739  0.9085
14909TIP3   OH266217   0.156   6.211  11.379 -0.3401 -0.3011  0.0758
14909TIP3    H166218   0.088   6.148  11.401 -2.6583  1.6797 -0.8900
14909TIP3    H266219   0.174   6.196  11.286 -1.7745  1.1034 -0.4827
14910TIP3   OH266220   5.612   0.188   1.453  0.2933  0.3619 -0.5282
14910TIP3    H166221   5.592   0.160   1.363  1.2770 -1.6697 -0.1812
14910TIP3    H266222   5.533   0.165   1.503  0.4649 -0.2992 -0.5502
14911TIP3   OH266223   0.161   3.319   3.538  0.0070 -0.4117  0.2106
14911TIP3    H166224   0.121   3.398   3.572  1.6723  1.0769 -1.0854
14911TIP3    H266225   0.123   3.307   3.451 -1.1473 -1.7832  0.8721
14912TIP3   OH266226   2.864   6.247  16.622 -0.4874 -0.8138  0.8605
14912TIP3    H166227   2.808   6.177  16.589  0.7403 -2.1774  1.5744
14912TIP3    H266228   2.807   6.324  16.623 -0.7381 -0.6796 -4.0435
14913TIP3   OH266229   5.310   4.881  13.715  0.6781  0.1218 -0.3233
14913TIP3    H166230   5.279   4.791  13.709 -0.3476  0.3906  0.6344
14913TIP3    H266231   5.296   4.904  13.807  0.4332  1.4294 -0.6786
14914TIP3   OH266232   3.658   6.789   3.222 -1.1282 -0.4524 -0.8826
14914TIP3    H166233   3.693   6.700   3.220  1.1158  0.2881  0.5923
14914TIP3    H266234   3.582   6.784   3.280 -0.8781 -1.3666 -0.6159
14915TIP3   OH266235   3.197   5.211  15.118  0.0378 -0.1376  0.0891
14915TIP3    H166236   3.107   5.244  15.117 -0.0434 -0.2702 -1.9638
14915TIP3    H266237   3.251   5.288  15.132 -0.3480  0.1781 -0.1386
14916TIP3   OH266238   2.676   2.608  11.529 -0.2155 -0.2715  0.4826
14916TIP3    H166239   2.653   2.686  11.579 -1.2602  0.1248 -0.5649
14916TIP3    H266240   2.623   2.538  11.567  0.1425 -0.3091  0.9177
14917TIP3   OH266241   0.553   3.179   2.710 -0.3772 -0.1764  0.6924
14917TIP3    H166242   0.483   3.146   2.654  0.2361 -0.4168  0.0360
14917TIP3    H266243   0.631   3.174   2.654 -0.3334  3.0597  0.2775
14918TIP3   OH266244   2.247   3.660  11.781  0.0213 -0.1270 -0.3014
14918TIP3    H166245   2.164   3.704  11.796  0.0795  0.0447 -0.4829
14918TIP3    H266246   2.231   3.569  11.806 -0.5292 -0.3281 -1.3307
14919TIP3   OH266247   1.485   6.398   4.014 -0.1192 -0.7432  0.2910
14919TIP3    H166248   1.399   6.364   3.987 -0.7394  2.2527 -2.0990
14919TIP3    H266249   1.466   6.484   4.051  1.7979 -0.1665  0.0279
14920TIP3   OH266250   1.700   2.083   1.457  0.1542 -0.7741  0.3855
14920TIP3    H166251   1.784   2.128   1.449 -0.8129  1.0094 -0.5049
14920TIP3    H266252   1.652   2.135   1.522 -0.4993 -1.3650  0.3867
14921TIP3   OH266253   4.264   6.327   3.464  0.2965 -0.2439  0.2839
14921TIP3    H166254   4.181   6.291   3.432  0.0348  1.0950 -0.6475
14921TIP3    H266255   4.312   6.252   3.498 -0.6634 -1.2749 -0.5858
14922TIP3   OH266256   1.365   1.707   4.879  0.6383  0.0946  0.1642
14922TIP3    H166257   1.282   1.675   4.913  1.0407 -0.4863  0.6049
14922TIP3    H266258   1.369   1.798   4.909 -0.2347  0.4049 -0.6042
14923TIP3   OH266259   0.939   3.048  12.259  0.2880 -0.6147  0.0210
14923TIP3    H166260   0.915   3.040  12.167  0.6151  2.3328 -0.4113
14923TIP3    H266261   0.863   3.016  12.307 -1.7008  1.7947 -1.3212
14924TIP3   OH266262   5.650   1.217  15.394  0.0604 -0.1936 -0.1425
14924TIP3    H166263   5.672   1.129  15.425  0.8732  0.8034  2.3681
14924TIP3    H266264   5.566   1.236  15.435  0.3383  0.5397  0.0971
14925TIP3   OH266265   1.907   1.802   0.461  0.2384 -0.2042  0.0417
14925TIP3    H166266   1.949   1.762   0.537 -0.8359  0.4583  1.0141
14925TIP3    H266267   1.854   1.731   0.423 -1.0847  0.0327  1.3321
14926TIP3   OH266268   5.785   1.514  11.107  0.0139 -0.5239 -0.5828
14926TIP3    H166269   5.764   1.566  11.030  1.9724  1.1842 -0.0752
14926TIP3    H266270   5.831   1.575  11.166  0.3742 -2.2592  1.0645
14927TIP3   OH266271   6.119   2.844   3.885  0.1960  0.4760  0.2408
14927TIP3    H166272   6.192   2.782   3.896  0.1809  0.4278  0.0819
14927TIP3    H266273   6.064   2.804   3.817  0.2445  0.7173  0.0571
14928TIP3   OH266274   4.766   6.559  16.040  0.5429 -0.3200  0.6102
14928TIP3    H166275   4.738   6.633  16.094  0.8545  1.2659 -1.2818
14928TIP3    H266276   4.690   6.538  15.987  1.5122  1.2890 -1.6047
14929TIP3   OH266277   4.942   2.495  11.023  0.4485 -0.7876  0.4791
14929TIP3    H166278   4.848   2.513  11.030  0.6916  0.4272  1.0664
14929TIP3    H266279   4.948   2.405  10.992 -0.9247 -0.2194 -1.6623
14930TIP3   OH266280   1.190   4.810  15.373  0.4272  0.1524  0.0807
14930TIP3    H166281   1.118   4.797  15.434  1.5777 -2.5269  1.0237
14930TIP3    H266282   1.201   4.905  15.367  0.2833  0.5672  4.0847
14931TIP3   OH266283   2.775   2.052  12.275  0.3417 -0.0111 -0.5698
14931TIP3    H166284   2.794   2.042  12.368 -2.8286 -3.5815 -0.0584
14931TIP3    H266285   2.822   1.979  12.234  1.7125  1.5266 -1.9014
14932TIP3   OH266286   0.809   5.275   1.764 -0.0213 -0.0145 -0.1069
14932TIP3    H166287   0.887   5.292   1.712  0.2076  1.1001  0.5646
14932TIP3    H266288   0.838   5.217   1.834 -0.4397 -1.9446 -1.4528
14933TIP3   OH266289   6.202   0.693   5.020 -0.1137 -0.1385  0.2846
14933TIP3    H166290   6.292   0.718   5.000 -0.5353  0.6485 -0.7083
14933TIP3    H266291   6.178   0.749   5.095  0.5200 -1.0430  1.1955
14934TIP3   OH266292   5.649   3.647  12.314 -0.3204 -0.1491  0.5217
14934TIP3    H166293   5.714   3.637  12.383 -0.1828 -0.3035  0.3711
14934TIP3    H266294   5.698   3.676  12.238 -0.6847  1.5164  0.8903
14935TIP3   OH266295   6.011   2.355  12.705 -0.3336 -0.3254 -0.5383
14935TIP3    H166296   6.007   2.425  12.640 -1.1560 -0.5791 -0.7736
14935TIP3    H266297   5.922   2.319  12.707 -0.8868  0.9316  2.0884
14936TIP3   OH266298   0.290   6.023  16.695 -0.0598  0.1266 -0.1236
14936TIP3    H166299   0.311   6.032  16.788 -0.0698  0.3928 -0.1473
14936TIP3    H266300   0.374   6.031  16.651  0.2437 -1.9636 -0.0151
14937TIP3   OH266301   1.270   5.153   1.895 -0.1530  0.5303  0.2895
14937TIP3    H166302   1.267   5.107   1.810 -0.0015 -0.5867  0.8682
14937TIP3    H266303   1.212   5.228   1.883 -0.6288  0.0436 -0.6150
14938TIP3   OH266304   3.731   3.543  11.307  0.3854 -0.2498 -0.0379
14938TIP3    H166305   3.755   3.452  11.289  1.2126 -0.5038  2.0137
14938TIP3    H266306   3.809   3.594  11.283  0.7725 -0.3702  0.9129
14939TIP3   OH266307   1.966   5.947   2.898 -0.2908 -0.3223  0.2954
14939TIP3    H166308   2.021   5.896   2.958 -0.7851 -1.2327 -0.0085
14939TIP3    H266309   1.919   5.882   2.846  0.3014  0.4417 -1.2735
14940TIP3   OH266310   5.550   1.233   2.719  0.2349 -0.7386 -0.8312
14940TIP3    H166311   5.480   1.176   2.687  0.2190 -0.9841 -0.3810
14940TIP3    H266312   5.511   1.281   2.792  0.2785 -0.2160 -1.1488
14941TIP3   OH266313   3.533   2.298   2.098 -0.3524  0.7736 -0.5980
14941TIP3    H166314   3.600   2.364   2.077 -2.2246  3.3299  0.8189
14941TIP3    H266315   3.458   2.322   2.042 -0.6618 -1.0507 -1.0212
14942TIP3   OH266316   5.397   5.706   2.942 -0.0709  0.5891 -0.1244
14942TIP3    H166317   5.362   5.670   3.024  0.6259 -1.0697 -0.5032
14942TIP3    H266318   5.320   5.727   2.889 -0.5177 -0.4436  0.1003
14943TIP3   OH266319   0.321   2.794  12.039 -0.1014  0.3976 -1.0320
14943TIP3    H166320   0.336   2.701  12.057  2.7108  0.9501 -0.1311
14943TIP3    H266321   0.228   2.807  12.058  0.2916 -1.3457  3.2450
14944TIP3   OH266322   4.529   4.931  10.860  0.5746 -0.6676 -0.2367
14944TIP3    H166323   4.497   4.973  10.940  0.5582 -0.0424 -0.5665
14944TIP3    H266324   4.505   4.839  10.870 -2.4940 -0.0651 -1.0201
14945TIP3   OH266325   6.182   1.166  12.740 -0.2388 -0.1915  0.0201
14945TIP3    H166326   6.277   1.153  12.737 -0.2308 -0.1409  0.0542
14945TIP3    H266327   6.148   1.112  12.669 -0.0917  0.5861 -0.6576
14946TIP3   OH266328   3.953   2.967   6.346  0.4475  0.1596 -0.1709
14946TIP3    H166329   3.934   2.939   6.256 -1.0679  0.3658  0.0594
14946TIP3    H266330   4.035   3.016   6.339  1.1941 -1.1786 -1.1729
14947TIP3   OH266331   4.942   5.871  11.158  0.0704  0.0684  0.0875
14947TIP3    H166332   4.911   5.834  11.240 -0.4970  0.0191 -0.1468
14947TIP3    H266333   4.865   5.911  11.119 -0.0651 -1.3880 -1.2421
14948TIP3   OH266334   4.877   0.133  13.652  0.2983 -0.2369 -0.0272
14948TIP3    H166335   4.928   0.104  13.727  1.5860 -0.4302 -0.9392
14948TIP3    H266336   4.844   0.053  13.612 -0.2729 -0.1422  0.2399
14949TIP3   OH266337   6.457   5.050  13.237  0.3195 -0.0173 -0.1830
14949TIP3    H166338   6.544   5.015  13.258  0.0263 -0.5545  0.1639
14949TIP3    H266339   6.461   5.142  13.262  0.6507 -0.1440  0.2466
14950TIP3   OH266340   0.161   0.965   1.695  0.1321 -0.3549  0.3021
14950TIP3    H166341   0.201   0.879   1.681  0.4514 -0.3617  1.1825
14950TIP3    H266342   0.081   0.947   1.744 -0.1108 -0.1989 -0.0365
14951TIP3   OH266343   6.539   0.847   1.870 -0.8236 -0.2780  0.0144
14951TIP3    H166344   6.521   0.803   1.953  0.4950 -3.4553 -1.2395
14951TIP3    H266345   6.453   0.870   1.836 -1.4374  0.0524  1.6792
14952TIP3   OH266346   6.839   0.716   2.300 -0.7603  0.3038 -0.1570
14952TIP3    H166347   6.827   0.705   2.394 -0.4630 -0.1258 -0.1675
14952TIP3    H266348   6.749   0.716   2.265 -0.9028  1.1374  0.1909
14953TIP3   OH266349   2.354   1.516  13.969 -0.4056 -0.3788 -0.4660
14953TIP3    H166350   2.397   1.435  13.997 -1.4015 -1.1727 -1.1510
14953TIP3    H266351   2.345   1.507  13.874  0.9991  1.3239 -0.8136
14954TIP3   OH266352   1.078   5.843   4.917  0.4739  0.0738  0.3015
14954TIP3    H166353   1.051   5.863   4.828 -0.0703  0.2442  0.4963
14954TIP3    H266354   0.996   5.844   4.967  0.2526 -3.2124  0.2328
14955TIP3   OH266355   6.241   1.164  17.118 -0.6196 -0.3097  0.2546
14955TIP3    H166356   6.247   1.069  17.115  1.0566 -0.2585  0.9959
14955TIP3    H266357   6.331   1.194  17.104 -1.2461  1.2046 -0.8345
14956TIP3   OH266358   1.157   0.724  10.454 -0.4115 -0.4497 -0.7110
14956TIP3    H166359   1.107   0.805  10.443  1.5163  0.9576  0.4153
14956TIP3    H266360   1.170   0.691  10.364  0.0973  1.3314 -1.3266
14957TIP3   OH266361   2.015   3.015   4.771 -0.5437 -0.1165 -0.5943
14957TIP3    H166362   1.981   3.104   4.781  1.0402  0.5515 -0.8638
14957TIP3    H266363   2.096   3.025   4.721  1.3729 -1.3139  2.0233
14958TIP3   OH266364   2.352   3.304  12.078 -0.2551  0.3095 -0.1411
14958TIP3    H166365   2.385   3.305  12.167  0.2164 -0.5944 -0.2886
14958TIP3    H266366   2.276   3.246  12.081 -0.4096  0.5028 -0.2717
14959TIP3   OH266367   0.391   6.200  10.860  0.0421  0.2294  0.3462
14959TIP3    H166368   0.388   6.285  10.905  2.2134 -0.0007  1.0510
14959TIP3    H266369   0.466   6.155  10.900 -0.5384 -1.6799 -0.6257
14960TIP3   OH266370   5.613   3.642   3.009 -0.1511 -0.0092 -0.8967
14960TIP3    H166371   5.689   3.699   3.020  0.1905 -0.5530 -0.4055
14960TIP3    H266372   5.649   3.555   2.992 -0.6399 -0.4709  0.3073
14961TIP3   OH266373   1.956   6.367   4.703  0.0441  0.5674  0.3904
14961TIP3    H166374   1.952   6.277   4.668  1.8741  0.2218  0.9728
14961TIP3    H266375   1.897   6.417   4.646 -2.0344 -1.2225  0.8470
14962TIP3   OH266376   6.560   1.427  13.333 -0.1148  0.2975 -0.1205
14962TIP3    H166377   6.616   1.503  13.347  0.0517  0.3509 -0.9954
14962TIP3    H266378   6.496   1.457  13.268 -1.4099  0.3564  1.1379
14963TIP3   OH266379   1.687   0.945   1.854  1.0146 -0.4215 -1.1242
14963TIP3    H166380   1.740   0.866   1.846  0.0836 -1.0418 -1.2989
14963TIP3    H266381   1.748   1.017   1.834  1.4063 -1.2096 -2.9954
14964TIP3   OH266382   3.516   3.037   3.877 -0.4599 -0.3875 -0.4732
14964TIP3    H166383   3.574   3.010   3.949 -0.6142 -0.9483 -0.5538
14964TIP3    H266384   3.565   3.106   3.832 -0.5686  0.3148  0.4583
14965TIP3   OH266385   0.187   4.385   5.759 -0.5242 -0.3347  0.2379
14965TIP3    H166386   0.167   4.333   5.836 -2.4809  0.9562  0.6647
14965TIP3    H266387   0.212   4.471   5.793 -0.3464 -0.0701 -0.5254
14966TIP3   OH266388   2.380   1.300   3.362  0.0023 -0.0038 -0.8654
14966TIP3    H166389   2.396   1.317   3.270  0.3087  0.3691 -0.7427
14966TIP3    H266390   2.332   1.377   3.393  0.8337  0.3660 -0.4634
14967TIP3   OH266391   1.334   0.284  10.508  0.0841 -0.0211 -0.2724
14967TIP3    H166392   1.372   0.204  10.543  0.9467 -0.3165 -1.7852
14967TIP3    H266393   1.408   0.346  10.503 -0.8874  1.5395  2.5257
14968TIP3   OH266394   0.339   1.292  16.850 -0.5332 -0.0770 -0.2260
14968TIP3    H166395   0.258   1.275  16.897  0.1886 -2.0669  0.3969
14968TIP3    H266396   0.407   1.291  16.917  0.4794 -2.6953 -1.1274
14969TIP3   OH266397   2.869   6.329  11.381 -0.7656  0.5946 -0.0286
14969TIP3    H166398   2.873   6.403  11.320  0.6364 -0.2633 -1.0588
14969TIP3    H266399   2.788   6.283  11.357 -0.9032  1.0011 -0.3636
14970TIP3   OH266400   5.303   0.876   1.148 -0.0468  1.1270  0.5470
14970TIP3    H166401   5.377   0.902   1.093  0.0226  1.2601  0.7022
14970TIP3    H266402   5.315   0.782   1.162  1.0462  1.4495  1.9936
14971TIP3   OH266403   6.260   2.880   3.354 -0.2103 -0.6377 -0.1301
14971TIP3    H166404   6.309   2.861   3.434 -1.3018 -1.6171  0.3466
14971TIP3    H266405   6.326   2.894   3.287  0.7138 -1.6090  0.5540
14972TIP3   OH266406   2.017   6.691  16.120 -0.2568 -0.3017  0.4071
14972TIP3    H166407   2.021   6.751  16.045  0.2733 -0.0123  0.6603
14972TIP3    H266408   2.094   6.636  16.111 -1.3679 -1.7886 -0.4907
14973TIP3   OH266409   3.632   5.840  10.864 -0.4098 -0.4753 -0.2208
14973TIP3    H166410   3.542   5.809  10.856 -0.4015 -0.3576 -0.9164
14973TIP3    H266411   3.655   5.868  10.775 -0.1250  0.7171  0.2001
14974TIP3   OH266412   4.182   2.091   0.287 -0.3806  0.4279  0.1551
14974TIP3    H166413   4.100   2.126   0.323  0.4584  1.3577  1.2651
14974TIP3    H266414   4.198   2.011   0.336  0.4222  1.3512  1.4810
14975TIP3   OH266415   6.247   2.513  14.410  0.8839 -0.0833 -0.0979
14975TIP3    H166416   6.180   2.537  14.347  0.8467  1.1220  0.3556
14975TIP3    H266417   6.230   2.422  14.431 -0.9489  0.3298  0.4047
14976TIP3   OH266418   6.429   4.983   6.200  0.0792 -0.1532  0.0129
14976TIP3    H166419   6.374   5.019   6.269 -0.5954 -0.1240 -0.5279
14976TIP3    H266420   6.509   5.035   6.203 -0.1301  0.1451  0.4708
14977TIP3   OH266421   6.604   3.630   4.133  0.0309  0.4980  0.3784
14977TIP3    H166422   6.558   3.580   4.201 -0.1808  1.1431  0.7252
14977TIP3    H266423   6.550   3.708   4.121  0.0008  0.3379 -0.6327
14978TIP3   OH266424   6.555   3.523  15.777 -0.5255 -0.2061  0.5287
14978TIP3    H166425   6.598   3.595  15.730 -0.6184 -1.0082 -0.8228
14978TIP3    H266426   6.509   3.566  15.849 -1.1512  1.1918 -0.6494
14979TIP3   OH266427   6.495   4.015  11.332  0.3970 -0.6076  0.0457
14979TIP3    H166428   6.529   4.092  11.285  0.1002 -1.0629 -0.9563
14979TIP3    H266429   6.501   3.944  11.268  0.7933 -1.4604  1.0005
14980TIP3   OH266430   4.357   4.631   1.664  0.1792 -0.1386  0.0502
14980TIP3    H166431   4.402   4.697   1.716  0.3789  0.2532 -0.6143
14980TIP3    H266432   4.386   4.647   1.575  0.9967 -1.7395 -0.0072
14981TIP3   OH266433   5.949   4.652  10.934 -0.3318  0.4095 -0.0863
14981TIP3    H166434   5.943   4.625  11.026 -0.8782 -1.1041 -0.5394
14981TIP3    H266435   5.860   4.642  10.901 -0.1001  0.7761 -0.8365
14982TIP3   OH266436   0.568   5.265   0.139  0.4166 -0.5985 -0.3013
14982TIP3    H166437   0.585   5.349   0.098 -1.0376 -0.9136 -1.6502
14982TIP3    H266438   0.536   5.286   0.226 -0.2604  0.2728 -0.7509
14983TIP3   OH266439   3.734   0.838  11.848 -0.1577  0.4859 -0.2203
14983TIP3    H166440   3.644   0.813  11.827 -0.4413 -0.0156  1.4504
14983TIP3    H266441   3.769   0.764  11.898  0.4502  1.5824  1.0249
14984TIP3   OH266442   0.747   4.618  12.182 -0.5499  0.1230 -0.7510
14984TIP3    H166443   0.773   4.707  12.157  1.0350 -0.5915 -1.8383
14984TIP3    H266444   0.801   4.597  12.258  0.1918 -0.4145 -1.4030
14985TIP3   OH266445   4.359   2.682   3.227  0.2950  0.3105 -0.4119
14985TIP3    H166446   4.415   2.752   3.192 -0.1026  2.0911  2.2044
14985TIP3    H266447   4.316   2.645   3.149 -0.4831  3.9099 -1.9223
14986TIP3   OH266448   4.784   2.832   1.867  0.4820 -0.1185 -0.0542
14986TIP3    H166449   4.872   2.796   1.875  0.1476 -0.8901  0.1600
14986TIP3    H266450   4.760   2.820   1.775  1.3751  1.9425 -0.6281
14987TIP3   OH266451   5.673   0.595  14.316 -0.0588  0.6151  0.6588
14987TIP3    H166452   5.692   0.513  14.270 -0.5039  1.1184 -0.4755
14987TIP3    H266453   5.740   0.601  14.384  0.9976  0.1216 -0.3033
14988TIP3   OH266454   2.782   3.196  14.155 -0.2911 -0.3616 -0.4043
14988TIP3    H166455   2.867   3.163  14.125  1.6143  2.3467  1.5080
14988TIP3    H266456   2.772   3.279  14.109 -2.3522 -0.9575 -1.1394
14989TIP3   OH266457   4.465   1.501  11.688 -0.6934 -0.2438 -0.4450
14989TIP3    H166458   4.430   1.484  11.775 -0.3789  1.0049 -0.0559
14989TIP3    H266459   4.420   1.580  11.659  1.5755  1.3026 -0.0148
14990TIP3   OH266460   6.838   2.798  11.645  0.2894  0.0210 -0.1648
14990TIP3    H166461   6.919   2.750  11.625 -0.4367 -1.8319  1.0787
14990TIP3    H266462   6.855   2.839  11.730  0.3907  0.8414 -0.5651
14991TIP3   OH266463   5.835   2.203   4.965  0.0218  0.4069 -0.0089
14991TIP3    H166464   5.764   2.250   4.923  1.6567  1.5170 -1.6784
14991TIP3    H266465   5.854   2.129   4.907 -1.1216 -1.2027  1.5276
14992TIP3   OH266466   4.020   2.269  12.119 -0.0365 -0.3352  0.2285
14992TIP3    H166467   4.080   2.332  12.081  0.6983 -1.4239 -0.4925
14992TIP3    H266468   4.068   2.186  12.115 -1.7714 -1.3319 -0.8285
14993TIP3   OH266469   5.524   3.637   4.464 -0.6520  0.0242  0.0712
14993TIP3    H166470   5.439   3.634   4.508 -0.4173  0.1500  0.5370
14993TIP3    H266471   5.588   3.638   4.535 -0.3062  1.7230 -0.2363
14994TIP3   OH266472   1.212   0.792   3.827 -0.1953 -0.5624  0.0227
14994TIP3    H166473   1.263   0.789   3.745 -1.5454  1.5904 -0.9930
14994TIP3    H266474   1.163   0.710   3.828  0.6617 -1.1126 -0.7473
14995TIP3   OH266475   6.760   5.277  14.597 -0.4092 -0.3530  0.5709
14995TIP3    H166476   6.801   5.220  14.531 -1.9620 -0.1189 -0.6497
14995TIP3    H266477   6.694   5.326  14.549  0.0498  1.6213  1.8489
14996TIP3   OH266478   4.351   1.265  11.456  0.4549  0.5856  0.5421
14996TIP3    H166479   4.425   1.292  11.402 -0.3418 -0.4589 -1.1523
14996TIP3    H266480   4.311   1.347  11.484  0.7834  1.1721 -0.6294
14997TIP3   OH266481   4.887   1.800   3.222 -0.2969  0.4526 -0.5512
14997TIP3    H166482   4.906   1.717   3.179  0.6862  0.2174  0.3046
14997TIP3    H266483   4.937   1.797   3.304  1.0098  2.5132 -1.1811
14998TIP3   OH266484   0.164   4.862  17.039  0.0094 -0.3888 -0.3781
14998TIP3    H166485   0.199   4.926  17.101 -1.3724 -0.8980  0.9973
14998TIP3    H266486   0.239   4.839  16.984  0.4283  2.7810 -1.3061
14999TIP3   OH266487   2.029   4.465  13.796 -0.2822  0.2113 -0.3100
14999TIP3    H166488   1.971   4.403  13.839 -0.4012  0.8181  0.4308
14999TIP3    H266489   2.075   4.413  13.730 -2.1172 -0.1510 -1.3618
15000TIP3   OH266490   6.707   3.876  12.108  0.5702 -0.0742 -0.0689
15000TIP3    H166491   6.695   3.892  12.014 -0.4381 -0.8959 -0.0975
15000TIP3    H266492   6.634   3.921  12.150  1.3871  0.8563  0.4016
15001TIP3   OH266493   3.526   1.919   2.449 -0.7733  0.2009  0.3543
15001TIP3    H166494   3.505   1.989   2.387 -2.2588  0.2857  0.9322
15001TIP3    H266495   3.609   1.947   2.489 -2.2261  2.6313  1.9216
15002TIP3   OH266496   0.840   4.799  10.529 -0.2901 -0.1101 -0.6660
15002TIP3    H166497   0.754   4.822  10.492  0.6325  1.0141 -2.2772
15002TIP3    H266498   0.901   4.812  10.456  1.1030 -2.2141  0.0279
15003TIP3   OH266499   0.416   0.150   3.597  0.5349  0.1317 -0.5382
15003TIP3    H166500   0.353   0.185   3.535  1.3106  2.7204 -0.0009
15003TIP3    H266501   0.368   0.144   3.680  0.3289 -0.3790 -0.6898
15004TIP3   OH266502   0.020   3.189   4.849 -0.6287 -0.9063 -0.2198
15004TIP3    H166503  -0.061   3.220   4.808 -0.8737 -1.8463 -0.4481
15004TIP3    H266504   0.025   3.096   4.827  1.1090 -0.6232 -1.2092
15005TIP3   OH266505   2.634   5.458  13.359  0.2465  0.4574  0.1431
15005TIP3    H166506   2.594   5.385  13.312  0.6321  0.7951 -0.7199
15005TIP3    H266507   2.570   5.481  13.427 -0.0605 -0.4039  0.1516
15006TIP3   OH266508   5.520   1.672  11.612  0.2973 -0.1937  0.6795
15006TIP3    H166509   5.448   1.694  11.671  0.6868  1.3472  0.6099
15006TIP3    H266510   5.598   1.677  11.667  0.4688 -0.7512  0.4933
15007TIP3   OH266511   3.510   6.689   0.831 -0.6694  0.6724 -0.2068
15007TIP3    H166512   3.492   6.716   0.741 -1.7097 -0.6129 -0.4268
15007TIP3    H266513   3.423   6.689   0.873 -0.5351 -0.9697  0.1286
15008TIP3   OH266514   5.499   3.170   4.627  0.7645 -0.9703 -0.2950
15008TIP3    H166515   5.533   3.194   4.713 -2.6035 -2.2080  1.5430
15008TIP3    H266516   5.504   3.075   4.624  3.6708 -0.9293 -2.9221
15009TIP3   OH266517   1.264   4.317  13.174  0.0676  0.3845 -0.4044
15009TIP3    H166518   1.355   4.286  13.173 -0.2577 -0.6206  0.0600
15009TIP3    H266519   1.227   4.280  13.255 -1.2947 -0.8423 -1.5426
15010TIP3   OH266520   1.147   6.058  11.752  0.0508  0.0970 -0.3497
15010TIP3    H166521   1.135   6.012  11.835  0.3216  1.1663  0.3050
15010TIP3    H266522   1.239   6.087  11.754  0.3100 -0.5890 -1.4106
15011TIP3   OH266523   3.261   2.557  13.048  0.0352  0.3961  0.6706
15011TIP3    H166524   3.292   2.647  13.047 -0.0388  0.4352 -1.0031
15011TIP3    H266525   3.281   2.526  13.136  0.1806  1.9969  1.2322
15012TIP3   OH266526   0.089   5.297   0.607  0.1945 -0.2123 -0.3586
15012TIP3    H166527   0.157   5.302   0.675  2.5996 -0.3421 -2.6083
15012TIP3    H266528   0.077   5.204   0.592  0.0456 -0.1699 -0.5049
15013TIP3   OH266529   6.472   3.525  15.443  0.1908  0.6644 -0.1060
15013TIP3    H166530   6.380   3.499  15.442 -0.1096  1.7035 -0.9463
15013TIP3    H266531   6.470   3.621  15.439  1.2894  0.8063  1.4814
15014TIP3   OH266532   1.691   0.897  14.237 -0.4319  0.5728 -0.1899
15014TIP3    H166533   1.781   0.924  14.256 -0.1764 -0.2825 -0.1538
15014TIP3    H266534   1.696   0.803  14.222 -1.3736  0.4481  0.1527
15015TIP3   OH266535   6.595   0.276   5.864  0.3953  0.0455  0.8477
15015TIP3    H166536   6.662   0.318   5.919  2.3043 -1.7159 -0.0347
15015TIP3    H266537   6.643   0.241   5.790 -1.3246 -2.3364  0.7606
15016TIP3   OH266538   6.161   0.456  13.781  0.9136  0.5918 -0.4965
15016TIP3    H166539   6.066   0.463  13.790  1.0990  3.7037 -0.1869
15016TIP3    H266540   6.174   0.425  13.691 -0.3430 -1.1976 -0.1298
15017TIP3   OH266541   3.192   3.294   4.313  0.0314  0.1182  0.1055
15017TIP3    H166542   3.239   3.355   4.370 -0.0735  0.4334 -0.1413
15017TIP3    H266543   3.135   3.350   4.260 -0.9376 -0.2911  0.6929
15018TIP3   OH266544   1.160   4.740  13.908 -0.6898  0.0163 -0.4682
15018TIP3    H166545   1.204   4.786  13.980 -2.6207  1.0101  0.1452
15018TIP3    H266546   1.072   4.778  13.905 -1.7629 -2.3396 -1.2136
15019TIP3   OH266547   4.623   1.465  15.809 -0.0652 -0.4993 -0.4943
15019TIP3    H166548   4.623   1.547  15.857 -0.9651 -0.2836 -0.8411
15019TIP3    H266549   4.662   1.487  15.724 -0.7555 -0.3106 -0.7678
15020TIP3   OH266550   4.126   0.400   3.414 -0.3501 -1.1800  0.5105
15020TIP3    H166551   4.139   0.408   3.319 -0.0955 -1.7109  0.4992
15020TIP3    H266552   4.215   0.394   3.450 -0.4617 -1.5493  0.7299
15021TIP3   OH266553   3.184   4.289  15.171  0.2603  0.7482  0.3675
15021TIP3    H166554   3.216   4.322  15.255 -1.3158 -0.3390  1.4790
15021TIP3    H266555   3.230   4.340  15.105  1.9633  1.2691  1.8765
15022TIP3   OH266556   1.389   4.467   2.868 -0.0841 -0.8231  0.0063
15022TIP3    H166557   1.351   4.483   2.782 -1.3989  0.8992  0.8585
15022TIP3    H266558   1.483   4.483   2.856 -0.3679  0.2516 -0.9320
15023TIP3   OH266559   4.367   3.651   3.629 -0.0765  0.3832  0.0607
15023TIP3    H166560   4.288   3.702   3.645  0.4854  0.8760  1.4504
15023TIP3    H266561   4.424   3.672   3.703  0.8533 -0.9458 -0.2436
15024TIP3   OH266562   5.227   0.986   5.133 -0.1466  0.2537 -0.6704
15024TIP3    H166563   5.199   0.927   5.063 -0.7884  0.6775 -0.7772
15024TIP3    H266564   5.183   1.069   5.113  2.4030  1.4459 -1.7348
15025TIP3   OH266565   4.802   3.319   1.798  0.0861 -0.5676 -0.2367
15025TIP3    H166566   4.859   3.313   1.722  0.0158 -2.1373 -0.2028
15025TIP3    H266567   4.721   3.358   1.765  1.6825  3.5483  0.0751
15026TIP3   OH266568   0.249   3.472   2.970 -0.0091 -0.5215  0.3855
15026TIP3    H166569   0.329   3.498   2.925 -1.1618  0.3513 -1.2830
15026TIP3    H266570   0.216   3.397   2.920 -0.9188 -0.0147  0.1928
15027TIP3   OH266571   1.665   4.448  15.656  0.0480  0.4365  0.3155
15027TIP3    H166572   1.648   4.446  15.750 -1.5096  0.0964  0.0484
15027TIP3    H266573   1.748   4.495  15.648 -0.1847  1.1614  1.8071
15028TIP3   OH266574   5.584   3.449   5.064  0.2632  0.2404 -0.9363
15028TIP3    H166575   5.645   3.472   4.994 -0.9435  1.2618 -1.7105
15028TIP3    H266576   5.639   3.429   5.139  1.6189 -1.4204 -2.2968
15029TIP3   OH266577   6.666   4.253   1.937 -0.5622 -0.4817 -0.2283
15029TIP3    H166578   6.671   4.165   1.975 -0.5722 -0.1947  0.4533
15029TIP3    H266579   6.576   4.280   1.953 -0.2181  0.1568  0.7365
15030TIP3   OH266580   6.781   5.513   4.015 -0.0116  0.1878 -0.2025
15030TIP3    H166581   6.876   5.514   4.010  0.0117 -0.8584 -0.1898
15030TIP3    H266582   6.753   5.482   3.929 -0.4003  1.5306 -0.5924
15031TIP3   OH266583   2.062   6.808  13.474  0.9255 -0.2078 -0.2518
15031TIP3    H166584   2.041   6.848  13.558  2.4242  0.1946 -0.0452
15031TIP3    H266585   2.004   6.852  13.411  1.3883  1.1313  0.2306
15032TIP3   OH266586   1.921   6.801   0.306 -0.4187 -0.3474  0.0162
15032TIP3    H166587   1.994   6.766   0.358 -1.1517  0.1816  1.4598
15032TIP3    H266588   1.960   6.820   0.221  1.0692 -0.3584  0.6565
15033TIP3   OH266589   5.872   5.924  12.255 -0.1782  0.2469 -0.4141
15033TIP3    H166590   5.960   5.934  12.292 -0.2153  2.7948 -0.7967
15033TIP3    H266591   5.833   5.853  12.304  2.2912 -1.4038 -0.6536
15034TIP3   OH266592   2.292   5.785  13.255  0.3429 -0.1730  0.3437
15034TIP3    H166593   2.334   5.699  13.262 -0.6954 -0.7808 -0.6895
15034TIP3    H266594   2.334   5.826  13.179  0.6449  0.1349  0.6713
15035TIP3   OH266595   0.218   5.263  12.285  0.0911  0.1575  0.0844
15035TIP3    H166596   0.130   5.282  12.316  0.5104  0.7273  0.9901
15035TIP3    H266597   0.248   5.345  12.245  0.8116  0.5333  1.3158
15036TIP3   OH266598   0.272   2.007  17.040  0.2128  0.1680 -0.5263
15036TIP3    H166599   0.340   2.072  17.058  0.4503 -0.1943 -0.1025
15036TIP3    H266600   0.319   1.925  17.027 -0.1667 -0.1830  0.2341
15037TIP3   OH266601   0.537   4.610  14.726  0.1957 -0.0629 -0.1623
15037TIP3    H166602   0.591   4.627  14.803 -1.3201  1.8914  0.5692
15037TIP3    H266603   0.451   4.588  14.762 -0.9033  2.1789 -1.2092
15038TIP3   OH266604   6.546   2.451   0.153 -0.2604 -0.6480  0.0680
15038TIP3    H166605   6.615   2.516   0.143 -0.0674 -0.7735  0.5558
15038TIP3    H266606   6.590   2.374   0.189 -0.3345 -1.3510 -1.2799
15039TIP3   OH266607   3.411   4.578  15.538 -0.1630 -0.7542  0.0677
15039TIP3    H166608   3.493   4.590  15.585 -1.0971 -2.0052  2.1902
15039TIP3    H266609   3.370   4.664  15.538  0.2029 -0.5731  0.9321
15040TIP3   OH266610   2.756   5.845  16.048 -0.0272 -0.2962 -0.1646
15040TIP3    H166611   2.777   5.853  15.955 -0.2399  2.0563 -0.0867
15040TIP3    H266612   2.802   5.767  16.077  1.1093 -0.3530 -1.9625
15041TIP3   OH266613   1.926   0.281  14.146 -0.3040  0.0339  0.1631
15041TIP3    H166614   1.988   0.209  14.138 -0.3919 -0.0550  0.2946
15041TIP3    H266615   1.971   0.345  14.202 -0.3611 -0.0626  0.3191
15042TIP3   OH266616   6.515   2.388   0.986  0.7451  0.0963  0.3913
15042TIP3    H166617   6.575   2.405   1.058  0.2596  0.3140  0.7519
15042TIP3    H266618   6.501   2.474   0.946  0.6676  0.0487  0.3147
15043TIP3   OH266619   3.028   4.691  14.455 -0.3297 -0.0464 -0.0803
15043TIP3    H166620   3.005   4.738  14.535  0.4087  0.1298  0.0382
15043TIP3    H266621   3.016   4.599  14.477  0.1065 -0.0108  0.3156
15044TIP3   OH266622   1.862   5.617  11.913  0.3976  0.4160  0.1442
15044TIP3    H166623   1.952   5.651  11.908  0.7641 -0.6339 -0.7671
15044TIP3    H266624   1.808   5.686  11.876  1.0263  0.4178 -0.8065
15045TIP3   OH266625   3.806   5.067  11.694 -0.1479 -0.4054  0.1273
15045TIP3    H166626   3.858   4.989  11.675  0.5902  0.1531 -0.1622
15045TIP3    H266627   3.715   5.038  11.683  0.0751 -1.4463  0.8436
15046TIP3   OH266628   3.947   1.129  13.548 -0.5378 -0.5428  0.4135
15046TIP3    H166629   3.896   1.050  13.527  0.6424 -1.4057  0.6898
15046TIP3    H266630   3.949   1.130  13.644 -1.1661  0.2489  0.4284
15047TIP3   OH266631   5.369   4.414   3.592  0.1470 -0.2771 -0.0953
15047TIP3    H166632   5.354   4.493   3.541  1.1103 -0.5543 -0.8293
15047TIP3    H266633   5.335   4.435   3.679 -0.2413  0.6880 -0.4666
15048TIP3   OH266634   3.757   0.134   5.607 -0.2768  0.3728 -0.1866
15048TIP3    H166635   3.813   0.207   5.632  1.4296 -0.3932 -1.5868
15048TIP3    H266636   3.817   0.068   5.573 -1.9543 -0.9083 -0.8130
15049TIP3   OH266637   3.653   6.344   0.148  0.2074 -0.5798 -0.7556
15049TIP3    H166638   3.600   6.387   0.215  0.5950 -0.4820 -0.5062
15049TIP3    H266639   3.631   6.252   0.155 -0.1058 -0.5087 -0.8143
15050TIP3   OH266640   0.919   3.565   5.921  0.3592 -0.0718  0.4224
15050TIP3    H166641   0.829   3.543   5.944  1.3248 -0.2817  4.8851
15050TIP3    H266642   0.944   3.633   5.983  2.1900  3.0107 -3.2815
15051TIP3   OH266643   0.093   4.814   5.656 -0.9054 -0.4793  0.9667
15051TIP3    H166644   0.019   4.873   5.645 -1.9286 -1.5275  1.9091
15051TIP3    H266645   0.054   4.727   5.660  0.3082 -1.0097  2.1315
15052TIP3   OH266646   6.712   1.026  14.789  0.6776  0.1499  0.9411
15052TIP3    H166647   6.769   0.961  14.748 -0.7152 -1.9271  2.0969
15052TIP3    H266648   6.675   1.075  14.716  0.6642 -1.3547 -0.1118
15053TIP3   OH266649   1.863   5.005   5.515 -0.0858  0.3534  0.3619
15053TIP3    H166650   1.908   4.937   5.565 -0.0628  0.3115  0.2840
15053TIP3    H266651   1.874   5.084   5.568  3.4595  1.2713 -1.4278
15054TIP3   OH266652   6.435   3.275  13.353 -0.1102  0.2511  0.0212
15054TIP3    H166653   6.499   3.315  13.294  1.9148 -1.0034  1.2494
15054TIP3    H266654   6.474   3.191  13.377 -1.9819 -0.3222  1.2804
15055TIP3   OH266655   4.531   0.646  13.482  0.3675  0.2068  0.3864
15055TIP3    H166656   4.472   0.571  13.472 -0.5427  0.3098  3.7476
15055TIP3    H266657   4.474   0.723  13.473  0.5331  0.3800  0.7842
15056TIP3   OH266658   0.422   5.468   2.966  0.0627  0.5150 -0.7257
15056TIP3    H166659   0.496   5.420   2.930 -0.4352  0.4828 -1.7512
15056TIP3    H266660   0.392   5.522   2.893 -2.0174 -0.7717 -0.8843
15057TIP3   OH266661   3.363   4.554  11.715 -0.5240 -0.5617 -0.4816
15057TIP3    H166662   3.426   4.624  11.734  0.0614 -1.0913 -0.4366
15057TIP3    H266663   3.278   4.594  11.733 -0.1517 -0.1681  0.5408
15058TIP3   OH266664   4.965   1.509   3.129 -0.5041  0.3015 -0.3855
15058TIP3    H166665   5.034   1.445   3.112 -1.6541 -0.6396 -1.7217
15058TIP3    H266666   4.968   1.523   3.224  0.9020 -0.3893 -0.3003
15059TIP3   OH266667   5.813   6.427   1.363 -0.0978  0.5712 -0.2261
15059TIP3    H166668   5.797   6.336   1.340 -1.4371 -0.2727  3.3171
15059TIP3    H266669   5.732   6.472   1.342 -0.6246  0.2107  0.9679
15060TIP3   OH266670   5.047   5.829  14.342  0.9323  0.4357  0.4125
15060TIP3    H166671   5.011   5.762  14.284  3.6515  0.0539 -1.0321
15060TIP3    H266672   5.123   5.787  14.383  1.6871  2.1025  0.8118
15061TIP3   OH266673   1.788   1.891   2.401 -0.4780 -0.2917  0.6281
15061TIP3    H166674   1.805   1.861   2.491 -0.6783 -0.2748  0.6718
15061TIP3    H266675   1.874   1.895   2.361 -0.2902  0.5139  1.0751
15062TIP3   OH266676   6.701   1.436   3.392  0.1681  0.2493 -0.1458
15062TIP3    H166677   6.659   1.358   3.429  0.1998  0.3036  0.0065
15062TIP3    H266678   6.643   1.464   3.322 -0.4445  0.7721  0.5629
15063TIP3   OH266679   1.523   2.571   4.723  0.0508  0.1941 -0.1393
15063TIP3    H166680   1.470   2.524   4.787  0.5562  0.7460  0.7044
15063TIP3    H266681   1.610   2.533   4.731 -0.3986 -1.4732 -2.2917
15064TIP3   OH266682   5.400   6.317  14.850 -0.2723  0.2753 -0.2306
15064TIP3    H166683   5.305   6.323  14.842 -0.4934 -0.9882  1.0329
15064TIP3    H266684   5.433   6.388  14.794 -1.8472 -0.8234 -2.7489
15065TIP3   OH266685   3.565   2.455   2.994  0.3368 -0.4210 -0.2923
15065TIP3    H166686   3.609   2.537   2.970  0.1063 -0.1915  0.0562
15065TIP3    H266687   3.472   2.474   2.986  0.2868 -0.7468 -0.5098
15066TIP3   OH266688   2.816   5.902  13.346  0.9469 -0.0497 -0.4044
15066TIP3    H166689   2.736   5.905  13.294  1.4272  0.0359 -1.1680
15066TIP3    H266690   2.797   5.841  13.417 -0.0071  0.4775 -0.1889
15067TIP3   OH266691   2.598   3.888   2.137  0.8643 -0.2701  0.2718
15067TIP3    H166692   2.638   3.825   2.077  1.1585 -2.3875  2.5203
15067TIP3    H266693   2.561   3.834   2.207 -2.1055  1.8779  0.5301
15068TIP3   OH266694   5.128   3.999   0.797 -0.0200 -0.1563  0.0203
15068TIP3    H166695   5.108   4.035   0.884 -0.4382  0.5485 -0.3611
15068TIP3    H266696   5.197   4.056   0.763  0.0857 -0.3841 -0.1500
15069TIP3   OH266697   6.069   2.404  11.308  0.1821  0.0910 -0.1034
15069TIP3    H166698   6.023   2.330  11.346  0.4179  0.3113  0.6461
15069TIP3    H266699   6.143   2.366  11.261 -0.1608 -0.1938 -0.4133
15070TIP3   OH266700   5.351   2.852  11.292  0.3024  0.2643 -0.0582
15070TIP3    H166701   5.393   2.768  11.279 -0.8810 -0.2135 -1.0844
15070TIP3    H266702   5.416   2.917  11.264  1.2149 -0.3002  0.7305
15071TIP3   OH266703   5.820   1.986   5.131  0.1003  0.0644 -1.0383
15071TIP3    H166704   5.893   2.045   5.114  0.2586 -0.4905 -2.3401
15071TIP3    H266705   5.823   1.922   5.061 -0.9538 -0.6481 -0.4658
15072TIP3   OH266706   6.572   4.592  12.769  0.2286  0.1615  0.3087
15072TIP3    H166707   6.500   4.557  12.821  0.1362 -1.6983 -0.9693
15072TIP3    H266708   6.536   4.601  12.681  1.2395  0.2542 -0.1145
15073TIP3   OH266709   3.780   5.955  16.064  0.3913  0.1932  0.0033
15073TIP3    H166710   3.693   5.961  16.024  0.7752  0.8835 -0.7731
15073TIP3    H266711   3.837   6.004  16.005  1.6789 -1.7951 -0.5008
15074TIP3   OH266712   1.546   0.667   4.913  0.1732 -0.4574  0.2065
15074TIP3    H166713   1.618   0.727   4.932  1.0181 -1.2783 -0.3226
15074TIP3    H266714   1.558   0.594   4.974  0.4084 -1.0791 -0.5593
15075TIP3   OH266715   5.582   0.177   3.524  0.2944 -0.2190  0.5085
15075TIP3    H166716   5.542   0.260   3.497 -0.6856 -0.2601  1.7365
15075TIP3    H266717   5.614   0.194   3.613  0.7027 -0.9638  0.5114
15076TIP3   OH266718   4.174   5.139  14.928 -0.2513  0.2407  0.0075
15076TIP3    H166719   4.112   5.188  14.981 -0.7255 -0.2252 -0.1062
15076TIP3    H266720   4.120   5.095  14.862 -0.1586 -2.2437  1.4743
15077TIP3   OH266721   2.832   3.410  13.952 -0.2273  0.0861  0.6532
15077TIP3    H166722   2.792   3.375  13.873  1.2141 -0.3325  0.0702
15077TIP3    H266723   2.924   3.382  13.946  0.2210  1.2408  1.7750
15078TIP3   OH266724   4.279   0.377  14.278 -0.0293 -0.8845  0.3671
15078TIP3    H166725   4.187   0.399  14.271 -0.2676 -2.0949 -0.8463
15078TIP3    H266726   4.280   0.285  14.304  0.8235 -1.0762 -0.2975
15079TIP3   OH266727   3.763   3.539   0.978 -0.5205 -0.1405 -0.5752
15079TIP3    H166728   3.739   3.552   0.886 -0.0767 -0.2637 -0.7107
15079TIP3    H266729   3.700   3.474   1.010 -0.6297 -0.1525 -0.8118
15080TIP3   OH266730   0.664   3.832   5.647 -0.4563 -0.4071  0.7452
15080TIP3    H166731   0.696   3.817   5.558  0.7611  0.6265  0.9774
15080TIP3    H266732   0.631   3.746   5.675  0.2391 -1.0299 -0.2713
15081TIP3   OH266733   2.764   3.077  11.245  0.1897  0.0100  0.2968
15081TIP3    H166734   2.770   3.021  11.168 -1.4937  1.5829 -1.0882
15081TIP3    H266735   2.748   3.017  11.318  1.0321 -1.4690 -0.6863
15082TIP3   OH266736   3.666   3.573   5.977 -0.1015  0.0792 -0.0822
15082TIP3    H166737   3.605   3.550   5.907 -0.9545  0.4058  0.5313
15082TIP3    H266738   3.681   3.491   6.023  0.1721 -0.0646 -0.4280
15083TIP3   OH266739   3.026   1.949  16.902 -0.7320  0.7389  0.2230
15083TIP3    H166740   2.937   1.974  16.880 -0.9740 -0.2726 -0.0215
15083TIP3    H266741   3.020   1.916  16.992 -0.9780 -0.9742 -0.3766
15084TIP3   OH266742   4.067   6.758   2.901 -0.2448 -0.2048 -0.3431
15084TIP3    H166743   3.982   6.744   2.943 -0.6206  0.3198 -0.9196
15084TIP3    H266744   4.108   6.828   2.951 -0.2409 -0.2995 -0.2107
15085TIP3   OH266745   5.282   0.589  12.911 -0.0709  0.0293 -0.2182
15085TIP3    H166746   5.203   0.603  12.858 -0.0784 -0.1892 -0.2684
15085TIP3    H266747   5.271   0.500  12.945  0.3405 -0.1428 -0.5367
15086TIP3   OH266748   0.819   3.990  11.508 -0.7953  0.5996 -0.2103
15086TIP3    H166749   0.900   4.028  11.543 -1.0078  1.6050 -0.7626
15086TIP3    H266750   0.835   3.896  11.509 -0.5356  0.6263  1.9001
15087TIP3   OH266751   1.671   3.682  12.761  0.3502  0.2178 -0.2935
15087TIP3    H166752   1.617   3.719  12.830 -0.8959 -2.4056  0.2610
15087TIP3    H266753   1.715   3.608  12.802  0.5769 -0.6277 -1.9777
15088TIP3   OH266754   6.308   6.595  13.137  0.2662  0.0202  0.2101
15088TIP3    H166755   6.397   6.614  13.109  1.0278  1.5635  3.2725
15088TIP3    H266756   6.282   6.670  13.190 -2.1466 -1.2428  0.9853
15089TIP3   OH266757   2.157   4.218   1.255  0.1298  0.1439 -0.2275
15089TIP3    H166758   2.171   4.130   1.219  1.2514 -0.4817  1.6316
15089TIP3    H266759   2.062   4.225   1.262 -0.0697 -0.2321 -1.9463
15090TIP3   OH266760   6.466   5.643  11.892 -0.5477  0.0154 -0.0953
15090TIP3    H166761   6.510   5.673  11.972 -0.9849 -1.2217  0.6275
15090TIP3    H266762   6.535   5.641  11.826 -0.1092  0.7234  0.3293
15091TIP3   OH266763   6.058   2.084   1.983 -0.3007 -0.1997 -0.0406
15091TIP3    H166764   6.072   1.997   2.022 -0.8649  0.1709  1.0166
15091TIP3    H266765   6.103   2.144   2.042  1.0656  0.1604 -1.3680
15092TIP3   OH266766   4.674   6.834   1.874 -0.0144 -0.1505 -0.1978
15092TIP3    H166767   4.638   6.758   1.827  1.0962  0.0903 -1.4885
15092TIP3    H266768   4.685   6.900   1.806  1.8073  0.1585  0.3601
15093TIP3   OH266769   4.695   1.363  14.812  0.5562 -0.4441 -0.0580
15093TIP3    H166770   4.693   1.451  14.775 -1.3702 -0.6402 -0.5361
15093TIP3    H266771   4.785   1.351  14.840  0.6723  2.0231  0.9068
15094TIP3   OH266772   0.085   0.807  11.740 -0.4198  0.1168 -0.1352
15094TIP3    H166773   0.081   0.900  11.718  1.3878  0.6073  1.3244
15094TIP3    H266774   0.114   0.765  11.659  0.7794  1.1415 -0.2824
15095TIP3   OH266775   1.140   1.623  12.539 -0.3573  0.8290 -0.3820
15095TIP3    H166776   1.203   1.572  12.488 -0.7161  0.3439 -0.3594
15095TIP3    H266777   1.076   1.558  12.568 -1.3331  1.4338 -1.1189
15096TIP3   OH266778   6.774   6.190  16.486 -0.0574  0.1196 -0.6154
15096TIP3    H166779   6.791   6.126  16.417  0.5691  1.1614 -1.4458
15096TIP3    H266780   6.855   6.193  16.536  0.2464  0.9373 -1.1443
15097TIP3   OH266781   5.045   1.233   0.589  0.6177 -0.1352  0.4549
15097TIP3    H166782   4.972   1.294   0.583  0.3142 -0.5616 -0.3026
15097TIP3    H266783   5.059   1.221   0.683  0.4680  0.8354  0.6094
15098TIP3   OH266784   1.187   2.223  13.593 -0.6212  0.2702  0.1025
15098TIP3    H166785   1.232   2.277  13.658 -0.4482 -1.7058  1.7275
15098TIP3    H266786   1.202   2.268  13.509  2.4763  0.8843  0.8722
15099TIP3   OH266787   6.330   6.406   3.698  0.3591 -0.4481 -0.1701
15099TIP3    H166788   6.339   6.317   3.734  0.2231 -0.1464  0.6213
15099TIP3    H266789   6.287   6.456   3.767  2.1369  0.7145  0.1692
15100TIP3   OH266790   1.610   1.666   2.806 -0.5618  0.0643  0.2161
15100TIP3    H166791   1.692   1.622   2.783 -0.6785 -0.0733  0.0554
15100TIP3    H266792   1.621   1.692   2.897 -0.3547  0.0085  0.2076
15101TIP3   OH266793   1.049   4.423  11.695  0.3686 -0.0968  0.0279
15101TIP3    H166794   1.001   4.500  11.726  1.7603  0.9210 -0.2237
15101TIP3    H266795   0.985   4.373  11.645 -0.2933  1.4888 -0.7697
15102TIP3   OH266796   0.602   2.249  11.440  0.1758  0.4863 -0.3661
15102TIP3    H166797   0.554   2.322  11.399  0.0184  1.1219  0.8930
15102TIP3    H266798   0.640   2.202  11.366 -1.6796  0.4551 -1.3853
15103TIP3   OH266799   2.425   6.607   0.503 -0.1544  0.5172  0.5529
15103TIP3    H166800   2.465   6.546   0.441  1.3586  1.2681  0.7308
15103TIP3    H266801   2.419   6.558   0.585 -0.3030  0.1469  0.3200
15104TIP3   OH266802   2.463   4.210   5.218  0.1597  0.3333  1.1264
15104TIP3    H166803   2.503   4.235   5.135  1.3497 -1.7665  1.0048
15104TIP3    H266804   2.532   4.221   5.283 -0.5365  1.2471  1.7336
15105TIP3   OH266805   5.437   3.706  14.526 -0.4105  0.5374 -0.0891
15105TIP3    H166806   5.438   3.759  14.446  3.5645 -0.4508 -0.8726
15105TIP3    H266807   5.420   3.617  14.495  0.3347  0.2684  0.2795
15106TIP3   OH266808   1.419   6.411  15.050 -0.0065  0.1334 -0.1273
15106TIP3    H166809   1.447   6.412  14.958  1.6125 -1.0966  0.3040
15106TIP3    H266810   1.373   6.327  15.060 -0.8035  0.5809  0.0296
15107TIP3   OH266811   2.631   0.326   6.215 -0.7148 -0.1482  0.2316
15107TIP3    H166812   2.685   0.257   6.253  0.6291  0.5152 -0.3851
15107TIP3    H266813   2.589   0.368   6.290 -0.0467 -0.4217  0.7747
15108TIP3   OH266814   4.524   0.767  14.508  0.5541  0.2828  0.4378
15108TIP3    H166815   4.468   0.761  14.431  2.0441  1.9663 -0.8705
15108TIP3    H266816   4.535   0.860  14.522  0.1730  0.0167  2.8645
15109TIP3   OH266817   5.473   1.008  15.797 -0.0654 -0.0579  0.6136
15109TIP3    H166818   5.424   0.954  15.858  0.9470 -0.3202  1.2237
15109TIP3    H266819   5.553   1.031  15.844 -0.3049  1.7013  0.2566
15110TIP3   OH266820   2.970   4.466  14.614 -0.5251  0.2687  0.5425
15110TIP3    H166821   2.895   4.406  14.608  0.3369 -0.8425  0.6130
15110TIP3    H266822   2.989   4.472  14.707 -0.8570  0.9890  0.5711
15111TIP3   OH266823   1.165   3.872   0.757 -0.0923  0.5758  0.2138
15111TIP3    H166824   1.215   3.895   0.678  2.0614  0.3061  1.4018
15111TIP3    H266825   1.227   3.885   0.829 -1.2998 -1.1601  1.6706
15112TIP3   OH266826   0.092   0.476   2.935  0.5327 -0.3327 -0.0902
15112TIP3    H166827   0.144   0.421   2.994 -1.5331 -1.3992  0.8447
15112TIP3    H266828   0.009   0.488   2.980  0.1075  1.7435 -1.2977
15113TIP3   OH266829   4.456   5.019  15.398 -0.3786 -0.4558  0.1472
15113TIP3    H166830   4.512   5.096  15.401 -0.0772 -0.6981  2.1329
15113TIP3    H266831   4.377   5.048  15.354  0.3715  0.5433 -0.5676
15114TIP3   OH266832   4.453   0.571  14.690 -0.1871 -0.1391  0.3982
15114TIP3    H166833   4.408   0.510  14.632  1.7314 -0.4669 -0.8341
15114TIP3    H266834   4.509   0.623  14.632 -0.9977  2.1173  1.5350
15115TIP3   OH266835   3.816   2.391   0.244 -0.4355  0.1809  0.6107
15115TIP3    H166836   3.723   2.393   0.221 -0.1391 -1.0069 -0.8532
15115TIP3    H266837   3.856   2.457   0.187 -0.3165  0.4025  0.9487
15116TIP3   OH266838   0.803   1.307  10.441 -0.5624  0.2914  0.3901
15116TIP3    H166839   0.890   1.268  10.448 -0.8789 -0.6618 -0.6067
15116TIP3    H266840   0.778   1.293  10.349 -2.5339 -1.1419  1.0711
15117TIP3   OH266841   3.016   3.199  12.168 -0.2949 -0.1673  0.1219
15117TIP3    H166842   3.108   3.211  12.191 -0.2265 -2.2074  1.0583
15117TIP3    H266843   3.007   3.243  12.083  1.6999 -0.5065 -0.3067
15118TIP3   OH266844   0.916   4.744   3.599 -0.2251 -0.3530  0.4334
15118TIP3    H166845   0.865   4.733   3.518  1.7976 -1.4520 -0.7877
15118TIP3    H266846   0.999   4.700   3.580  1.0730  1.1055  2.4191
15119TIP3   OH266847   0.175   4.615  14.565  0.4204 -0.1090 -0.5378
15119TIP3    H166848   0.118   4.542  14.589  1.3337 -0.8428 -0.5566
15119TIP3    H266849   0.210   4.647  14.649  1.3549 -0.8086 -0.6482
15120TIP3   OH266850   2.935   1.485   4.510 -0.1178  0.3986 -0.0485
15120TIP3    H166851   2.857   1.500   4.564 -0.1726 -1.4497  0.4538
15120TIP3    H266852   2.900   1.465   4.423 -0.0337  3.2317 -0.8244
15121TIP3   OH266853   3.731   0.282   1.892  0.2762  0.7352 -0.0919
15121TIP3    H166854   3.743   0.361   1.946 -2.9582  1.4304 -0.2234
15121TIP3    H266855   3.693   0.218   1.952 -0.3660  0.4511 -0.7965
15122TIP3   OH266856   4.868   6.301  12.922 -0.4902  0.0714  0.1970
15122TIP3    H166857   4.857   6.247  13.000  0.6683  0.1052  0.3978
15122TIP3    H266858   4.810   6.376  12.936 -0.8654 -0.3092  0.6732
15123TIP3   OH266859   2.320   1.084   0.584  0.3618 -0.6608  0.1021
15123TIP3    H166860   2.342   1.171   0.617  1.9575 -1.1878  0.5481
15123TIP3    H266861   2.256   1.099   0.515  3.3958  1.2331 -2.5670
15124TIP3   OH266862   0.921   0.332  10.499  0.0793 -0.6201  0.1709
15124TIP3    H166863   0.838   0.332  10.450  1.0795 -0.2038 -1.6224
15124TIP3    H266864   0.902   0.382  10.578 -1.4007 -0.5882 -0.1755
15125TIP3   OH266865   5.830   1.622  15.922 -0.9242  0.1310  0.2993
15125TIP3    H166866   5.823   1.542  15.974  0.9862 -0.5883 -0.4334
15125TIP3    H266867   5.831   1.692  15.987  0.6342 -0.6932  1.2359
15126TIP3   OH266868   6.567   3.007  12.861  0.0484 -0.8593 -0.3545
15126TIP3    H166869   6.605   2.947  12.798  0.8553  0.8307 -1.5296
15126TIP3    H266870   6.633   3.016  12.930  0.2373 -0.7560 -0.5498
15127TIP3   OH266871   0.071   0.118  14.109 -0.6214 -0.1036  0.9219
15127TIP3    H166872   0.163   0.129  14.085 -0.7432  0.5900  0.7422
15127TIP3    H266873   0.048   0.031  14.076 -0.0736 -0.2183  0.8317
15128TIP3   OH266874   2.533   1.680  11.949 -0.0241  0.2536 -0.0730
15128TIP3    H166875   2.529   1.671  11.854  0.6002 -1.0564 -0.0015
15128TIP3    H266876   2.462   1.740  11.970  0.0820  0.8820 -1.3993
15129TIP3   OH266877   4.864   4.738  11.638 -0.1849  0.6359 -0.0360
15129TIP3    H166878   4.872   4.748  11.543  0.5925 -0.1518 -0.0713
15129TIP3    H266879   4.922   4.665  11.659 -1.9614 -0.6416  0.7565
15130TIP3   OH266880   5.291   1.700  13.229  0.4388  0.0775 -0.0693
15130TIP3    H166881   5.269   1.609  13.208  1.0424 -0.1296  0.1720
15130TIP3    H266882   5.285   1.705  13.324 -0.2341  0.4654 -0.1306
15131TIP3   OH266883   2.530   1.629  15.140  0.1572 -0.2240  0.0602
15131TIP3    H166884   2.436   1.623  15.121 -0.6494  0.8886  3.1704
15131TIP3    H266885   2.540   1.713  15.185  2.6192 -0.4569  0.0776
15132TIP3   OH266886   0.702   1.208   3.460 -0.1678 -0.3618  0.0149
15132TIP3    H166887   0.704   1.184   3.368  2.4637 -1.7399  0.3519
15132TIP3    H266888   0.668   1.131   3.504 -2.8992  0.8088  0.1749
15133TIP3   OH266889   2.769   6.364   1.841  0.1016  0.4582  0.2682
15133TIP3    H166890   2.855   6.321   1.844  0.0265  0.2384 -0.5606
15133TIP3    H266891   2.784   6.450   1.881  0.8391  0.6435 -0.3852
15134TIP3   OH266892   2.369   0.635   4.174  0.1950 -0.4117 -0.0383
15134TIP3    H166893   2.464   0.631   4.186  0.5889  3.3829 -0.5272
15134TIP3    H266894   2.351   0.579   4.099  2.2790 -0.0341 -0.8711
15135TIP3   OH266895   3.676   5.148   5.848 -0.2254 -0.4821 -0.4551
15135TIP3    H166896   3.642   5.059   5.852 -2.7787  0.3731 -1.1064
15135TIP3    H266897   3.632   5.187   5.773 -0.2040  1.7298  0.6157
15136TIP3   OH266898   5.113   0.283   6.213 -0.3607 -0.1907 -0.0112
15136TIP3    H166899   5.025   0.306   6.185 -1.2707  0.2683  2.8848
15136TIP3    H266900   5.124   0.192   6.186 -1.2588  0.1010 -1.4115
15137TIP3   OH266901   2.139   5.047   1.448 -0.3788 -0.4792 -0.0920
15137TIP3    H166902   2.075   4.977   1.459  1.5731 -3.0061 -3.0684
15137TIP3    H266903   2.222   5.008   1.475  0.5406  1.1962 -0.3903
15138TIP3   OH266904   6.423   3.988   3.553 -0.1158 -0.1391  0.0030
15138TIP3    H166905   6.424   4.026   3.465  0.2407 -1.1345 -0.4362
15138TIP3    H266906   6.490   3.919   3.551 -0.4639 -0.5243  0.8901
15139TIP3   OH266907   1.420   2.249   3.831  0.1165  0.0973 -0.2619
15139TIP3    H166908   1.430   2.162   3.792  0.2960 -0.0094  0.0235
15139TIP3    H266909   1.487   2.253   3.900 -0.2234  0.2749  0.0581
15140TIP3   OH266910   5.126   2.140   6.127 -0.3536 -0.0996 -0.1832
15140TIP3    H166911   5.150   2.225   6.165 -0.7554 -0.0850  0.0393
15140TIP3    H266912   5.163   2.075   6.187 -0.5783 -0.0783 -0.0205
15141TIP3   OH266913   1.614   3.168   3.184 -0.0206 -0.6338 -0.3244
15141TIP3    H166914   1.557   3.183   3.108  2.7495 -1.0403 -2.6651
15141TIP3    H266915   1.565   3.205   3.258 -2.6886  0.2248 -2.3304
15142TIP3   OH266916   6.335   3.577  12.836  0.0202 -0.5767  0.0890
15142TIP3    H166917   6.368   3.607  12.920  1.4083 -1.9175  0.0667
15142TIP3    H266918   6.408   3.589  12.775 -0.8264 -0.0090 -0.8602
15143TIP3   OH266919   1.442   4.136   2.057  0.4482 -0.2583 -0.5757
15143TIP3    H166920   1.397   4.159   1.976 -0.4832  3.4305  0.7861
15143TIP3    H266921   1.374   4.138   2.124  1.7844  0.6279  0.8354
15144TIP3   OH266922   3.852   0.197  10.643  0.6558  0.2270 -0.2438
15144TIP3    H166923   3.906   0.119  10.653  1.3905  0.6169 -1.0584
15144TIP3    H266924   3.763   0.167  10.662  1.2592 -0.1804  2.2571
15145TIP3   OH266925   4.849   2.957   2.449 -0.2882  1.0698  0.6937
15145TIP3    H166926   4.931   2.968   2.401 -0.1542  2.1152  1.1343
15145TIP3    H266927   4.869   2.990   2.537 -0.5835 -0.6160  1.4438
15146TIP3   OH266928   4.690   3.428  14.698  0.0714  0.3272  0.4933
15146TIP3    H166929   4.744   3.461  14.627  0.0476  0.0970  0.3670
15146TIP3    H266930   4.600   3.449  14.672  0.0833  0.5331  0.6102
15147TIP3   OH266931   3.299   3.091   6.426  0.0280  0.6836 -0.5822
15147TIP3    H166932   3.230   3.024   6.432  0.8515 -0.1827 -0.6257
15147TIP3    H266933   3.372   3.047   6.385  0.7792  1.4724 -0.1316
15148TIP3   OH266934   5.596   2.002  13.423  0.0057  0.0796  0.7261
15148TIP3    H166935   5.620   2.092  13.445  0.1795  0.3607 -0.5770
15148TIP3    H266936   5.534   2.009  13.351  0.8245 -0.8656 -0.1027
15149TIP3   OH266937   1.399   2.162   4.334  0.1971  0.2591 -0.0739
15149TIP3    H166938   1.493   2.170   4.346  0.2110  1.0304 -0.6747
15149TIP3    H266939   1.385   2.067   4.324  0.8197  0.0817  0.6059
15150TIP3   OH266940   2.412   6.290  11.906  0.4560 -0.3778 -0.0139
15150TIP3    H166941   2.450   6.370  11.871 -0.2550 -0.8019 -1.8399
15150TIP3    H266942   2.323   6.315  11.930  0.8390 -0.1692  1.2962
15151TIP3   OH266943   2.931   1.154   1.052  0.0480  0.0868 -0.0638
15151TIP3    H166944   2.986   1.229   1.029 -0.9166  1.3242  1.4492
15151TIP3    H266945   2.845   1.192   1.072 -0.0854 -1.2051  2.1895
15152TIP3   OH266946   4.178   5.659  14.898 -0.0371 -0.4932 -0.1954
15152TIP3    H166947   4.252   5.678  14.840  0.1272 -0.3776  0.0505
15152TIP3    H266948   4.200   5.704  14.980 -0.2229 -0.7358 -0.0116
15153TIP3   OH266949   4.483   6.625  12.891  0.0256  0.0463  0.2118
15153TIP3    H166950   4.425   6.699  12.908  0.2781  0.3445 -0.2192
15153TIP3    H266951   4.492   6.582  12.976 -2.4512 -1.1997 -0.0443
15154TIP3   OH266952   1.713   4.210  12.816 -0.1133  0.6350  0.2989
15154TIP3    H166953   1.765   4.245  12.744  1.0625  0.0629  0.8500
15154TIP3    H266954   1.623   4.209  12.782  0.6887 -1.9815 -2.1440
15155TIP3   OH266955   4.316   5.518  10.601  0.4085  0.3974 -0.2427
15155TIP3    H166956   4.243   5.546  10.657  0.9222 -0.5435  0.9253
15155TIP3    H266957   4.340   5.432  10.633  1.4289  0.2854 -1.2369
15156TIP3   OH266958   2.718   0.784   0.127 -0.0188  0.7477  0.1196
15156TIP3    H166959   2.773   0.719   0.171 -1.1303 -2.1977 -2.4712
15156TIP3    H266960   2.779   0.853   0.101  1.1347  1.1663  3.4088
15157TIP3   OH266961   3.044   3.007   5.773  0.2235  0.4831  0.3512
15157TIP3    H166962   2.954   2.996   5.805  1.0193 -2.7095  1.8441
15157TIP3    H266963   3.036   2.995   5.678 -0.6691 -2.7645  0.7241
15158TIP3   OH266964   5.334   5.234   3.837  0.0919 -0.1621 -0.5116
15158TIP3    H166965   5.385   5.258   3.759  0.5990  0.7414  0.0897
15158TIP3    H266966   5.334   5.313   3.891  0.8069 -1.1446  0.9838
15159TIP3   OH266967   0.600   3.436  11.526 -0.1558 -0.5624 -0.8186
15159TIP3    H166968   0.540   3.510  11.525 -1.9007 -1.8566  0.4049
15159TIP3    H266969   0.609   3.411  11.434  0.6728  1.2819 -1.2652
15160TIP3   OH266970   3.844   1.237  13.922 -0.1877 -0.1461  0.4186
15160TIP3    H166971   3.909   1.170  13.900 -0.4137 -0.3575  0.3831
15160TIP3    H266972   3.881   1.284  13.996 -0.8047 -1.4666  1.6254
15161TIP3   OH266973   5.722   2.452   5.623 -0.4148  0.2294 -0.0359
15161TIP3    H166974   5.748   2.360   5.613 -0.0844  0.3796 -0.6380
15161TIP3    H266975   5.627   2.451   5.611 -0.5804 -0.1957  1.2123
15162TIP3   OH266976   1.509   2.071  13.935 -0.4556  0.0319 -0.0916
15162TIP3    H166977   1.552   2.145  13.980 -0.0969  0.1977 -0.7031
15162TIP3    H266978   1.436   2.048  13.993  1.8311 -1.8839  2.3280
15163TIP3   OH266979   4.526   1.027  13.396 -0.2254 -0.2541 -0.2547
15163TIP3    H166980   4.473   1.071  13.330 -0.0253 -0.4504 -0.5515
15163TIP3    H266981   4.585   0.970  13.345  1.8598  1.6335 -0.1220
15164TIP3   OH266982   5.877   6.286   1.857  0.1080 -0.4179  0.0450
15164TIP3    H166983   5.852   6.204   1.899 -0.0503  0.2920  1.3921
15164TIP3    H266984   5.854   6.354   1.921  0.1530  0.6856 -1.0717
15165TIP3   OH266985   3.734   5.472  13.886  0.6627  0.4976 -0.0104
15165TIP3    H166986   3.773   5.394  13.847 -0.1053 -0.0587  0.3206
15165TIP3    H266987   3.753   5.542  13.822 -0.7583 -0.4276 -1.5351
15166TIP3   OH266988   6.044   1.605   5.133 -0.0875 -0.0134  0.0417
15166TIP3    H166989   6.118   1.543   5.131  0.7341  0.9315  0.1475
15166TIP3    H266990   6.066   1.666   5.204 -0.9076  0.3618 -0.0160
15167TIP3   OH266991   5.189   3.125  13.552  0.3570 -0.0357  0.3341
15167TIP3    H166992   5.145   3.059  13.605  3.0904 -2.3563 -0.0731
15167TIP3    H266993   5.190   3.203  13.607  0.3916 -1.4509  2.4436
15168TIP3   OH266994   6.035   3.077   4.067  0.7312 -0.2583 -0.5824
15168TIP3    H166995   6.093   3.016   4.022  0.4670 -1.3537  0.4794
15168TIP3    H266996   6.038   3.049   4.159 -0.7434  0.2257 -0.3534
15169TIP3   OH266997   0.342   6.681  14.077  0.0871  0.8536  0.2065
15169TIP3    H166998   0.255   6.660  14.041  0.4935 -2.1098  0.6897
15169TIP3    H266999   0.401   6.673  14.002  0.0164  3.1289 -0.1808
15170TIP3   OH267000   3.944   6.346   2.977 -0.1604  0.0768 -0.1749
15170TIP3    H167001   3.976   6.337   2.887 -0.6647  0.1067 -0.3560
15170TIP3    H267002   4.014   6.309   3.031  0.7874  1.3427 -0.4838
15171TIP3   OH267003   5.520   4.422  15.970 -0.6112  0.2327  0.1010
15171TIP3    H167004   5.475   4.495  16.013 -0.4339  0.0316  0.6381
15171TIP3    H267005   5.451   4.376  15.923 -0.6472  1.0181 -0.6435
15172TIP3   OH267006   4.952   4.518  14.765  0.0141  0.2976  0.3624
15172TIP3    H167007   4.999   4.442  14.800 -0.8290  0.4225  1.8548
15172TIP3    H267008   5.012   4.555  14.700  0.5598 -1.4583 -0.1931
15173TIP3   OH267009   1.549   5.781   4.174 -0.4802  0.4285 -0.6783
15173TIP3    H167010   1.540   5.859   4.119  0.5030 -0.5169 -2.2653
15173TIP3    H267011   1.573   5.815   4.260 -2.4833  1.9780 -0.6574
15174TIP3   OH267012   0.727   3.286  15.182  0.0077 -0.6344 -0.2690
15174TIP3    H167013   0.690   3.347  15.246  0.4170 -0.1378 -0.4908
15174TIP3    H267014   0.706   3.199  15.216 -0.1895 -0.3729  0.2916
15175TIP3   OH267015   5.812   2.106   4.204 -0.4238  0.0384  0.0759
15175TIP3    H167016   5.724   2.111   4.239  0.2428 -1.1645  2.0492
15175TIP3    H267017   5.864   2.163   4.261 -0.1247  2.0286 -2.0173
15176TIP3   OH267018   5.824   4.177  11.486  0.0603  0.4183 -0.1664
15176TIP3    H167019   5.741   4.130  11.487 -1.0986  2.3489 -0.9407
15176TIP3    H267020   5.857   4.169  11.575 -1.8490  1.0857  0.6599
15177TIP3   OH267021   4.928   4.509   4.047  0.1253  0.3606 -0.2980
15177TIP3    H167022   4.990   4.582   4.037 -0.3771  0.8857  0.3240
15177TIP3    H267023   4.893   4.496   3.959 -0.2628  1.3234 -0.3032
15178TIP3   OH267024   1.390   5.414   2.216 -0.0349 -0.0128  0.3793
15178TIP3    H167025   1.439   5.372   2.287  1.6075 -0.4485 -0.9320
15178TIP3    H267026   1.451   5.414   2.142 -1.2010  1.6458 -0.6537
15179TIP3   OH267027   2.531   4.695  16.608  0.5395  0.2134  0.3821
15179TIP3    H167028   2.508   4.760  16.542  2.3508  1.0783  0.5619
15179TIP3    H267029   2.463   4.705  16.676 -1.1077 -0.4167 -1.0985
15180TIP3   OH267030   0.455   0.465  12.023 -0.4153 -0.2731  0.6313
15180TIP3    H167031   0.406   0.388  12.051  1.1996 -0.9628  1.6990
15180TIP3    H267032   0.538   0.458  12.069  0.2397  1.4714 -0.2201
15181TIP3   OH267033   3.951   5.851  14.610  0.2540  0.1887  0.2735
15181TIP3    H167034   3.931   5.805  14.691  1.1524 -0.2535  0.2567
15181TIP3    H267035   3.889   5.923  14.607 -0.6022 -0.5164  0.7361
15182TIP3   OH267036   0.662   3.890  14.523 -0.2827  0.3344 -0.1879
15182TIP3    H167037   0.680   3.981  14.498  0.7722  1.3543  3.5861
15182TIP3    H267038   0.582   3.895  14.575  0.9660 -0.3828  1.9473
15183TIP3   OH267039   5.102   0.988   0.480  0.5818 -0.1187 -0.0487
15183TIP3    H167040   5.061   1.064   0.523  2.9184  0.9467  0.4489
15183TIP3    H267041   5.147   0.942   0.551 -2.1410 -3.0873  0.0089
15184TIP3   OH267042   2.900   0.134  11.931  0.0070  0.4141  0.5663
15184TIP3    H167043   2.861   0.217  11.905  0.0334 -0.2127 -1.6829
15184TIP3    H267044   2.979   0.126  11.877 -0.0029 -1.0689  0.7179
15185TIP3   OH267045   5.795   5.006  13.624 -0.2885 -0.8960 -0.1363
15185TIP3    H167046   5.767   5.078  13.568  0.9059  0.1778  0.5908
15185TIP3    H267047   5.735   5.007  13.698  0.8590  0.6296  0.8271
15186TIP3   OH267048   5.255   0.461  11.735  0.0325  0.3759  0.0653
15186TIP3    H167049   5.297   0.402  11.673  1.1492  0.8593  0.3194
15186TIP3    H267050   5.302   0.544  11.723 -0.6641  0.8549  0.5886
15187TIP3   OH267051   0.283   6.683   6.354 -0.3048  0.3484 -0.1659
15187TIP3    H167052   0.305   6.761   6.302 -2.6087  0.6056 -0.8804
15187TIP3    H267053   0.264   6.717   6.441 -0.7477  0.5362 -0.3295
15188TIP3   OH267054   4.875   1.302  11.499 -0.2343  0.1248 -0.0500
15188TIP3    H167055   4.807   1.288  11.433 -0.8441 -0.7635  0.7370
15188TIP3    H267056   4.851   1.385  11.540  0.6088  1.1089 -1.4469
15189TIP3   OH267057   0.419   0.359  11.266  0.2741  0.1163  0.1852
15189TIP3    H167058   0.462   0.336  11.348 -0.2947  0.3931  0.5739
15189TIP3    H267059   0.343   0.411  11.293 -0.9176 -1.2626 -0.4060
15190TIP3   OH267060   3.856   3.226   1.022  0.3131  0.7521 -0.0448
15190TIP3    H167061   3.842   3.207   0.929 -0.1602 -0.3018  0.2262
15190TIP3    H267062   3.887   3.316   1.024  0.3329  0.7817 -1.2277
15191TIP3   OH267063   3.821   2.436  14.236 -0.1125 -0.2542  0.3740
15191TIP3    H167064   3.759   2.457  14.166  1.2151  0.8709 -0.5243
15191TIP3    H267065   3.888   2.383  14.194  0.0690 -0.6029  1.0925
15192TIP3   OH267066   2.120   6.113  15.135 -0.1805 -0.7798  0.7467
15192TIP3    H167067   2.140   6.031  15.090 -0.2124 -1.8488  2.5507
15192TIP3    H267068   2.201   6.135  15.181 -0.8136 -1.0046  2.0136
15193TIP3   OH267069   2.698   3.795  14.421  0.3172 -0.1029  0.2543
15193TIP3    H167070   2.709   3.700  14.424 -1.5768 -0.4072 -1.0192
15193TIP3    H267071   2.681   3.815  14.329 -2.0502  1.0773  0.8704
15194TIP3   OH267072   0.121   2.954  10.416 -0.2472  0.3593  0.3163
15194TIP3    H167073   0.074   2.932  10.335  0.2224  0.5667 -0.0174
15194TIP3    H267074   0.192   3.012  10.387 -0.0816  0.4406  0.8805
15195TIP3   OH267075   4.979   5.099   2.972  0.5090  0.3932 -0.3386
15195TIP3    H167076   5.070   5.080   2.993  0.7683  1.7176 -0.1932
15195TIP3    H267077   4.973   5.195   2.971 -1.7646  0.5217  3.7071
15196TIP3   OH267078   1.481   3.944   5.972 -0.5682  0.5392  0.0798
15196TIP3    H167079   1.498   3.896   5.891 -0.2561  1.2097 -0.2603
15196TIP3    H267080   1.480   4.036   5.945 -1.7325  0.7037  0.6181
15197TIP3   OH267081   3.442   3.890   5.075  0.4292 -0.9523 -0.4140
15197TIP3    H167082   3.409   3.862   4.990  1.4874  0.2141 -1.2451
15197TIP3    H267083   3.509   3.956   5.055 -1.0342  1.2576  1.3501
15198TIP3   OH267084   4.599   2.749  15.949  0.2277 -0.3497  0.0473
15198TIP3    H167085   4.612   2.822  15.888  0.3087  0.7690  1.3467
15198TIP3    H267086   4.681   2.700  15.945  0.6801  0.3846  0.1055
15199TIP3   OH267087   4.625   2.314  13.465 -0.3074  0.5196  0.1682
15199TIP3    H167088   4.689   2.372  13.422 -0.4678 -0.3666 -1.3509
15199TIP3    H267089   4.540   2.342  13.430 -0.5849  0.5897  0.8827
15200TIP3   OH267090   1.226   5.888  14.537 -0.2387 -0.2543  0.3236
15200TIP3    H167091   1.274   5.954  14.487 -0.3522  0.0434  0.6097
15200TIP3    H267092   1.252   5.805  14.497 -2.4579  0.0966 -2.1147
15201TIP3   OH267093   6.562   5.735  13.811 -0.1527 -0.6796 -0.2504
15201TIP3    H167094   6.528   5.661  13.861  2.3135  0.3864  3.4436
15201TIP3    H267095   6.518   5.812  13.847 -1.6948 -0.1012 -3.0960
15202TIP3   OH267096   2.157   4.934   1.043  0.3985  0.5282 -0.5336
15202TIP3    H167097   2.231   4.948   0.983 -0.9890 -0.8804 -2.6966
15202TIP3    H267098   2.079   4.944   0.988 -0.9717 -0.3188  1.1560
15203TIP3   OH267099   2.693   3.283  16.175 -0.7553 -0.0078 -0.2837
15203TIP3    H167100   2.747   3.355  16.140  0.5499 -0.3792  0.8785
15203TIP3    H267101   2.632   3.263  16.104 -0.2767  1.3622 -1.1335
15204TIP3   OH267102   6.386   2.314   5.379  0.5670 -0.0019  0.4959
15204TIP3    H167103   6.435   2.391   5.352 -0.1645 -0.1943 -1.5305
15204TIP3    H267104   6.425   2.289   5.463  1.5115  1.9271  0.6826
15205TIP3   OH267105   1.084   4.671   1.774  0.1624 -0.2548 -0.4315
15205TIP3    H167106   0.994   4.671   1.807  0.1298  0.9143 -0.4919
15205TIP3    H267107   1.077   4.640   1.684 -0.0329 -1.2418 -0.0873
15206TIP3   OH267108   3.717   0.814  14.627  0.0706  0.0752 -0.1001
15206TIP3    H167109   3.755   0.883  14.682  1.2322 -0.3032 -0.4102
15206TIP3    H267110   3.712   0.852  14.540  0.1345 -0.0274 -0.1482
15207TIP3   OH267111   5.685   6.188   2.306 -0.3069  0.1510  0.5338
15207TIP3    H167112   5.774   6.218   2.325  0.2064  0.5282 -2.0105
15207TIP3    H267113   5.631   6.267   2.306 -0.7877 -0.1412  2.5834
15208TIP3   OH267114   5.442   2.520   1.671  0.6575  0.6558 -0.4523
15208TIP3    H167115   5.517   2.547   1.724  0.9594 -0.2299 -0.4051
15208TIP3    H267116   5.449   2.425   1.667  0.6582  0.6992 -2.1276
15209TIP3   OH267117   1.807   0.179   0.528  0.5794  0.2261  0.3045
15209TIP3    H167118   1.771   0.103   0.482 -1.5187  0.6486  1.1435
15209TIP3    H267119   1.897   0.186   0.495 -0.0708 -0.8986 -1.9194
15210TIP3   OH267120   2.340   1.211  12.152  0.1426  0.1306 -0.3870
15210TIP3    H167121   2.296   1.180  12.073 -0.3693  2.4286 -1.0822
15210TIP3    H267122   2.393   1.285  12.122  0.0090  0.9918  1.3910
15211TIP3   OH267123   2.439   1.600   2.838  0.2078  0.1588 -0.5548
15211TIP3    H167124   2.529   1.574   2.854  0.4614  1.4956  0.4146
15211TIP3    H267125   2.428   1.593   2.744  0.7273 -1.7895 -0.5133
15212TIP3   OH267126   4.138   0.345  12.310 -0.1649 -0.0802  0.7465
15212TIP3    H167127   4.102   0.358  12.398  2.4345 -1.1568  2.0668
15212TIP3    H267128   4.132   0.251  12.295  0.5045 -0.0518  0.2646
15213TIP3   OH267129   3.827   4.621  16.029  0.2790  0.0161 -0.1166
15213TIP3    H167130   3.750   4.638  16.082 -0.1208  1.5630 -1.1367
15213TIP3    H267131   3.876   4.704  16.029  0.7123 -0.2064 -1.4211
15214TIP3   OH267132   4.129   3.493   3.398 -0.4483 -0.1806 -0.5225
15214TIP3    H167133   4.137   3.406   3.436 -0.6153 -0.2130 -0.5609
15214TIP3    H267134   4.042   3.494   3.358 -0.5164  0.0620 -0.3700
15215TIP3   OH267135   3.520   1.319   5.130 -0.3483  0.2949 -0.2472
15215TIP3    H167136   3.485   1.252   5.190 -0.6062 -1.1866 -1.9640
15215TIP3    H267137   3.568   1.269   5.064  1.2817  1.9905 -0.4171
15216TIP3   OH267138   1.289   1.124  12.539  0.0577  0.6641  0.4150
15216TIP3    H167139   1.268   1.184  12.467 -2.1674 -0.5976 -0.0665
15216TIP3    H267140   1.317   1.043  12.497  0.5999  0.5155  1.0294
15217TIP3   OH267141   3.601   3.748   2.014 -0.2599  0.4193  0.5938
15217TIP3    H167142   3.611   3.763   2.108 -3.1791 -1.9644  1.4330
15217TIP3    H267143   3.554   3.825   1.982  0.6797  1.2070  1.0505
15218TIP3   OH267144   6.531   5.215   1.783  0.2711 -0.1447  0.2062
15218TIP3    H167145   6.621   5.183   1.775  1.1576  1.7854  1.5823
15218TIP3    H267146   6.493   5.201   1.696  1.3763 -2.3749  0.0059
15219TIP3   OH267147   3.177   5.544  14.548 -0.2484  0.1062  0.1442
15219TIP3    H167148   3.188   5.497  14.631 -1.1623 -1.8573 -0.7936
15219TIP3    H267149   3.267   5.558  14.517  0.0758  0.1540  1.0530
15220TIP3   OH267150   3.046   0.952  15.853  0.4682 -0.6450 -0.4729
15220TIP3    H167151   3.079   1.033  15.891 -0.5115 -0.3116 -0.2938
15220TIP3    H267152   3.014   0.977  15.766 -0.2095 -0.7414 -0.2613
15221TIP3   OH267153   6.751   4.285   2.753  0.1528 -0.2540 -0.4556
15221TIP3    H167154   6.744   4.357   2.691 -3.3914  0.7623  0.8568
15221TIP3    H267155   6.745   4.326   2.839  0.3113 -1.9491  0.4102
15222TIP3   OH267156   2.179   2.846   3.751  0.5509 -0.4750 -0.5062
15222TIP3    H167157   2.187   2.751   3.752 -1.8629 -0.7377  0.5102
15222TIP3    H267158   2.172   2.870   3.843 -2.1383  0.2578 -0.8045
15223TIP3   OH267159   4.600   5.553   1.969 -0.0331 -0.0814 -0.0528
15223TIP3    H167160   4.513   5.512   1.970  0.8305 -2.0375 -0.1398
15223TIP3    H267161   4.591   5.630   2.025 -1.0669 -1.9800  2.6005
15224TIP3   OH267162   4.342   2.269  12.114  0.4567  0.1138  0.0398
15224TIP3    H167163   4.295   2.198  12.157 -2.2174  0.8185 -1.4889
15224TIP3    H267164   4.357   2.237  12.024 -0.4325  1.2997 -0.5520
15225TIP3   OH267165   0.926   3.390  12.669 -0.1387  0.4555 -0.1202
15225TIP3    H167166   0.921   3.435  12.585 -1.4224  0.6259  0.0249
15225TIP3    H267167   0.996   3.435  12.717 -1.4739  2.4473  0.0890
15226TIP3   OH267168   0.321   3.541  15.098  0.2066  1.1367  0.1720
15226TIP3    H167169   0.268   3.597  15.155  1.4526  0.3655  2.2086
15226TIP3    H267170   0.389   3.506  15.156  1.2922 -0.0597 -1.7277
15227TIP3   OH267171   6.455   0.775   3.496  0.0316 -0.0463  0.1366
15227TIP3    H167172   6.432   0.829   3.572 -0.1365  1.1286 -0.7260
15227TIP3    H267173   6.424   0.825   3.421  1.0929 -0.7245 -0.7729
15228TIP3   OH267174   5.836   3.106  14.654 -0.7143  0.0874  0.2839
15228TIP3    H167175   5.790   3.173  14.602  1.5846 -0.1058 -2.2548
15228TIP3    H267176   5.800   3.023  14.623 -1.6787  0.0255  1.4989
15229TIP3   OH267177   2.649   1.696   2.510 -0.3510 -0.2820 -0.3579
15229TIP3    H167178   2.572   1.644   2.532  0.9019 -1.8149  0.6148
15229TIP3    H267179   2.616   1.767   2.454 -2.5999 -0.2620  0.9111
15230TIP3   OH267180   3.267   4.074   5.519  0.0814 -0.0079 -0.3582
15230TIP3    H167181   3.287   4.052   5.428 -0.2167  2.6204 -1.1508
15230TIP3    H267182   3.334   4.139   5.543  0.6831 -1.2689  1.6444
15231TIP3   OH267183   3.218   5.287  14.673  0.0067 -0.2485  0.0887
15231TIP3    H167184   3.229   5.242  14.589 -4.4043  0.6972 -1.2874
15231TIP3    H267185   3.172   5.224  14.728  0.8397 -0.0687  1.0119
15232TIP3   OH267186   4.687   4.930   0.970 -0.1548 -0.0368 -0.5284
15232TIP3    H167187   4.639   4.999   1.016 -3.2337 -1.9821 -0.5104
15232TIP3    H267188   4.655   4.933   0.880  1.4472  0.0189 -1.1269
15233TIP3   OH267189   2.669   5.764  14.169  0.4443  0.8652 -0.0782
15233TIP3    H167190   2.690   5.697  14.234  2.1852  0.0573 -1.3881
15233TIP3    H267191   2.753   5.786  14.130 -0.7329 -0.5685 -3.8160
15234TIP3   OH267192   0.927   5.313   5.914 -0.0409  0.1346 -0.1391
15234TIP3    H167193   0.847   5.324   5.966  0.2765  0.7314  0.2397
15234TIP3    H267194   0.950   5.221   5.926 -0.2668  0.1354  0.3513
15235TIP3   OH267195   2.408   5.802   4.049  0.0941 -0.1414 -0.3459
15235TIP3    H167196   2.484   5.744   4.049  0.3410  0.1676 -1.2576
15235TIP3    H267197   2.353   5.770   3.978 -0.1659  0.2363 -0.3177
15236TIP3   OH267198   2.239   5.613  12.476 -0.1490  0.1741  0.0624
15236TIP3    H167199   2.185   5.544  12.437  0.4263  0.9461 -2.2795
15236TIP3    H267200   2.314   5.621  12.416  0.9890  1.2502  1.5471
15237TIP3   OH267201   1.325   3.580   3.741  0.1527  0.4434  0.1660
15237TIP3    H167202   1.275   3.500   3.759  0.5995  0.4034  1.2993
15237TIP3    H267203   1.303   3.640   3.812 -2.5043  2.5447 -2.2154
15238TIP3   OH267204   4.895   3.884  13.005 -0.3341  0.1395  0.6431
15238TIP3    H167205   4.801   3.880  12.991 -0.2476 -0.2984  0.1927
15238TIP3    H267206   4.932   3.895  12.917  0.0473  0.0687  0.7934
15239TIP3   OH267207   0.154   1.740   5.424 -0.1773  0.2267 -0.2316
15239TIP3    H167208   0.220   1.790   5.473 -0.4848  1.0962 -0.6812
15239TIP3    H267209   0.085   1.721   5.488 -0.2605  0.7633 -0.1587
15240TIP3   OH267210   2.804   1.260  11.303  0.6308  0.2657  0.1868
15240TIP3    H167211   2.794   1.345  11.259  0.0876 -0.3793 -1.0050
15240TIP3    H267212   2.824   1.199  11.231  0.4031 -0.7139  0.9347
15241TIP3   OH267213   4.252   6.474   2.654 -0.3049  0.2480  0.2797
15241TIP3    H167214   4.211   6.560   2.650 -0.6374  0.0660 -0.5339
15241TIP3    H267215   4.314   6.474   2.580  0.0677 -0.0235  0.5881
15242TIP3   OH267216   1.979   2.539  16.827  0.1427 -0.1494  0.4157
15242TIP3    H167217   2.025   2.538  16.911  3.0295 -1.1716 -1.0362
15242TIP3    H267218   2.015   2.614  16.781  2.2525 -2.2564 -1.6260
15243TIP3   OH267219   3.794   1.248   3.562 -0.4858  0.3325 -1.1902
15243TIP3    H167220   3.841   1.321   3.522 -0.0961  0.9476  0.3279
15243TIP3    H267221   3.741   1.212   3.491 -0.6808  2.0822 -1.9825
15244TIP3   OH267222   6.184   2.863  15.699 -0.2025 -0.2997 -0.0566
15244TIP3    H167223   6.155   2.801  15.766 -2.1484  0.4351 -0.1654
15244TIP3    H267224   6.267   2.897  15.732 -0.7417 -0.5193  1.6126
15245TIP3   OH267225   0.714   3.336   2.262  0.2223 -0.1611 -0.1344
15245TIP3    H167226   0.806   3.357   2.249 -0.0708  0.6292 -1.0174
15245TIP3    H267227   0.683   3.402   2.325  0.2604 -0.4401  0.1795
15246TIP3   OH267228   5.491   1.431   4.845  0.0365  0.1499  0.2855
15246TIP3    H167229   5.578   1.407   4.879  0.4970  0.2728 -0.7590
15246TIP3    H267230   5.489   1.526   4.849  0.2203  0.1833 -0.3082
15247TIP3   OH267231   2.655   4.878  15.051 -0.1428  0.2601 -0.3157
15247TIP3    H167232   2.569   4.901  15.016 -1.4540 -1.8631  1.2750
15247TIP3    H267233   2.668   4.938  15.125  1.1878  2.5794 -2.2806
15248TIP3   OH267234   3.692   0.470   6.160  0.1722  0.7515  0.5464
15248TIP3    H167235   3.630   0.543   6.165  1.3595  1.7236  2.7419
15248TIP3    H267236   3.748   0.481   6.238  2.8242 -0.3072 -1.0741
15249TIP3   OH267237   2.203   3.702   1.616 -0.0672  0.1100 -0.3206
15249TIP3    H167238   2.181   3.609   1.609  0.0101  0.1026 -0.4788
15249TIP3    H267239   2.206   3.719   1.710  0.2178 -0.1200 -0.2842
15250TIP3   OH267240   5.153   0.042  12.814 -0.3983  0.7380  0.5782
15250TIP3    H167241   5.195   0.038  12.900  1.5874 -2.3816 -0.3865
15250TIP3    H267242   5.223   0.072  12.755 -0.9942  0.3485 -0.3379
15251TIP3   OH267243   1.072   5.452  14.103  0.4639 -0.6032  0.4483
15251TIP3    H167244   1.092   5.367  14.064  0.4304 -0.3719 -0.0823
15251TIP3    H267245   0.976   5.451  14.113 -0.1022  0.9214 -3.3513
15252TIP3   OH267246   5.746   6.342   1.031  0.2111  0.3107  0.1105
15252TIP3    H167247   5.730   6.276   1.099  0.9683 -0.3447 -0.3188
15252TIP3    H267248   5.795   6.294   0.963 -1.7335  0.5548 -1.5624
15253TIP3   OH267249   3.779   0.499   2.037  0.7811  0.4904  0.0774
15253TIP3    H167250   3.805   0.459   2.120 -2.2938 -2.6120 -0.2448
15253TIP3    H267251   3.737   0.581   2.062  1.1135  0.2838  1.4267
15254TIP3   OH267252   3.216   4.865   2.279  0.1163  0.0808  0.2486
15254TIP3    H167253   3.186   4.805   2.210  1.3190 -2.1609  1.5257
15254TIP3    H267254   3.164   4.841   2.356  0.5435  0.7642  0.7615
15255TIP3   OH267255   1.008   5.693  16.631 -0.6338 -0.5023 -0.2173
15255TIP3    H167256   1.070   5.620  16.626  1.3265  1.0181  0.4683
15255TIP3    H267257   1.063   5.772  16.631 -2.6033  0.9656  0.0260
15256TIP3   OH267258   5.913   0.286  14.488  0.5291  0.1807  0.3145
15256TIP3    H167259   5.915   0.339  14.408  1.6484 -0.8382 -0.3565
15256TIP3    H267260   5.947   0.201  14.462 -0.0273 -0.4933  1.6683
15257TIP3   OH267261   6.611   3.634  14.568  0.5224 -0.0045 -0.2148
15257TIP3    H167262   6.582   3.576  14.497  0.5258  0.1431 -0.3375
15257TIP3    H267263   6.583   3.590  14.648  0.9071 -0.3839 -0.2886
15258TIP3   OH267264   1.038   1.420   4.365  0.7745 -0.2817 -0.5168
15258TIP3    H167265   1.055   1.371   4.284  0.6151 -2.9357  0.9752
15258TIP3    H267266   1.037   1.354   4.434 -1.6514  1.5437  1.3718
15259TIP3   OH267267   1.517   2.891  15.872  0.1346 -0.8807 -0.0164
15259TIP3    H167268   1.482   2.878  15.960 -0.3939 -0.3815 -0.1502
15259TIP3    H267269   1.441   2.888  15.814  0.3102  0.1318 -0.3162
15260TIP3   OH267270   3.402   1.587  11.943 -0.0596  0.1161  0.1400
15260TIP3    H167271   3.453   1.644  11.886  1.5187 -1.1341  0.2598
15260TIP3    H267272   3.330   1.557  11.888 -0.3072  1.3399 -0.2440
15261TIP3   OH267273   4.992   0.272  12.002  0.4704 -0.1566  0.4035
15261TIP3    H167274   5.054   0.202  12.021  0.8384 -0.2925 -1.1514
15261TIP3    H267275   4.943   0.240  11.927 -0.1414  0.7811  0.3904
15262TIP3   OH267276   1.539   6.747   4.383  0.0486  0.0708  0.2287
15262TIP3    H167277   1.550   6.747   4.478  1.8101 -0.1306  0.0626
15262TIP3    H267278   1.513   6.837   4.362  1.0521  0.5134  0.7868
15263TIP3   OH267279   3.802   0.696  12.571  0.7887 -0.0272 -0.1037
15263TIP3    H167280   3.738   0.675  12.640  2.6185 -1.2746  1.3198
15263TIP3    H267281   3.852   0.770  12.606  1.5052 -0.4462 -0.2166
15264TIP3   OH267282   0.416   6.433   0.243 -0.9742 -0.6021  0.3009
15264TIP3    H167283   0.501   6.466   0.215 -1.9281  2.4297  0.6495
15264TIP3    H267284   0.436   6.361   0.302  1.2798 -0.8467 -0.6866
15265TIP3   OH267285   4.199   5.454   0.973 -0.1218  0.7258 -0.1586
15265TIP3    H167286   4.264   5.386   0.954  0.2706  1.0025  0.1713
15265TIP3    H267287   4.224   5.527   0.917  1.2674  1.6847  1.6241
15266TIP3   OH267288   3.787   0.359  12.224  0.4259 -0.0281 -0.5262
15266TIP3    H167289   3.715   0.296  12.227  1.3514 -1.0989 -0.0766
15266TIP3    H267290   3.834   0.338  12.144  1.1386 -0.3728 -0.0227
15267TIP3   OH267291   2.668   3.358   2.755  0.1826  0.5723 -0.0216
15267TIP3    H167292   2.615   3.351   2.834  0.0481  1.0570 -0.0611
15267TIP3    H267293   2.724   3.281   2.756 -0.0169  0.4303  0.4009
15268TIP3   OH267294   4.954   1.652   0.003 -0.2821  0.5408 -0.3480
15268TIP3    H167295   4.956   1.721   0.069 -0.2347 -1.2707  1.6453
15268TIP3    H267296   4.897   1.584   0.040 -0.5701 -0.4033 -2.3507
15269TIP3   OH267297   2.054   2.659  11.916  0.9248  0.4770 -0.0993
15269TIP3    H167298   2.104   2.634  11.994  2.8395  0.8462 -1.1391
15269TIP3    H267299   2.008   2.579  11.891 -2.3447  1.1106  3.1362
15270TIP3   OH267300   1.856   2.292   6.662 -0.1273 -0.1335  0.2341
15270TIP3    H167301   1.846   2.298   6.757 -1.4713  1.1164  0.0378
15270TIP3    H267302   1.794   2.355   6.627  0.7299 -0.1803 -1.4773
15271TIP3   OH267303   1.420   2.298  12.736 -0.0767  0.2076  0.5706
15271TIP3    H167304   1.440   2.361  12.667  0.8632  0.9064  1.4423
15271TIP3    H267305   1.376   2.351  12.803  0.7111 -0.0528  1.3081
15272TIP3   OH267306   3.918   3.650  13.311  0.1649 -0.6016 -0.0875
15272TIP3    H167307   3.844   3.711  13.309  0.3544 -0.2477  1.9539
15272TIP3    H267308   3.961   3.662  13.226  0.4686  2.4775  0.3977
15273TIP3   OH267309   1.740   3.945  12.449 -0.1850 -0.0541  0.4788
15273TIP3    H167310   1.816   3.927  12.504  1.4096  1.6884 -1.0246
15273TIP3    H267311   1.707   4.029  12.481  0.2164  0.5304 -0.5988
15274TIP3   OH267312   5.242   3.331   0.113  0.1670 -0.2328 -0.0482
15274TIP3    H167313   5.321   3.287   0.080 -0.1708  0.2801 -1.6167
15274TIP3    H267314   5.174   3.308   0.050 -0.2936  1.5176 -0.2411
15275TIP3   OH267315   3.104   1.366   0.151  0.0772  0.2658  0.3542
15275TIP3    H167316   3.092   1.285   0.200 -1.4184  0.0287 -0.3453
15275TIP3    H267317   3.178   1.347   0.092 -1.2317 -1.1928 -0.9172
15276TIP3   OH267318   2.841   5.101  13.960 -0.2623  0.1051 -0.0418
15276TIP3    H167319   2.758   5.091  14.006 -0.7522  1.3938 -0.6004
15276TIP3    H267320   2.895   5.028  13.992 -1.9040 -1.3405 -0.3696
15277TIP3   OH267321   0.697   4.124   4.650  0.2293  0.0991 -0.5655
15277TIP3    H167322   0.753   4.076   4.712  1.2237  0.8584 -0.8452
15277TIP3    H267323   0.610   4.085   4.662  1.0423 -2.0206 -1.0324
15278TIP3   OH267324   6.023   4.645   0.890  0.0639 -0.0164  0.2162
15278TIP3    H167325   5.984   4.594   0.962 -1.2336  0.9991  0.2741
15278TIP3    H267326   6.077   4.711   0.933  1.3540 -0.9961  0.1546
15279TIP3   OH267327   5.698   2.881   6.111 -0.4463 -0.3387 -0.5060
15279TIP3    H167328   5.779   2.899   6.160 -0.0807 -0.9351 -0.8664
15279TIP3    H267329   5.642   2.956   6.129  0.3214  0.2554 -0.5201
15280TIP3   OH267330   1.170   4.430  15.359  0.4518 -0.3765 -0.4064
15280TIP3    H167331   1.123   4.472  15.287  1.2190 -0.3771 -0.9108
15280TIP3    H267332   1.208   4.503  15.409  1.5174 -0.4358 -1.1014
15281TIP3   OH267333   2.131   0.297   4.285  0.2536 -0.2030 -0.0274
15281TIP3    H167334   2.217   0.288   4.327  0.2618 -1.0018 -0.2052
15281TIP3    H267335   2.068   0.288   4.357  0.3196  2.4818  0.4714
15282TIP3   OH267336   5.624   0.852   3.873 -0.1813 -0.6226  0.2118
15282TIP3    H167337   5.646   0.866   3.965  1.2814 -1.7200  0.0690
15282TIP3    H267338   5.657   0.764   3.853 -0.6807 -0.5067 -1.2955
15283TIP3   OH267339   5.177   2.359   6.819 -0.3518 -0.2258 -0.7045
15283TIP3    H167340   5.087   2.344   6.848  0.3147 -2.0356  0.6174
15283TIP3    H267341   5.179   2.451   6.793 -2.4329 -0.0043 -0.2482
15284TIP3   OH267342   4.396   2.129   1.997  0.1917 -0.1254 -0.3881
15284TIP3    H167343   4.462   2.190   2.030  2.1431 -1.5111 -1.5483
15284TIP3    H267344   4.375   2.073   2.071 -0.3425  0.8262  0.2065
15285TIP3   OH267345   6.249   1.146   5.186  0.3765  0.1265  0.1340
15285TIP3    H167346   6.272   1.053   5.188 -0.6915 -0.1559 -0.0871
15285TIP3    H267347   6.312   1.188   5.244  0.8858 -0.7344  0.2164
15286TIP3   OH267348   5.154   0.251   4.046 -0.1316 -0.0652  0.4209
15286TIP3    H167349   5.205   0.201   3.983 -1.3322 -1.6129  0.6189
15286TIP3    H267350   5.139   0.191   4.119 -0.4842  1.0281  1.2873
15287TIP3   OH267351   0.296   2.902   3.450 -0.1944 -0.1817  0.1513
15287TIP3    H167352   0.225   2.964   3.432 -0.2343  0.2497  1.6706
15287TIP3    H267353   0.343   2.940   3.524  0.8130 -1.1398  0.0250
15288TIP3   OH267354   4.496   2.875  17.046 -0.1631  0.0421 -0.5583
15288TIP3    H167355   4.422   2.817  17.066  0.9003 -0.8877  0.8821
15288TIP3    H267356   4.464   2.963  17.066 -1.1816 -0.2385 -0.8868
15289TIP3   OH267357   0.921   6.094  12.814  0.5927 -0.0583  0.3268
15289TIP3    H167358   0.988   6.047  12.766  0.2956  1.2493 -1.4967
15289TIP3    H267359   0.962   6.177  12.838 -0.1666  0.5376 -0.3486
15290TIP3   OH267360   1.068   0.003   0.247  0.0627 -0.0424  0.5252
15290TIP3    H167361   1.088  -0.088   0.270  0.7994 -0.4441 -1.4542
15290TIP3    H267362   0.973   0.004   0.234  0.1090 -0.6545  0.0949
15291TIP3   OH267363   6.119   2.822   0.705  0.0849 -0.2173 -0.2202
15291TIP3    H167364   6.212   2.834   0.687  0.3202 -1.7837 -0.2297
15291TIP3    H267365   6.116   2.750   0.768 -1.1019  0.0055 -0.0079
15292TIP3   OH267366   6.679   0.329  15.241  0.2882  0.1031 -0.0852
15292TIP3    H167367   6.648   0.406  15.287  0.3664 -0.7473  1.4493
15292TIP3    H267368   6.748   0.361  15.183  0.0307  1.2306  0.2189
15293TIP3   OH267369   0.287   0.520  15.849  0.5614  0.2917 -0.0377
15293TIP3    H167370   0.237   0.458  15.902  1.0339 -1.1510 -1.2069
15293TIP3    H267371   0.374   0.521  15.889  0.7809 -0.4313 -0.4728
15294TIP3   OH267372   3.023   1.232   1.934 -0.2683  0.6225  0.1600
15294TIP3    H167373   2.997   1.322   1.916  0.4947  0.7261 -0.4714
15294TIP3    H267374   3.054   1.199   1.850  0.7418  0.2087  0.6781
15295TIP3   OH267375   1.763   6.175   3.481 -0.6857 -0.2041  0.5793
15295TIP3    H167376   1.811   6.138   3.406  0.0424  0.2953  0.7884
15295TIP3    H267377   1.771   6.270   3.470 -2.8847 -0.0427 -0.1770
15296TIP3   OH267378   6.331   0.203  11.592  0.0326  0.1435  0.9053
15296TIP3    H167379   6.306   0.292  11.616 -1.3768 -0.0761  0.3803
15296TIP3    H267380   6.258   0.149  11.623  0.7272 -0.7937  0.9582
15297TIP3   OH267381   4.469   2.987  12.954 -0.0045 -0.3089 -0.5390
15297TIP3    H167382   4.388   2.953  12.993  0.2871  0.0517  0.4038
15297TIP3    H267383   4.492   3.061  13.009  1.7170 -1.2310  0.0359
15298TIP3   OH267384   4.354   4.554   5.298 -0.2344 -0.1218 -0.4191
15298TIP3    H167385   4.384   4.492   5.364 -1.7858 -1.0640 -0.5617
15298TIP3    H267386   4.317   4.500   5.228  1.0276  0.8643 -1.9328
15299TIP3   OH267387   0.281   3.266   4.835  0.1133 -0.0072 -0.6931
15299TIP3    H167388   0.294   3.225   4.749  2.0411 -1.0275  0.0271
15299TIP3    H267389   0.194   3.234   4.863 -0.4344  0.1463 -2.1265
15300TIP3   OH267390   1.732   1.089  12.735  0.0361  0.1080  0.9583
15300TIP3    H167391   1.753   1.019  12.796 -0.8483  0.9163  2.2211
15300TIP3    H267392   1.756   1.169  12.780 -0.5472  0.7227  0.2160
15301TIP3   OH267393   1.569   6.092   5.597 -0.4624  0.2875  0.0347
15301TIP3    H167394   1.571   6.085   5.501  1.3977  1.1970 -0.0470
15301TIP3    H267395   1.539   6.182   5.614  1.5641  1.0022  0.1668
15302TIP3   OH267396   5.691   6.401   5.811 -0.0259 -0.0280 -0.3550
15302TIP3    H167397   5.617   6.398   5.750 -0.2361 -0.7426 -0.0776
15302TIP3    H267398   5.663   6.461   5.880 -0.2142 -0.0310 -0.4276
15303TIP3   OH267399   0.111   1.460  13.816 -0.6589 -0.3035  0.2873
15303TIP3    H167400   0.036   1.400  13.814 -0.6611 -0.2819 -1.2064
15303TIP3    H267401   0.184   1.407  13.784  0.1175 -0.4809  2.2307
15304TIP3   OH267402   5.902   4.046  11.252 -0.3213  0.0404  0.1460
15304TIP3    H167403   5.858   4.101  11.187  2.5165  2.7611  0.3148
15304TIP3    H267404   5.885   4.089  11.335  2.1977  0.9543  0.2554
15305TIP3   OH267405   5.326   4.533  15.040  0.2059  0.2426 -0.3358
15305TIP3    H167406   5.372   4.489  15.112  0.8028  1.2771 -0.0616
15305TIP3    H267407   5.373   4.504  14.962 -0.3761 -0.8002 -0.3249
15306TIP3   OH267408   0.832   5.534  15.802 -0.2241  0.3170 -0.5755
15306TIP3    H167409   0.916   5.575  15.783 -0.2127  0.7186  0.2688
15306TIP3    H267410   0.841   5.503  15.892 -0.5192 -0.8315 -0.9278
15307TIP3   OH267411   1.388   3.984   3.608  0.0066 -0.4620 -0.4413
15307TIP3    H167412   1.321   3.927   3.569 -0.6609  0.8185 -1.2397
15307TIP3    H267413   1.413   4.043   3.538  2.1880 -1.0449 -0.2142
15308TIP3   OH267414   6.700   6.651  14.795 -0.6299 -0.0669  0.1434
15308TIP3    H167415   6.630   6.601  14.753 -3.0257  1.0401  2.4505
15308TIP3    H267416   6.721   6.721  14.733  0.1486 -1.7317 -1.5523
15309TIP3   OH267417   2.338   0.901   2.577 -0.5358 -0.0844  0.3724
15309TIP3    H167418   2.366   0.976   2.526  0.1853 -0.5805  0.0311
15309TIP3    H267419   2.399   0.831   2.555  0.1786 -0.1572  2.3323
15310TIP3   OH267420   3.729   5.152   6.371 -0.3364  0.8505 -0.0092
15310TIP3    H167421   3.795   5.127   6.307 -2.3534  1.4039 -2.4738
15310TIP3    H267422   3.732   5.248   6.372 -0.8080  0.8647  0.1853
15311TIP3   OH267423   3.578   0.629  13.572  0.3692  0.2622 -0.1875
15311TIP3    H167424   3.551   0.539  13.590 -0.1709 -0.1862 -2.8062
15311TIP3    H267425   3.500   0.682  13.590  0.5814  0.2139  1.0026
15312TIP3   OH267426   4.269   2.833   4.672  0.1716 -0.3899  0.0399
15312TIP3    H167427   4.191   2.803   4.720  0.3468  0.5821  0.9785
15312TIP3    H267428   4.271   2.928   4.686  1.8690 -0.4657  0.6054
15313TIP3   OH267429   1.278   6.828  12.484  0.4819  0.4888 -0.9972
15313TIP3    H167430   1.322   6.897  12.435  1.2817  1.2150  0.6715
15313TIP3    H267431   1.340   6.755  12.486  0.3752  0.3900 -1.1958
15314TIP3   OH267432   5.371   2.577  16.800 -0.4277  0.2634  0.1625
15314TIP3    H167433   5.314   2.645  16.763  0.0914 -0.5403 -2.3110
15314TIP3    H267434   5.324   2.495  16.785 -0.5683 -0.0879  2.1690
15315TIP3   OH267435   0.673   1.034   2.928 -0.2736  0.1787  0.1566
15315TIP3    H167436   0.650   1.093   3.000  0.3898 -1.2944  1.6566
15315TIP3    H267437   0.768   1.043   2.919  0.0130 -1.3918  1.1620
15316TIP3   OH267438   0.061   2.845  15.162  0.1438  0.3460 -0.2539
15316TIP3    H167439   0.017   2.921  15.124 -1.6729 -0.8901 -0.7874
15316TIP3    H267440   0.048   2.855  15.257 -1.9211 -0.2767 -0.4202
15317TIP3   OH267441   1.006   5.150  14.164  0.5611 -0.1148 -0.0157
15317TIP3    H167442   0.911   5.147  14.156  0.6928 -1.7383 -1.3104
15317TIP3    H267443   1.021   5.152  14.259 -0.7537  1.9587  0.2245
15318TIP3   OH267444   1.388   4.658   4.413  0.4979  0.5897  0.2955
15318TIP3    H167445   1.435   4.726   4.365  0.2945  0.9052  0.5449
15318TIP3    H267446   1.330   4.705   4.472 -0.5490  0.2157 -0.4033
15319TIP3   OH267447   4.694   1.931  11.938  0.3673  0.6648  0.2471
15319TIP3    H167448   4.623   1.936  11.873 -0.9908 -0.7208  1.5457
15319TIP3    H267449   4.763   1.986  11.901 -0.5238  0.3342 -2.1400
15320TIP3   OH267450   3.933   5.031  13.118  0.1935 -0.0433 -0.5183
15320TIP3    H167451   3.850   5.044  13.072 -0.2262 -1.0084 -0.0658
15320TIP3    H267452   3.914   5.054  13.209  1.0269  1.8846 -0.7824
15321TIP3   OH267453   0.390   5.833   3.992  0.6868  0.8163  0.2021
15321TIP3    H167454   0.382   5.778   4.071  1.3474 -0.5761 -0.6625
15321TIP3    H267455   0.303   5.871   3.981  0.5172  0.8431  1.4711
15322TIP3   OH267456   0.475   2.303  13.562  0.4746  0.3804 -0.1529
15322TIP3    H167457   0.521   2.306  13.646  1.0156  1.0832 -0.4621
15322TIP3    H267458   0.543   2.277  13.499  0.1946  0.3827 -0.4570
15323TIP3   OH267459   5.895   1.882   3.571  0.1735  0.3853  0.1649
15323TIP3    H167460   5.980   1.886   3.527  0.7690  0.4930  1.2867
15323TIP3    H267461   5.897   1.798   3.618 -1.4386 -0.8925 -1.9235
15324TIP3   OH267462   6.546   2.787   3.870  0.2493  0.2125 -0.4963
15324TIP3    H167463   6.612   2.728   3.833  0.3849 -0.5091  0.8405
15324TIP3    H267464   6.462   2.749   3.844  0.3102 -1.1653  1.1442
15325TIP3   OH267465   0.061   5.659   0.700  0.1119 -0.1991  0.1479
15325TIP3    H167466   0.068   5.600   0.625 -0.0476  0.2565 -0.2319
15325TIP3    H267467  -0.001   5.726   0.671  0.2073  0.0896  0.6145
15326TIP3   OH267468   3.867   6.702  10.449  0.4843 -0.0011 -0.2000
15326TIP3    H167469   3.836   6.696  10.359 -1.3082 -0.7832  0.4185
15326TIP3    H267470   3.791   6.678  10.502  1.2960  1.0668  1.5543
15327TIP3   OH267471   0.229   4.427  11.531 -0.0697  0.7731 -0.0351
15327TIP3    H167472   0.211   4.418  11.438  1.0940 -0.6266 -0.1495
15327TIP3    H267473   0.156   4.480  11.564 -0.3428  1.5580 -1.7675
15328TIP3   OH267474   4.720   0.428  14.742 -0.4726 -0.2212  0.1305
15328TIP3    H167475   4.669   0.349  14.756  1.0516 -1.2039  0.4137
15328TIP3    H267476   4.658   0.492  14.707 -1.7743 -1.4766  0.0877
15329TIP3   OH267477   6.781   4.135   1.243  0.2090  0.7206  1.0718
15329TIP3    H167478   6.729   4.177   1.175  0.3249  0.2514  0.6911
15329TIP3    H267479   6.846   4.083   1.196 -0.4912 -0.5981  1.5350
15330TIP3   OH267480   1.859   4.078  10.927  1.0026  0.1700 -0.2841
15330TIP3    H167481   1.893   4.156  10.971 -0.6470  0.3739  0.7329
15330TIP3    H267482   1.910   4.006  10.965  1.4972  0.6051 -0.1040
15331TIP3   OH267483   1.852   6.114   1.291  0.5152  0.2845 -0.0896
15331TIP3    H167484   1.793   6.188   1.272 -0.4934 -0.3196  0.5941
15331TIP3    H267485   1.857   6.066   1.208  0.5146  0.6591 -0.3116
15332TIP3   OH267486   0.216   6.341   0.660  0.0223 -0.6210 -0.0171
15332TIP3    H167487   0.161   6.264   0.645 -0.5159 -0.7438  2.2047
15332TIP3    H267488   0.283   6.311   0.722  1.4525  0.0383 -1.1783
15333TIP3   OH267489   4.032   0.213   2.948 -0.0465  0.3876 -0.0666
15333TIP3    H167490   3.962   0.236   2.887  0.2990 -0.9720 -1.0042
15333TIP3    H267491   4.006   0.253   3.031 -2.2179 -0.5584 -0.2462
15334TIP3   OH267492   4.128   5.840   2.877  0.0068 -0.3319  0.6997
15334TIP3    H167493   4.140   5.820   2.970 -2.6201 -0.2763  1.1247
15334TIP3    H267494   4.192   5.909   2.859  0.8135 -0.5831  2.3554
15335TIP3   OH267495   1.948   1.534   5.395 -0.2167 -1.0197 -0.6404
15335TIP3    H167496   1.926   1.587   5.472 -0.5375 -1.4488 -0.4246
15335TIP3    H267497   1.867   1.532   5.344  0.6772  1.3268 -2.2793
15336TIP3   OH267498   3.176   6.243  14.907 -0.5205  0.1512  0.0703
15336TIP3    H167499   3.264   6.253  14.944 -0.1463 -1.4409 -0.2891
15336TIP3    H267500   3.130   6.323  14.930 -0.3080 -0.6478  3.9774
15337TIP3   OH267501   5.902   2.627  15.328 -0.2758 -0.0636  0.5716
15337TIP3    H167502   5.958   2.570  15.275  0.0106 -0.3519  1.1744
15337TIP3    H267503   5.930   2.611  15.418 -0.7399  0.4388  0.8101
15338TIP3   OH267504   2.166   2.566   3.756  0.4368 -0.5077 -0.5617
15338TIP3    H167505   2.193   2.562   3.848 -0.2186  2.8375 -0.0962
15338TIP3    H267506   2.086   2.514   3.752 -0.1159  0.1507  1.0477
15339TIP3   OH267507   3.857   6.355   0.790  0.4264 -0.2240 -0.2499
15339TIP3    H167508   3.816   6.282   0.836 -0.1939  0.5245  0.4145
15339TIP3    H267509   3.891   6.317   0.709  1.3448 -1.5289  0.7065
15340TIP3   OH267510   5.551   3.669  16.370 -0.2100  0.0661  0.0014
15340TIP3    H167511   5.470   3.719  16.383  0.1552  1.0242 -1.2462
15340TIP3    H267512   5.614   3.710  16.430 -0.7257 -0.9810  1.3259
15341TIP3   OH267513   2.121   1.854  14.245 -0.4646  0.1980  0.6096
15341TIP3    H167514   2.101   1.944  14.222  0.1057  0.1325 -0.1567
15341TIP3    H267515   2.144   1.812  14.163  0.2179 -0.4036  1.0927
15342TIP3   OH267516   0.837   3.021  14.266  0.0138  0.5987 -0.1853
15342TIP3    H167517   0.833   3.010  14.171  1.8478  1.1922 -0.3782
15342TIP3    H267518   0.931   3.031  14.285 -0.2228 -0.3762  1.7951
15343TIP3   OH267519   1.925   4.698   1.703  0.5450 -0.0383  0.8194
15343TIP3    H167520   1.876   4.618   1.724  1.7552 -0.6662  1.3775
15343TIP3    H267521   1.943   4.738   1.788  0.5570  0.4563  0.5865
15344TIP3   OH267522   0.070   2.934  11.877  0.0912  0.1143 -0.4932
15344TIP3    H167523   0.132   3.001  11.905 -0.7388  0.8237 -0.3271
15344TIP3    H267524   0.021   2.911  11.956 -1.4991  1.3249 -1.0754
15345TIP3   OH267525   6.374   5.018   2.392 -0.1402 -0.1485 -0.2443
15345TIP3    H167526   6.295   5.049   2.348 -0.4369 -2.5114 -1.5517
15345TIP3    H267527   6.373   5.062   2.477 -2.4487  0.4581 -0.5163
15346TIP3   OH267528   6.288   0.426  15.436  1.0402  0.1815 -0.1326
15346TIP3    H167529   6.260   0.478  15.361  0.9878 -0.5926 -0.6617
15346TIP3    H267530   6.258   0.476  15.512  0.9680  0.9027 -0.6256
15347TIP3   OH267531   2.416   5.430   1.915  0.2615 -0.4427 -0.0781
15347TIP3    H167532   2.349   5.487   1.954  0.5068 -1.3620  1.8340
15347TIP3    H267533   2.373   5.391   1.839  0.2231  2.5261 -1.6967
15348TIP3   OH267534   4.625   4.000  14.748  0.1789 -0.6223  0.0264
15348TIP3    H167535   4.706   3.972  14.791 -0.2839 -1.9381  0.0711
15348TIP3    H267536   4.643   4.090  14.720  1.0592 -0.2985  1.5310
15349TIP3   OH267537   0.499   1.741  13.486 -0.5675  0.0273 -0.0129
15349TIP3    H167538   0.551   1.797  13.429  0.8845 -1.6825 -0.4544
15349TIP3    H267539   0.441   1.693  13.426  0.2718 -1.0544  0.0035
15350TIP3   OH267540   4.947   3.187  16.463 -0.0029  0.1624  0.3804
15350TIP3    H167541   4.901   3.105  16.480  0.7688 -0.0856  1.3055
15350TIP3    H267542   4.992   3.173  16.379  0.2645 -0.4209  0.6182
15351TIP3   OH267543   4.733   6.074   6.305  0.3292  0.1862  0.1330
15351TIP3    H167544   4.675   6.101   6.234 -1.7189  0.0363  1.6722
15351TIP3    H267545   4.674   6.052   6.378  2.1770 -2.2582  1.0363
15352TIP3   OH267546   2.630   4.558   4.658 -0.1319  0.2045 -0.2126
15352TIP3    H167547   2.691   4.510   4.602 -0.7532 -0.0561 -0.6742
15352TIP3    H267548   2.581   4.614   4.598 -0.4437  0.3103  0.1376
15353TIP3   OH267549   4.927   0.905  16.699 -0.1029 -0.4757 -0.1704
15353TIP3    H167550   4.866   0.884  16.628  0.6221 -0.9762 -0.6558
15353TIP3    H267551   5.001   0.846  16.686  0.8713  0.6729 -0.0741
15354TIP3   OH267552   3.822   5.475   6.622 -0.0771  0.0702 -0.3460
15354TIP3    H167553   3.880   5.474   6.698  1.4247  0.1468 -1.4617
15354TIP3    H267554   3.867   5.422   6.556 -1.3091  0.0702 -1.2239
15355TIP3   OH267555   2.599   5.453  11.579  0.2602 -0.0298  0.5433
15355TIP3    H167556   2.583   5.440  11.673 -1.0007 -0.1450  0.3259
15355TIP3    H267557   2.665   5.522  11.575 -0.3211  0.5991  1.5027
15356TIP3   OH267558   2.717   4.644  12.829  0.2331 -0.0099  0.5303
15356TIP3    H167559   2.781   4.657  12.899 -0.6924 -1.3661  1.7094
15356TIP3    H267560   2.637   4.619  12.875 -1.2910  1.9820 -0.8534
15357TIP3   OH267561   5.073   2.481   3.903 -0.6221 -0.3771 -0.2311
15357TIP3    H167562   5.099   2.406   3.956  0.4292 -0.4091 -0.7638
15357TIP3    H267563   5.055   2.550   3.967  0.9929 -0.3005  0.1881
15358TIP3   OH267564   1.893   3.506  14.964 -0.2040 -0.8036  0.5482
15358TIP3    H167565   1.904   3.583  15.019  3.0131 -0.5159 -0.3212
15358TIP3    H267566   1.886   3.541  14.875  0.8278 -1.4473  0.1917
15359TIP3   OH267567   5.811   6.452   6.484  0.5689  0.2089 -0.3187
15359TIP3    H167568   5.763   6.534   6.498 -2.1239 -1.2790 -0.0161
15359TIP3    H267569   5.798   6.404   6.565  1.3388 -0.8840 -0.8294
15360TIP3   OH267570   6.328   0.362   0.732  0.1196 -0.3894  0.0330
15360TIP3    H167571   6.296   0.452   0.732  0.3248 -0.2949  1.4409
15360TIP3    H267572   6.361   0.348   0.821  0.5452 -1.6970 -0.3050
15361TIP3   OH267573   2.415   0.565   3.161  0.2326  0.0247 -0.3894
15361TIP3    H167574   2.360   0.509   3.106 -0.1312 -0.9298  0.8783
15361TIP3    H267575   2.353   0.620   3.208  0.4928  0.3284 -0.4009
15362TIP3   OH267576   4.318   3.334   5.898 -0.7372  0.1435 -0.1937
15362TIP3    H167577   4.308   3.278   5.821 -0.6152 -1.8107  1.1319
15362TIP3    H267578   4.267   3.291   5.966 -2.0154  2.5785  0.5016
15363TIP3   OH267579   6.769   5.193  16.505  0.0980 -0.1658  0.5345
15363TIP3    H167580   6.692   5.248  16.515 -0.7603 -1.4247  1.2365
15363TIP3    H267581   6.770   5.139  16.584  0.1416 -2.0412 -0.6858
15364TIP3   OH267582   4.197   4.507   2.905  0.2853  0.0600  0.4051
15364TIP3    H167583   4.111   4.503   2.863  0.2543  3.7604 -0.2302
15364TIP3    H267584   4.259   4.503   2.832  0.6454 -1.0762  0.7432
15365TIP3   OH267585   3.345   4.158   1.034  0.1887  0.1703 -0.0824
15365TIP3    H167586   3.349   4.116   1.119  0.1571 -0.1264 -0.2274
15365TIP3    H267587   3.317   4.248   1.053  1.6896  0.5749  0.3712
15366TIP3   OH267588   5.216   3.820  11.051  0.0483 -0.1183 -0.2825
15366TIP3    H167589   5.183   3.878  11.120 -0.1099 -0.0048 -0.4501
15366TIP3    H267590   5.265   3.877  10.993  0.8195 -0.3455  0.1397
15367TIP3   OH267591   5.727   2.454   4.344 -0.3013 -0.4114 -0.5149
15367TIP3    H167592   5.681   2.374   4.320 -0.1274 -0.3750 -0.9854
15367TIP3    H267593   5.753   2.493   4.260  1.2240 -0.7968 -0.2555
15368TIP3   OH267594   3.032   1.256  14.640 -0.6239  0.0800  0.5443
15368TIP3    H167595   2.966   1.296  14.584 -2.3408 -1.0530  1.6425
15368TIP3    H267596   3.079   1.330  14.679 -1.6090  0.9444  0.1445
15369TIP3   OH267597   6.425   4.906  13.751 -0.0398  0.0102 -0.1637
15369TIP3    H167598   6.467   4.856  13.680  0.1423 -1.5533  0.9813
15369TIP3    H267599   6.426   4.996  13.720  1.8191 -0.3359 -1.3261
15370TIP3   OH267600   0.723   3.770  12.564  0.0111  0.5264  0.0828
15370TIP3    H167601   0.799   3.749  12.618 -2.0901  0.9915  3.5279
15370TIP3    H267602   0.704   3.690  12.516  2.4012  0.3171 -0.6446
15371TIP3   OH267603   2.859   2.076   4.863 -0.0624 -0.4557  0.0331
15371TIP3    H167604   2.763   2.079   4.862 -0.0725 -0.7371 -0.6333
15371TIP3    H267605   2.882   2.025   4.786  0.5707 -2.0036  1.1934
15372TIP3   OH267606   1.722   0.369   4.310 -0.0576 -0.0129 -0.0930
15372TIP3    H167607   1.727   0.290   4.364 -5.0271 -0.2888  0.3845
15372TIP3    H267608   1.710   0.440   4.373 -0.7365  0.3782 -0.6523
15373TIP3   OH267609   1.614   1.136  16.525 -0.0804  0.0505  0.2345
15373TIP3    H167610   1.560   1.203  16.567 -1.4789 -1.2832  0.6711
15373TIP3    H267611   1.654   1.088  16.598  0.4770  0.0625 -0.0589
15374TIP3   OH267612   3.112   4.351  14.352  0.4310  0.0503  0.2034
15374TIP3    H167613   3.180   4.376  14.289  0.8442 -0.0695  0.5974
15374TIP3    H267614   3.149   4.373  14.438  0.0976 -0.2993  0.4424
15375TIP3   OH267615   2.683   6.044  16.810 -0.7579 -0.2557  0.3469
15375TIP3    H167616   2.755   6.016  16.867  0.2605  0.9201 -0.3150
15375TIP3    H267617   2.692   5.989  16.732 -0.5763 -0.1094  0.2644
15376TIP3   OH267618   5.892   4.618   2.119  0.4964  0.5256 -0.1385
15376TIP3    H167619   5.808   4.587   2.153  0.5805  0.1860 -0.2391
15376TIP3    H267620   5.887   4.603   2.025  0.4883  0.9377 -0.2070
15377TIP3   OH267621   1.804   0.284  12.042 -0.2331  0.4767 -0.0068
15377TIP3    H167622   1.810   0.191  12.065 -1.4889  0.2584 -0.5082
15377TIP3    H267623   1.871   0.296  11.975  0.8222  0.2432  0.9746
15378TIP3   OH267624   5.825   0.567   1.489  0.8112  0.1218 -0.2004
15378TIP3    H167625   5.875   0.552   1.569 -0.3729 -0.8875  0.3926
15378TIP3    H267626   5.848   0.494   1.432  0.6683  0.1146 -0.2503
15379TIP3   OH267627   0.682   0.630  13.288  0.0672 -0.1172  0.5892
15379TIP3    H167628   0.616   0.692  13.257  1.5155  0.8211 -0.7655
15379TIP3    H267629   0.669   0.627  13.383 -0.8016  1.3983  0.5555
15380TIP3   OH267630   1.948   4.590  14.972  0.2116 -0.3070 -0.2069
15380TIP3    H167631   1.949   4.522  15.040  1.6262  0.1921  0.3080
15380TIP3    H267632   1.860   4.584  14.934 -0.7343 -0.4328  1.8294
15381TIP3   OH267633   1.175   0.788   2.855 -0.5125  0.0816 -0.3692
15381TIP3    H167634   1.239   0.719   2.840 -1.2435 -0.9928  1.1241
15381TIP3    H267635   1.227   0.868   2.864  0.6548 -0.7726  0.8853
15382TIP3   OH267636   5.877   3.750   2.915 -0.2062 -0.5944 -0.4361
15382TIP3    H167637   5.840   3.781   2.833 -1.3008 -1.7311 -0.4018
15382TIP3    H267638   5.920   3.827   2.953 -2.2242  0.7205 -0.6654
15383TIP3   OH267639   5.481   6.155  13.617  0.6839  0.1867  0.2216
15383TIP3    H167640   5.472   6.060  13.607  0.0534  0.5230 -3.8880
15383TIP3    H267641   5.572   6.168  13.642  0.6936 -1.4768  1.2022
15384TIP3   OH267642   5.126   1.177   1.707 -0.0359 -0.4337  0.7918
15384TIP3    H167643   5.116   1.163   1.801  0.5336  0.9988  1.0897
15384TIP3    H267644   5.165   1.264   1.700 -0.4181 -0.3687 -0.7893
15385TIP3   OH267645   3.397   2.389  10.467  0.8063  0.1645 -0.5753
15385TIP3    H167646   3.392   2.302  10.507  2.0626  0.2241 -0.2530
15385TIP3    H267647   3.428   2.373  10.378  0.5441  0.2448 -0.6819
15386TIP3   OH267648   4.366   3.693   4.088  0.1233 -0.3344 -0.7546
15386TIP3    H167649   4.280   3.736   4.083  0.9539  1.3284 -1.7162
15386TIP3    H267650   4.417   3.750   4.145  0.9478 -0.6566 -1.1626
15387TIP3   OH267651   2.520   2.047   6.734  0.6016  0.2771 -0.1286
15387TIP3    H167652   2.525   2.085   6.647  0.7774 -1.4685 -0.9244
15387TIP3    H267653   2.597   2.081   6.780  1.1656  0.2702 -1.0527
15388TIP3   OH267654   6.481   2.114  11.253 -0.2724  0.0039  0.3359
15388TIP3    H167655   6.415   2.181  11.233 -2.8782 -1.9717  1.7032
15388TIP3    H267656   6.509   2.133  11.343  1.1198  0.8499 -0.2478
15389TIP3   OH267657   2.419   2.830   1.777 -0.7888 -0.6533  0.4419
15389TIP3    H167658   2.342   2.812   1.725 -0.6851  0.5977 -0.1953
15389TIP3    H267659   2.385   2.846   1.866 -1.2697 -0.1469  0.1736
15390TIP3   OH267660   3.975   3.029   2.706  0.3325  0.2264  0.1933
15390TIP3    H167661   3.881   3.035   2.723  0.1830 -1.5653  0.1307
15390TIP3    H267662   4.012   2.993   2.786  1.0986  1.6405  0.5028
15391TIP3   OH267663   5.728   3.618  16.697 -0.0216 -0.1613 -0.0122
15391TIP3    H167664   5.635   3.597  16.701 -0.3101  0.8960 -0.6855
15391TIP3    H267665   5.740   3.659  16.611  1.1183 -0.5025 -0.0373
15392TIP3   OH267666   1.821   0.080  12.798 -0.2166  0.4454 -0.3778
15392TIP3    H167667   1.892   0.036  12.844 -1.8947 -1.6644  0.3667
15392TIP3    H267668   1.852   0.089  12.708  1.7153  1.3666  0.3367
15393TIP3   OH267669   5.735   5.070   5.384 -0.0388  0.6583  0.0717
15393TIP3    H167670   5.802   5.002   5.390 -1.8784 -1.1579  0.9710
15393TIP3    H267671   5.685   5.048   5.305  2.2534  3.9142 -2.6277
15394TIP3   OH267672   6.097   1.783  14.464  0.5992 -0.2168  0.1457
15394TIP3    H167673   6.092   1.854  14.401  1.2869 -1.1027 -0.9313
15394TIP3    H267674   6.068   1.823  14.547  1.9981  1.6080 -0.1720
15395TIP3   OH267675   4.946   3.582   4.688  0.3321  0.1732 -0.4234
15395TIP3    H167676   4.854   3.554   4.693  1.1149 -2.4698  0.7690
15395TIP3    H267677   4.971   3.567   4.597  0.7178 -3.4609  0.1388
15396TIP3   OH267678   1.789   0.983   2.877  0.4735 -0.0996  0.2244
15396TIP3    H167679   1.804   0.980   2.783  1.0688 -0.7530  0.3302
15396TIP3    H267680   1.803   0.893   2.906 -1.7494 -0.3726  0.6385
15397TIP3   OH267681   6.743   3.703   2.533 -0.3809  0.6463 -0.2299
15397TIP3    H167682   6.831   3.666   2.532 -0.5605  0.1363 -2.5727
15397TIP3    H267683   6.691   3.641   2.584  0.4916  0.7018  0.7616
15398TIP3   OH267684   3.730   5.366  13.343  1.1278 -0.1592 -0.1485
15398TIP3    H167685   3.689   5.312  13.411 -0.8938  2.3043  0.7447
15398TIP3    H267686   3.780   5.432  13.390  2.5782 -0.4721 -1.1807
15399TIP3   OH267687   3.823   0.250   2.798  0.3504  0.3806 -0.1913
15399TIP3    H167688   3.771   0.322   2.834 -0.4171 -0.1995 -0.1201
15399TIP3    H267689   3.759   0.190   2.760  0.7154 -1.7026  2.2529
15400TIP3   OH267690   6.315   3.415  14.552 -0.5322 -0.0863  0.3658
15400TIP3    H167691   6.260   3.461  14.615 -0.7252 -1.7615  1.4898
15400TIP3    H267692   6.305   3.464  14.471 -1.3906  1.3142  1.2748
15401TIP3   OH267693   3.403   1.303  11.987  0.0459 -0.5701 -0.8161
15401TIP3    H167694   3.449   1.386  11.996 -0.3138 -0.4080 -0.4525
15401TIP3    H267695   3.471   1.240  11.965  0.7037 -0.6549  1.3262
15402TIP3   OH267696   6.552   0.869  11.718 -0.1774  0.0443 -0.4000
15402TIP3    H167697   6.610   0.916  11.658 -0.0139  0.5431  0.1335
15402TIP3    H267698   6.478   0.842  11.664 -0.2815  0.9399 -0.7303
15403TIP3   OH267699   2.928   6.593  14.707 -0.1372 -0.3249  0.0556
15403TIP3    H167700   2.854   6.591  14.647 -0.6787 -1.1334  0.7326
15403TIP3    H267701   2.929   6.682  14.741  0.0334  0.0781 -0.9589
15404TIP3   OH267702   4.547   4.138   1.807 -0.2666 -0.0026 -0.4440
15404TIP3    H167703   4.620   4.102   1.756  0.1142  1.4263 -0.9661
15404TIP3    H267704   4.525   4.069   1.869  0.5272 -1.0543 -1.2806
15405TIP3   OH267705   2.731   3.292   4.425  0.0601 -0.0027 -0.0935
15405TIP3    H167706   2.731   3.207   4.381 -0.4181 -0.1435  0.1681
15405TIP3    H267707   2.791   3.281   4.498  2.8216  0.9672 -2.0399
15406TIP3   OH267708   3.723   0.301  12.811 -0.1841 -0.3145  0.1898
15406TIP3    H167709   3.649   0.317  12.870  0.0131 -0.8824  0.6024
15406TIP3    H267710   3.800   0.308  12.867  0.0080 -0.8529  0.0038
15407TIP3   OH267711   3.179   4.300  12.266 -0.4048 -0.1258 -0.0869
15407TIP3    H167712   3.165   4.229  12.205 -1.0397  0.4802 -0.6657
15407TIP3    H267713   3.197   4.257  12.350 -0.0407 -0.9559 -0.5813
15408TIP3   OH267714   4.481   4.876   3.229 -0.3881 -0.3136 -0.4715
15408TIP3    H167715   4.575   4.860   3.220 -0.3958 -0.9443  0.4140
15408TIP3    H267716   4.446   4.863   3.141  0.5106  1.1944 -1.0946
15409TIP3   OH267717   3.125   0.966   1.743 -0.2032 -0.2305  0.4052
15409TIP3    H167718   3.214   0.963   1.710 -0.3668 -0.0365 -0.0690
15409TIP3    H267719   3.120   0.893   1.805  0.2292 -0.3551  0.2983
15410TIP3   OH267720   1.467   2.893  17.109 -0.0000 -0.3709  0.4397
15410TIP3    H167721   1.517   2.816  17.135  0.7287 -0.1220 -0.2000
15410TIP3    H267722   1.494   2.961  17.170  0.2361 -0.3075  0.2642
15411TIP3   OH267723   5.279   4.550   3.814 -0.3685 -0.1543  0.5159
15411TIP3    H167724   5.302   4.643   3.808  3.0515 -0.9707 -1.2450
15411TIP3    H267725   5.332   4.518   3.887 -0.7654 -0.9677  0.4510
15412TIP3   OH267726   6.338   6.483   1.064 -0.2349 -0.5929 -0.5064
15412TIP3    H167727   6.386   6.448   1.139  1.7631  1.7244 -0.5382
15412TIP3    H267728   6.393   6.461   0.988  1.5792  2.9421 -0.4470
15413TIP3   OH267729   4.663   6.548   4.372  0.7363 -0.1265  0.0481
15413TIP3    H167730   4.614   6.482   4.422  0.3734  0.5661  0.6348
15413TIP3    H267731   4.754   6.534   4.398  0.8008 -1.0580 -0.6211
15414TIP3   OH267732   6.722   6.266   3.067 -0.1424 -0.0273  0.0392
15414TIP3    H167733   6.648   6.276   3.127 -1.0549 -1.8552 -0.6951
15414TIP3    H267734   6.793   6.232   3.121  0.1608  1.5518  0.7094
15415TIP3   OH267735   4.768   5.863  14.423 -0.0546  0.0754  0.1095
15415TIP3    H167736   4.777   5.952  14.457 -0.6899 -0.3438  1.4766
15415TIP3    H267737   4.855   5.841  14.390  0.2587  0.9940  0.2830
15416TIP3   OH267738   1.636   6.506   1.185  0.0545 -0.0595  0.0313
15416TIP3    H167739   1.645   6.412   1.167  1.7874  0.5908 -3.2859
15416TIP3    H267740   1.543   6.524   1.169 -0.8923 -1.5126  3.1717
15417TIP3   OH267741   2.742   2.331   0.756 -0.2888 -0.8157  0.4366
15417TIP3    H167742   2.735   2.275   0.679  1.3305  0.7792 -0.9753
15417TIP3    H267743   2.771   2.272   0.826  0.5457 -1.9151 -0.7771
15418TIP3   OH267744   6.491   5.595   2.808  0.2481 -0.3288  0.1087
15418TIP3    H167745   6.539   5.675   2.827 -0.3863  0.2446 -0.6488
15418TIP3    H267746   6.501   5.542   2.888 -0.3462  1.0128  1.1198
15419TIP3   OH267747   0.045   3.270  14.359 -0.1799  0.0995  0.7428
15419TIP3    H167748   0.116   3.257  14.422 -0.1781 -0.3920  0.6430
15419TIP3    H267749  -0.014   3.197  14.375 -1.2790  1.1496  1.6433
15420TIP3   OH267750   6.715   3.849  15.190  0.2257 -0.0462  0.4181
15420TIP3    H167751   6.663   3.811  15.120 -0.1090 -0.4042  0.8497
15420TIP3    H267752   6.708   3.943  15.178  0.0120 -0.1050  0.0867
15421TIP3   OH267753   6.127   6.818  11.580  0.1224  0.1437 -0.4162
15421TIP3    H167754   6.064   6.747  11.590  0.1952  0.0402 -0.6776
15421TIP3    H267755   6.209   6.774  11.555  0.2345  0.2972 -0.3205
15422TIP3   OH267756   5.525   5.651   6.124  0.0948  0.2944  0.3801
15422TIP3    H167757   5.594   5.587   6.106 -0.0679  0.4725 -1.0003
15422TIP3    H267758   5.473   5.653   6.044 -1.8055 -0.1492  1.5550
15423TIP3   OH267759   2.035   1.704  13.720 -0.1562  0.2680 -0.0988
15423TIP3    H167760   2.041   1.800  13.725  0.2968  0.1999  0.9895
15423TIP3    H267761   2.092   1.681  13.648 -2.7420  1.0048 -2.5790
15424TIP3   OH267762   6.205   1.288  15.312 -0.4987  0.1852 -0.0580
15424TIP3    H167763   6.140   1.346  15.351 -1.0434  0.0913 -0.8013
15424TIP3    H267764   6.283   1.341  15.303  0.1657 -0.2141  2.6022
15425TIP3   OH267765   0.445   2.682   3.352 -0.1711  0.2766  0.0789
15425TIP3    H167766   0.405   2.769   3.354 -1.7513 -0.3649 -1.4282
15425TIP3    H267767   0.496   2.680   3.272 -0.6957 -0.4028 -0.2482
15426TIP3   OH267768   4.740   2.067   0.699 -0.4896  0.4827 -0.5365
15426TIP3    H167769   4.756   2.153   0.739 -1.3983  0.9351 -1.0910
15426TIP3    H267770   4.741   2.006   0.772 -0.6229  1.0810 -0.0197
15427TIP3   OH267771   3.912   0.580   3.827 -0.2393 -0.5623  0.1119
15427TIP3    H167772   3.902   0.519   3.754 -1.3704  1.2663 -1.3534
15427TIP3    H267773   3.910   0.667   3.787  1.0898  0.5030  2.1269
15428TIP3   OH267774   2.870   6.041  11.187  0.3437 -0.1000 -0.3464
15428TIP3    H167775   2.817   5.998  11.254  2.3833 -0.7331  0.9531
15428TIP3    H267776   2.813   6.109  11.152 -1.2871 -0.6801  1.0245
15429TIP3   OH267777   5.241   5.147   5.228 -0.5874 -0.4369  0.2300
15429TIP3    H167778   5.280   5.225   5.187  1.3957 -1.8841 -0.8101
15429TIP3    H267779   5.303   5.123   5.297 -1.1655 -1.1320  0.5163
15430TIP3   OH267780   5.020   4.057   4.540  0.4689  0.1116  0.0202
15430TIP3    H167781   5.111   4.078   4.518  0.7288 -0.5238  0.4649
15430TIP3    H267782   5.018   3.962   4.548 -0.7394 -0.1083 -2.1893
15431TIP3   OH267783   1.613   0.914   6.151 -0.0355 -0.4062  0.1710
15431TIP3    H167784   1.524   0.877   6.151 -0.1358 -0.1658  0.2046
15431TIP3    H267785   1.653   0.879   6.071  0.1257 -1.1921  0.5811
15432TIP3   OH267786   1.299   1.544  11.999  0.0554 -0.1197  0.5513
15432TIP3    H167787   1.334   1.536  11.910 -0.4887  0.3713  0.2848
15432TIP3    H267788   1.326   1.631  12.028 -0.5864  0.1084  0.4914
15433TIP3   OH267789   1.802   4.872   2.784 -0.3728 -0.0792  0.2430
15433TIP3    H167790   1.768   4.817   2.856 -0.8662  0.5214  0.4790
15433TIP3    H267791   1.860   4.814   2.735  0.5051 -0.3223  1.5225
15434TIP3   OH267792   4.088   4.765   0.784 -0.2367 -0.5157 -0.3621
15434TIP3    H167793   4.158   4.745   0.846  0.1692  0.2618 -0.5543
15434TIP3    H267794   4.103   4.704   0.711 -0.2734 -0.9269 -0.0294
15435TIP3   OH267795   3.365   3.524  16.149 -0.9336 -0.0364  0.7166
15435TIP3    H167796   3.411   3.581  16.088 -0.5969 -0.9403  0.1052
15435TIP3    H267797   3.419   3.526  16.228 -1.6199  1.5091  1.1822
15436TIP3   OH267798   5.810   2.197   3.420 -0.3720  0.2529  0.3329
15436TIP3    H167799   5.831   2.129   3.484  2.2560 -0.3650 -1.0629
15436TIP3    H267800   5.832   2.279   3.464  2.1717 -0.2041  0.0712
15437TIP3   OH267801   6.370   4.007  11.574  0.1269 -1.0060 -0.0653
15437TIP3    H167802   6.315   4.085  11.574  0.0197 -1.0821 -0.4545
15437TIP3    H267803   6.406   4.001  11.486  0.9121 -0.8556  0.2298
15438TIP3   OH267804   6.691   4.569  14.711  0.1592 -0.0058  0.2240
15438TIP3    H167805   6.720   4.613  14.632 -2.1556  0.5382 -0.4098
15438TIP3    H267806   6.642   4.492  14.680  0.4895 -0.6247  1.1800
15439TIP3   OH267807   3.603   0.948   0.724  0.6604 -0.0731 -0.0204
15439TIP3    H167808   3.608   0.927   0.817  0.5296 -0.7784 -0.1591
15439TIP3    H267809   3.642   0.871   0.681 -1.0616 -0.6524 -0.6220
15440TIP3   OH267810   3.747   3.678  14.725  0.2286  0.3207  0.3736
15440TIP3    H167811   3.716   3.594  14.758 -2.3916  1.4914  1.1412
15440TIP3    H267812   3.706   3.687  14.639  1.7486  0.1792 -0.4021
15441TIP3   OH267813   6.220   1.225  15.739 -0.6616 -0.1778 -0.2522
15441TIP3    H167814   6.242   1.165  15.810  2.5563  0.6574 -0.3832
15441TIP3    H267815   6.150   1.279  15.775  0.5775 -0.0509  2.2206
15442TIP3   OH267816   1.570   6.131  15.246 -0.8167 -0.0685 -0.3718
15442TIP3    H167817   1.607   6.083  15.319 -0.8857 -0.1442 -0.3864
15442TIP3    H267818   1.544   6.215  15.283 -0.4859  0.0454 -0.3964
15443TIP3   OH267819   4.039   6.272  16.607 -0.1621  0.4697 -0.3238
15443TIP3    H167820   4.050   6.336  16.678  1.0895  0.8563 -0.8440
15443TIP3    H267821   4.076   6.315  16.530 -0.7258 -0.2827 -1.0219
15444TIP3   OH267822   3.277   3.238  13.429  0.4220  0.0568 -0.6052
15444TIP3    H167823   3.226   3.173  13.478 -1.8744  2.4928  0.4865
15444TIP3    H267824   3.328   3.186  13.367 -0.6056 -2.8253  0.7505
15445TIP3   OH267825   0.858   6.446   6.039 -0.0717 -0.4440 -0.6630
15445TIP3    H167826   0.769   6.475   6.022 -0.5961 -1.3004  0.4777
15445TIP3    H267827   0.849   6.378   6.107  1.5831  0.6241  0.7124
15446TIP3   OH267828   3.671   2.432  13.156  0.9082  0.2528 -0.2529
15446TIP3    H167829   3.637   2.350  13.122 -2.1519  0.7852  1.1698
15446TIP3    H267830   3.753   2.446  13.109  1.7807 -3.7748 -0.2111
15447TIP3   OH267831   4.522   0.758   6.308  0.3886  0.3573  0.1118
15447TIP3    H167832   4.571   0.824   6.259  1.4621 -0.4345  0.0738
15447TIP3    H267833   4.522   0.681   6.251 -1.9809  0.6772 -0.4235
15448TIP3   OH267834   1.654   0.520  11.726  0.1423  0.1089 -0.3377
15448TIP3    H167835   1.667   0.605  11.769  0.6171  0.8348 -1.8643
15448TIP3    H267836   1.625   0.462  11.797  1.0768  1.1992  0.9932
15449TIP3   OH267837   6.366   2.795  11.009 -0.2951 -0.0887 -0.4358
15449TIP3    H167838   6.397   2.708  11.031  3.7600  1.6209  1.6374
15449TIP3    H267839   6.424   2.825  10.939  1.5111  2.4246  1.9329
15450TIP3   OH267840   6.202   0.391   3.362  0.4768  0.1517 -0.4431
15450TIP3    H167841   6.288   0.370   3.399  0.7636 -1.1807 -1.7697
15450TIP3    H267842   6.221   0.444   3.285 -0.1071  2.7428  1.0594
15451TIP3   OH267843   0.426   4.031  12.548 -0.2147 -0.0458 -0.6412
15451TIP3    H167844   0.422   3.953  12.604  1.1516  0.7485  0.6507
15451TIP3    H267845   0.519   4.055  12.548 -0.3465  0.5750 -2.4570
15452TIP3   OH267846   3.768   6.269  16.702  0.3105 -0.7335 -0.1852
15452TIP3    H167847   3.743   6.361  16.692  0.9725 -0.7462 -2.7227
15452TIP3    H267848   3.862   6.268  16.684  0.6530 -1.7196  1.4703
15453TIP3   OH267849   1.924   4.219  11.652 -0.2735  0.1582  0.1778
15453TIP3    H167850   1.992   4.153  11.662 -1.5946 -1.3670 -0.3982
15453TIP3    H267851   1.919   4.261  11.737 -0.0793 -1.1961  0.8926
15454TIP3   OH267852   3.359   4.737   2.773 -0.2506  0.3016  0.2868
15454TIP3    H167853   3.402   4.805   2.722 -1.4230  1.0650  0.2785
15454TIP3    H267854   3.285   4.709   2.719  0.1584 -0.9073  0.3356
15455TIP3   OH267855   4.558   2.238  13.101 -0.0473  0.5211  0.0702
15455TIP3    H167856   4.500   2.312  13.088 -1.1482 -0.4395 -0.7518
15455TIP3    H267857   4.624   2.247  13.032 -1.1034 -0.0957 -1.0558
15456TIP3   OH267858   1.654   5.076  15.574  0.1758  0.1362 -0.0573
15456TIP3    H167859   1.730   5.045  15.524 -0.5303 -1.5468 -0.1269
15456TIP3    H267860   1.682   5.162  15.607  0.7889  1.1926 -3.0228
15457TIP3   OH267861   2.062   3.010  12.619 -0.3950  0.2784  0.5294
15457TIP3    H167862   2.044   3.104  12.625 -1.2405  0.1875 -0.3111
15457TIP3    H267863   2.006   2.971  12.686 -2.0405  0.1646 -0.8509
15458TIP3   OH267864   5.038   3.767   2.563  0.7344 -0.0375 -0.5305
15458TIP3    H167865   4.958   3.771   2.616 -0.4672  1.6533 -2.3408
15458TIP3    H267866   5.015   3.714   2.487  1.4232  0.1980 -0.9177
15459TIP3   OH267867   2.562   5.378   5.123  0.0350 -0.0142  0.1628
15459TIP3    H167868   2.526   5.459   5.160 -0.2387 -0.6620  1.3907
15459TIP3    H267869   2.638   5.359   5.178 -0.3813 -1.0067  0.4210
15460TIP3   OH267870   4.092   0.027   0.219  0.1905  0.0060 -0.4750
15460TIP3    H167871   4.011   0.019   0.168 -0.8527 -0.3489  1.1565
15460TIP3    H267872   4.069   0.082   0.294  1.5856  0.2516 -0.1889
15461TIP3   OH267873   6.834   3.848  14.109  0.6091  0.1494  0.4340
15461TIP3    H167874   6.922   3.836  14.143  1.3049 -0.3451 -1.4341
15461TIP3    H267875   6.834   3.803  14.024 -1.1237  1.0164 -0.0817
15462TIP3   OH267876   2.810   2.903  13.355  0.0450 -0.4076  0.2804
15462TIP3    H167877   2.813   2.810  13.377 -0.4712 -0.0169  2.1937
15462TIP3    H267878   2.901   2.925  13.333 -0.1335 -1.7204 -2.0352
15463TIP3   OH267879   1.901   5.205   0.974  0.1153 -0.1845  0.1997
15463TIP3    H167880   1.905   5.114   1.006 -0.1579  0.0587  0.9510
15463TIP3    H267881   1.930   5.257   1.049 -0.1415  0.3776 -0.0905
15464TIP3   OH267882   0.219   1.289   4.002  0.0657 -0.1703  0.7492
15464TIP3    H167883   0.149   1.322   3.946 -0.4560 -1.2545  0.7267
15464TIP3    H267884   0.202   1.327   4.088 -1.9453 -2.1535  1.3465
15465TIP3   OH267885   2.837   0.968   1.825  0.9622 -0.4471 -0.1112
15465TIP3    H167886   2.877   0.893   1.869 -0.7254 -0.6230  1.2535
15465TIP3    H267887   2.835   1.037   1.891  0.1910 -0.0425 -0.5373
15466TIP3   OH267888   3.526   5.449   5.719  0.0642  0.1043 -0.0974
15466TIP3    H167889   3.594   5.416   5.660 -0.7161 -2.9739  0.5295
15466TIP3    H267890   3.574   5.481   5.795  0.9025  0.2859 -0.6874
15467TIP3   OH267891   0.636   5.851  11.581 -0.0691 -0.0690  0.1049
15467TIP3    H167892   0.717   5.888  11.617  0.6732 -0.6161 -0.9432
15467TIP3    H267893   0.631   5.885  11.492  0.3251 -1.9322 -0.6841
15468TIP3   OH267894   1.935   6.794  13.018  0.6186  0.3666 -0.1215
15468TIP3    H167895   1.849   6.753  13.031 -0.1775  1.4002 -1.7948
15468TIP3    H267896   1.947   6.848  13.096 -0.7999  1.0846 -0.3549
15469TIP3   OH267897   3.500   4.024  15.449  0.1261 -0.0615 -0.1574
15469TIP3    H167898   3.412   4.057  15.467  0.3505  0.8759 -0.7217
15469TIP3    H267899   3.547   4.036  15.531 -0.4248 -1.1289  0.3351
15470TIP3   OH267900   5.356   0.068  15.330  0.0833 -0.4173  0.3096
15470TIP3    H167901   5.284   0.057  15.392 -0.5298  3.2607  0.4903
15470TIP3    H267902   5.354   0.161  15.307  2.6720 -0.8557 -2.3472
15471TIP3   OH267903   4.350   5.572   6.163  0.6880 -0.2347  0.2685
15471TIP3    H167904   4.338   5.555   6.257  1.0286  0.6257  0.4833
15471TIP3    H267905   4.284   5.638   6.143  2.8225  2.2349  0.7524
15472TIP3   OH267906   1.000   4.884  14.170 -0.4931  0.1594 -0.8924
15472TIP3    H167907   0.905   4.878  14.182 -0.4634 -0.1680 -0.7946
15472TIP3    H267908   1.018   4.977  14.159 -0.4411  0.6526  2.4325
15473TIP3   OH267909   4.510   2.511   3.654  0.2455 -0.0180 -0.0662
15473TIP3    H167910   4.433   2.483   3.704  0.2687  0.3834  0.1921
15473TIP3    H267911   4.477   2.524   3.565 -0.1074  0.6836  0.1583
15474TIP3   OH267912   1.520   3.313  11.747 -0.2728  0.4615  0.1790
15474TIP3    H167913   1.608   3.341  11.720 -0.3409 -1.8475 -2.9944
15474TIP3    H267914   1.531   3.222  11.773 -1.6391  0.2718  0.1462
15475TIP3   OH267915   5.037   3.725   5.551 -0.1218  0.0673  0.6827
15475TIP3    H167916   5.126   3.724   5.516 -0.2345  0.4237  0.3809
15475TIP3    H267917   4.989   3.663   5.496 -0.6785  1.7576 -0.8448
15476TIP3   OH267918   6.664   3.227   4.170  0.6516  0.0534  0.4510
15476TIP3    H167919   6.649   3.145   4.122  1.2923  0.4149 -0.3796
15476TIP3    H267920   6.756   3.223   4.195  0.6764  0.5153  0.4267
15477TIP3   OH267921   0.317   4.490  13.819  0.1791  0.5367 -0.2346
15477TIP3    H167922   0.308   4.399  13.847  1.2226  1.1626  2.3415
15477TIP3    H267923   0.264   4.540  13.881 -1.1207  1.6936 -2.1510
15478TIP3   OH267924   5.428   3.900   6.073  0.2459  0.1057  0.2445
15478TIP3    H167925   5.381   3.978   6.045  0.3010 -0.5019 -1.7061
15478TIP3    H267926   5.495   3.887   6.006  0.5320 -1.3406  0.7697
15479TIP3   OH267927   1.776   5.145   5.316 -0.6009  0.5167  0.1664
15479TIP3    H167928   1.776   5.073   5.378 -0.6526  1.3538  1.1590
15479TIP3    H267929   1.864   5.146   5.280 -0.6417 -0.1201  0.0366
15480TIP3   OH267930   6.526   0.774   1.429  0.5119 -0.1572 -0.2405
15480TIP3    H167931   6.618   0.800   1.435  0.5132 -0.2939  0.4108
15480TIP3    H267932   6.482   0.851   1.393  0.7297  0.2784  0.4070
15481TIP3   OH267933   6.175   6.291   2.677  0.1490 -0.2070  0.0206
15481TIP3    H167934   6.215   6.258   2.758  0.2666  0.9292  0.4378
15481TIP3    H267935   6.241   6.348   2.638 -1.5563  3.1947  1.6514
15482TIP3   OH267936   1.461   0.234   2.760 -0.1121  0.8507 -0.2482
15482TIP3    H167937   1.371   0.228   2.793  0.9269 -3.3681  2.6972
15482TIP3    H267938   1.460   0.184   2.679 -0.2635 -0.3660  0.4740
15483TIP3   OH267939   1.690   4.292  15.913 -0.0704 -0.1314  0.1225
15483TIP3    H167940   1.623   4.294  15.982  0.7013 -0.1170  0.8945
15483TIP3    H267941   1.708   4.200  15.900 -1.0112 -0.1975 -0.8802
15484TIP3   OH267942   0.808   5.357  12.960  0.0807 -0.4595 -0.4392
15484TIP3    H167943   0.900   5.365  12.985  0.3137 -0.6009 -1.2109
15484TIP3    H267944   0.761   5.342  13.042  0.7835 -0.6844 -0.0728
15485TIP3   OH267945   1.960   4.927  11.419  0.8473  0.4446 -0.6498
15485TIP3    H167946   2.044   4.883  11.423  1.7911  1.5633 -4.0954
15485TIP3    H267947   1.982   5.020  11.410 -0.9180  1.1750  1.6236
15486TIP3   OH267948   3.779   1.823   5.841 -0.3700 -0.0208 -0.3087
15486TIP3    H167949   3.692   1.783   5.838  1.1953 -3.8576 -0.3418
15486TIP3    H267950   3.800   1.828   5.934  0.2433 -1.3376 -0.3611
15487TIP3   OH267951   0.076   3.178   0.829  0.5871 -0.5692  0.6074
15487TIP3    H167952   0.028   3.236   0.888  0.1442 -1.4090  1.0973
15487TIP3    H267953   0.158   3.225   0.810 -0.0991  0.5582  0.3450
15488TIP3   OH267954   1.115   0.921   5.115 -0.1208  0.2202  0.0912
15488TIP3    H167955   1.127   0.968   5.198  1.5835 -0.1998  0.1218
15488TIP3    H267956   1.148   0.833   5.132  0.7183  0.2686 -1.1546
15489TIP3   OH267957   2.890   5.740   1.974 -0.0500  0.4110  0.1109
15489TIP3    H167958   2.839   5.695   1.907 -0.2867  1.9999 -0.8289
15489TIP3    H267959   2.981   5.724   1.950 -0.1315  0.5022 -0.2590
15490TIP3   OH267960   6.313   6.218  11.882 -0.2823 -0.4071  0.1294
15490TIP3    H167961   6.220   6.195  11.882 -0.7228  1.2162 -0.1970
15490TIP3    H267962   6.336   6.226  11.789 -0.1248  0.3264  0.2261
15491TIP3   OH267963   2.933   0.682   4.778  0.0987  0.1662 -0.3136
15491TIP3    H167964   3.005   0.714   4.831  1.1428 -1.0041 -0.9635
15491TIP3    H267965   2.902   0.603   4.823 -1.5531  1.2481  0.5569
15492TIP3   OH267966   3.735   5.490  14.900 -0.0651  0.5921  0.6153
15492TIP3    H167967   3.651   5.509  14.857 -1.7138 -2.0046  2.3491
15492TIP3    H267968   3.722   5.520  14.990  0.5198 -0.5846  1.1106
15493TIP3   OH267969   2.387   5.833  12.981 -0.0534 -0.1330 -0.0102
15493TIP3    H167970   2.482   5.824  12.977 -0.1133 -0.4799 -1.8799
15493TIP3    H267971   2.356   5.796  12.898 -1.7918  0.3547  0.3699
15494TIP3   OH267972   5.981   5.541   2.797 -0.4643 -0.9511 -0.0873
15494TIP3    H167973   5.992   5.465   2.855  0.1385  0.4889  1.8027
15494TIP3    H267974   6.050   5.532   2.732 -0.5034 -2.0903  0.0059
15495TIP3   OH267975   6.177   2.577  11.870 -0.2782  0.2003 -0.7532
15495TIP3    H167976   6.175   2.649  11.933 -0.8642 -0.9133  0.5443
15495TIP3    H267977   6.090   2.576  11.832 -0.0139  0.6865 -1.3910
15496TIP3   OH267978   1.413   3.599  17.110 -0.7980 -0.5694 -0.2758
15496TIP3    H167979   1.396   3.644  17.192 -1.3296  0.4105 -0.8999
15496TIP3    H267980   1.402   3.506  17.130  0.8338 -0.4826  1.1572
15497TIP3   OH267981   5.450   1.107   0.743  0.1571 -0.3425 -0.7189
15497TIP3    H167982   5.371   1.053   0.735  1.0762 -1.6254 -1.5588
15497TIP3    H267983   5.421   1.185   0.791 -0.9152 -2.1834  1.8547
15498TIP3   OH267984   5.373   5.581   2.585 -0.3045 -0.1102  0.0691
15498TIP3    H167985   5.459   5.555   2.620  0.2132  0.5277 -0.6779
15498TIP3    H267986   5.339   5.502   2.543  0.7481  0.0744 -1.2083
15499TIP3   OH267987   2.340   4.083  11.613 -1.1157 -0.0491  0.1472
15499TIP3    H167988   2.400   4.068  11.686 -2.7752  0.2744  1.6537
15499TIP3    H267989   2.394   4.122  11.544  0.5610 -0.6452  1.0797
15500TIP3   OH267990   3.840   2.148   6.023 -0.1715  0.0352 -0.6049
15500TIP3    H167991   3.754   2.110   6.043  0.3251 -1.3817 -0.9993
15500TIP3    H267992   3.887   2.144   6.106  0.1929 -1.1422 -0.8467
15501TIP3   OH267993   1.811   1.161   0.950  0.5603 -0.1952  0.1893
15501TIP3    H167994   1.869   1.102   0.902 -0.9896 -1.7828  0.1407
15501TIP3    H267995   1.757   1.202   0.882  0.7461  0.2715  0.3224
15502TIP3   OH267996   4.589   1.641  13.184  0.3299 -0.1110 -0.3592
15502TIP3    H167997   4.505   1.597  13.192 -0.0114  0.5061 -0.5445
15502TIP3    H267998   4.652   1.570  13.167 -0.3715 -0.4279 -1.7846
15503TIP3   OH267999   0.783   5.416  15.402  0.3821 -0.0878  0.0245
15503TIP3    H168000   0.730   5.468  15.463  0.5740 -2.0600  2.0018
15503TIP3    H268001   0.799   5.475  15.328 -0.5451  2.1709  1.5088
15504TIP3   OH268002   3.753   4.615  11.284 -0.1079 -0.6366 -0.0028
15504TIP3    H168003   3.659   4.627  11.294  0.2719  1.2081  2.3463
15504TIP3    H268004   3.771   4.530  11.325 -0.5847 -0.1936  1.1713
15505TIP3   OH268005   3.117   6.166  12.272  0.3476 -0.3184  0.0958
15505TIP3    H168006   3.090   6.075  12.260  2.5619 -0.9375 -0.7583
15505TIP3    H268007   3.212   6.164  12.260  0.4166  2.1697 -0.2387
15506TIP3   OH268008   2.159   3.134  13.696 -0.3253 -0.6605 -0.3555
15506TIP3    H168009   2.171   3.223  13.730 -0.1609 -0.0419 -1.9568
15506TIP3    H268010   2.246   3.107  13.668 -0.4445 -1.1784 -0.2324
15507TIP3   OH268011   0.166   5.631  14.082  0.5249  0.3087  0.0295
15507TIP3    H168012   0.110   5.615  14.006 -0.1455 -1.4243  0.8342
15507TIP3    H268013   0.105   5.641  14.155  1.1990 -0.9535  0.8049
15508TIP3   OH268014   4.984   6.555   1.964  0.4512 -0.4690 -0.0659
15508TIP3    H168015   5.072   6.566   2.000  1.1691 -1.1634 -1.5041
15508TIP3    H268016   4.997   6.555   1.869 -1.2827  0.7376 -0.3459
15509TIP3   OH268017   0.353   2.878   1.568 -0.0539 -0.0885  0.1818
15509TIP3    H168018   0.272   2.929   1.580 -0.6956 -1.1134  0.3259
15509TIP3    H268019   0.329   2.789   1.593  0.5285 -0.8675 -1.8735
15510TIP3   OH268020   3.181   6.012   4.288 -0.1966  0.1420  0.5043
15510TIP3    H168021   3.178   6.022   4.193  1.0250 -0.3162  0.3954
15510TIP3    H268022   3.210   5.922   4.302 -0.5907  0.1371  1.3114
15511TIP3   OH268023   0.800   1.727  10.339  0.1194  0.4004 -0.6977
15511TIP3    H168024   0.721   1.673  10.349  1.7020 -1.8302  1.0106
15511TIP3    H268025   0.857   1.675  10.282  0.4069  1.9545 -1.8816
15512TIP3   OH268026   2.884   4.936  11.734  0.4042  0.5324 -0.1324
15512TIP3    H168027   2.870   5.031  11.730  3.3786  1.1137  0.4175
15512TIP3    H268028   2.913   4.921  11.824  1.5993 -0.5726 -0.6663
15513TIP3   OH268029   3.483   3.652  11.527  0.0669  0.3831  0.3233
15513TIP3    H168030   3.414   3.684  11.584 -1.4858 -4.2328  1.4872
15513TIP3    H268031   3.466   3.694  11.442 -2.6149  1.3134  1.2390
15514TIP3   OH268032   2.919   5.185   4.142 -0.5615  0.6999 -0.7081
15514TIP3    H168033   2.905   5.153   4.231  0.2962  0.0280 -0.8091
15514TIP3    H268034   2.862   5.262   4.136 -1.1341  0.3680  0.1935
15515TIP3   OH268035   2.262   1.400   1.799 -0.7040 -0.2216 -0.0984
15515TIP3    H168036   2.317   1.430   1.871 -0.8762  1.2498 -0.5518
15515TIP3    H268037   2.237   1.480   1.753  0.0729 -1.1689 -2.2991
15516TIP3   OH268038   4.391   5.780  14.770  0.0033 -0.0788 -0.1694
15516TIP3    H168039   4.481   5.771  14.738  0.4624  1.6014  0.5372
15516TIP3    H268040   4.387   5.869  14.805 -2.2354  0.2492 -1.0885
15517TIP3   OH268041   2.532   0.568   3.603  0.0368  0.1903 -0.6747
15517TIP3    H168042   2.556   0.477   3.623 -0.3043  0.1429 -0.4500
15517TIP3    H268043   2.545   0.577   3.509  2.2752  0.5915 -0.3789
15518TIP3   OH268044   0.387   2.101  13.907  0.0996  0.5547 -0.2343
15518TIP3    H168045   0.387   2.182  13.957 -0.6484  0.1913  0.3776
15518TIP3    H268046   0.357   2.034  13.969  1.9973 -0.4546 -0.3381
15519TIP3   OH268047   1.188   5.474  16.580  0.2184  0.0074 -0.2888
15519TIP3    H168048   1.249   5.545  16.561  1.4600 -1.0719 -0.5194
15519TIP3    H268049   1.209   5.446  16.669 -1.5016  1.0737  0.5166
15520TIP3   OH268050   3.883   6.266   3.618 -0.2474  0.1280  0.4281
15520TIP3    H168051   3.882   6.222   3.533  0.8170  0.0484  0.4401
15520TIP3    H268052   3.839   6.205   3.677  0.9150 -0.8033  0.3722
15521TIP3   OH268053   1.483   1.537   5.563  0.3549  0.3098 -0.0955
15521TIP3    H168054   1.495   1.477   5.490  0.4765 -0.4153  0.5004
15521TIP3    H268055   1.543   1.504   5.631 -1.7575 -0.7575  1.3609
15522TIP3   OH268056   5.783   5.679  13.429  0.4965 -0.0788 -0.0748
15522TIP3    H168057   5.785   5.773  13.448 -2.2183 -0.2234  1.5542
15522TIP3    H268058   5.859   5.643  13.473  0.8071  1.1981  0.4724
15523TIP3   OH268059   5.543   2.242  15.144 -0.2038  0.4934  0.5453
15523TIP3    H168060   5.546   2.293  15.225  0.9553  0.2137  0.6976
15523TIP3    H268061   5.627   2.261  15.101 -1.1363  1.2770 -0.9963
15524TIP3   OH268062   0.373   3.966  13.133  0.0944 -0.8321  0.5511
15524TIP3    H168063   0.332   4.003  13.211 -1.5358 -1.1571 -0.1093
15524TIP3    H268064   0.423   3.891  13.164 -2.2863 -2.3034  1.0786
15525TIP3   OH268065   3.876   2.895   6.101 -0.2409  0.1480  0.2916
15525TIP3    H168066   3.832   2.953   6.039 -0.5134  1.0661  1.3183
15525TIP3    H268067   3.825   2.814   6.097  0.6185 -0.3549 -1.7344
15526TIP3   OH268068   6.642   3.060  13.167  0.4195  0.1689 -0.1744
15526TIP3    H168069   6.588   3.136  13.145  1.6643  1.1802  0.0842
15526TIP3    H268070   6.712   3.061  13.102  1.3994  0.2822  0.8382
15527TIP3   OH268071   5.193   3.999   2.318  0.0564  0.0413  0.5794
15527TIP3    H168072   5.119   4.007   2.377 -1.0655 -1.6659 -0.4978
15527TIP3    H268073   5.267   4.034   2.367 -1.3589  1.4231  1.8371
15528TIP3   OH268074   2.200   4.537   0.093  0.3073  0.0412 -0.2578
15528TIP3    H168075   2.173   4.509   0.181 -2.3465  0.5499 -0.8215
15528TIP3    H268076   2.241   4.622   0.107 -1.2256  0.7033  0.4012
15529TIP3   OH268077   0.908   5.331  14.757  0.0351  0.7648 -0.1967
15529TIP3    H168078   0.820   5.321  14.795  0.3986 -0.5695  0.3472
15529TIP3    H268079   0.892   5.371  14.672 -1.5005 -2.4761 -1.6246
15530TIP3   OH268080   5.605   1.164   2.233 -0.3174  0.6502  0.0864
15530TIP3    H168081   5.618   1.153   2.139  0.2631  0.3681  0.1992
15530TIP3    H268082   5.648   1.247   2.254 -0.1128  0.5217  0.1727
15531TIP3   OH268083   1.450   2.714   6.021  0.0047 -0.8595 -0.4300
15531TIP3    H168084   1.383   2.649   6.042  0.1683 -1.6984 -2.3312
15531TIP3    H268085   1.434   2.786   6.082 -2.8922 -0.8378 -1.1071
15532TIP3   OH268086   3.480   0.494  16.804  0.0578  0.3424 -0.3357
15532TIP3    H168087   3.476   0.399  16.790 -1.5707  0.6153 -2.2141
15532TIP3    H268088   3.423   0.509  16.880  0.3597 -0.1780 -0.0027
15533TIP3   OH268089   4.929   1.412   6.477 -0.3871  0.2101 -0.2033
15533TIP3    H168090   4.963   1.477   6.415  0.8748 -1.0587 -0.9082
15533TIP3    H268091   4.834   1.414   6.465 -0.2349  0.6635 -1.4879
15534TIP3   OH268092   2.230   5.661   5.842 -0.4383  0.7103  0.3825
15534TIP3    H168093   2.184   5.593   5.793  1.1246 -0.6132  0.6961
15534TIP3    H268094   2.193   5.743   5.808  0.7955 -0.0741 -3.3093
15535TIP3   OH268095   3.345   6.821   1.602 -0.3263  0.1124  0.5124
15535TIP3    H168096   3.316   6.760   1.534 -2.2261  0.1376  1.2433
15535TIP3    H268097   3.366   6.901   1.554 -0.5388 -0.2241 -0.1595
15536TIP3   OH268098   4.718   5.095  12.195  0.3652  0.0955  0.0880
15536TIP3    H168099   4.686   5.048  12.118  2.1315  0.0871 -0.6979
15536TIP3    H268100   4.802   5.054  12.215  1.6345  2.4094 -0.1985
15537TIP3   OH268101   3.922   5.627   1.219  0.1194 -0.4170 -0.6344
15537TIP3    H168102   3.845   5.672   1.184 -0.3042  0.0884  0.8755
15537TIP3    H268103   3.938   5.556   1.157 -3.0074 -2.0352  0.1648
15538TIP3   OH268104   5.235   6.073   4.872  0.5081 -0.2875 -0.3020
15538TIP3    H168105   5.162   6.011   4.870  2.2616 -2.6142  1.3961
15538TIP3    H268106   5.208   6.139   4.936  0.1068 -1.5096  0.8573
15539TIP3   OH268107   2.470   4.463   6.356 -0.0110  0.4704 -0.2334
15539TIP3    H168108   2.472   4.555   6.332 -0.1306  0.9579  1.5059
15539TIP3    H268109   2.560   4.433   6.344  0.4490  1.3149  0.9412
15540TIP3   OH268110   5.454   1.221  15.608 -0.0809 -0.3822 -0.1268
15540TIP3    H168111   5.480   1.302  15.652  0.9032 -1.1961  0.8509
15540TIP3    H268112   5.497   1.152  15.658  1.4099 -1.3613 -2.5292
15541TIP3   OH268113   5.172   4.278   0.518  0.0446 -0.0128 -0.4005
15541TIP3    H168114   5.104   4.314   0.573  0.1578  1.6836 -1.3132
15541TIP3    H268115   5.185   4.343   0.449  4.4169  1.1039  1.1378
15542TIP3   OH268116   4.674   5.649   1.707  0.4793 -0.1107  0.6684
15542TIP3    H168117   4.594   5.641   1.655  1.2617 -0.1351 -0.5615
15542TIP3    H268118   4.657   5.595   1.785 -0.9002  0.3373  0.6950
15543TIP3   OH268119   5.261   0.501  16.733  0.2479 -0.2100  0.1855
15543TIP3    H168120   5.307   0.464  16.658  0.1491  0.8323 -0.4094
15543TIP3    H268121   5.199   0.433  16.760  0.6542 -0.7992 -0.3386
15544TIP3   OH268122   2.713   6.719   1.730  0.8515  0.6473  0.0813
15544TIP3    H168123   2.641   6.677   1.682  1.4887  1.8548 -2.0414
15544TIP3    H268124   2.703   6.812   1.713  1.4283  1.1056  1.9593
15545TIP3   OH268125   5.376   4.303  13.208  0.3549  0.2112 -0.0449
15545TIP3    H168126   5.449   4.272  13.155  0.6659 -0.0375  0.5228
15545TIP3    H268127   5.402   4.285  13.298 -1.4434 -2.1909  0.0816
15546TIP3   OH268128   1.649   5.685   2.404  0.0565 -0.2012 -0.4609
15546TIP3    H168129   1.727   5.713   2.451  2.0313 -2.0942 -2.3602
15546TIP3    H268130   1.595   5.764   2.399  2.7261  1.7773 -0.7123
15547TIP3   OH268131   5.730   0.335   4.837  0.0343 -0.4391 -0.2014
15547TIP3    H168132   5.823   0.355   4.842  0.4238 -2.2439  0.5875
15547TIP3    H268133   5.710   0.294   4.921 -2.0163  1.9190  0.5755
15548TIP3   OH268134   4.929   1.497   1.792  0.0455 -0.1058  0.4645
15548TIP3    H168135   5.016   1.534   1.778  0.5899 -1.3044  0.5067
15548TIP3    H268136   4.897   1.539   1.871  1.1888 -0.6534  1.2501
15549TIP3   OH268137   2.783   3.754   6.754 -0.2324  0.1160 -0.3460
15549TIP3    H168138   2.723   3.823   6.727 -0.4719  0.4203  0.9116
15549TIP3    H268139   2.729   3.693   6.804  0.3503  0.0113  0.1687
15550TIP3   OH268140   1.734   0.485   0.434  0.4281 -0.2032  0.3571
15550TIP3    H168141   1.818   0.513   0.469 -0.6156  1.2481  1.8856
15550TIP3    H268142   1.747   0.394   0.407  2.2771 -0.2196  1.2037
15551TIP3   OH268143   4.331   2.353   3.836  0.4658  0.0520 -0.3233
15551TIP3    H168144   4.351   2.323   3.925 -1.4479 -2.7519 -0.6928
15551TIP3    H268145   4.271   2.426   3.848  0.7327  0.1172  0.6958
15552TIP3   OH268146   0.885   2.696  16.577  0.5699 -0.8822  0.3231
15552TIP3    H168147   0.847   2.652  16.500  1.5025 -0.1023 -0.6224
15552TIP3    H268148   0.920   2.778  16.542  0.9010 -0.4541  1.6237
15553TIP3   OH268149   3.362   6.545   1.936 -0.3458  0.2445  0.4625
15553TIP3    H168150   3.312   6.547   2.018 -0.9062  1.2936  0.1139
15553TIP3    H268151   3.298   6.523   1.869 -0.5430  2.2827 -0.0878
15554TIP3   OH268152   6.248   4.214   2.265 -0.2572 -0.1559 -0.1269
15554TIP3    H168153   6.334   4.174   2.250 -0.1063  0.1828 -0.1556
15554TIP3    H268154   6.213   4.226   2.176 -0.6051 -0.8837 -0.0947
15555TIP3   OH268155   3.237   6.261  16.910  0.1792 -0.6173 -0.2119
15555TIP3    H168156   3.267   6.179  16.870  2.0622 -0.0092 -0.1470
15555TIP3    H268157   3.153   6.278  16.868  0.1086 -2.1800 -0.7950
15556TIP3   OH268158   0.488   1.486  14.453 -0.3931  0.1112 -0.0871
15556TIP3    H168159   0.448   1.522  14.374 -1.0630 -0.6993 -0.1448
15556TIP3    H268160   0.519   1.562  14.502 -1.4202  0.7310 -0.3708
15557TIP3   OH268161   1.708   4.662   2.437 -0.3198 -0.5581 -0.4877
15557TIP3    H168162   1.637   4.720   2.463 -0.3553 -0.7693 -0.1169
15557TIP3    H268163   1.726   4.608   2.514  1.4591  0.7155  0.0626
15558TIP3   OH268164   4.813   3.949  15.259 -0.0446 -0.2455  0.1880
15558TIP3    H168165   4.800   3.867  15.212  0.8555 -0.2514 -0.0623
15558TIP3    H268166   4.775   3.934  15.345 -2.1523 -0.0914 -0.6384
15559TIP3   OH268167   2.469   3.755   2.741  0.3378 -0.7258  0.4453
15559TIP3    H168168   2.464   3.682   2.681 -0.8043 -1.0350  0.8849
15559TIP3    H268169   2.512   3.719   2.819 -1.4388 -1.3290  1.1849
15560TIP3   OH268170   5.710   3.373  12.580 -0.1086 -0.6078  0.8479
15560TIP3    H168171   5.653   3.330  12.516  3.4576 -1.6310 -2.0278
15560TIP3    H268172   5.670   3.459  12.593 -1.4272 -0.5761 -2.3665
15561TIP3   OH268173   2.661   2.242   5.501  0.6397  0.2069 -0.1735
15561TIP3    H168174   2.703   2.296   5.434 -1.5995  1.9154 -0.3596
15561TIP3    H268175   2.610   2.178   5.452 -0.6788  1.2036 -0.1951
15562TIP3   OH268176   3.355   5.059  12.598  0.3095  0.2398 -0.0067
15562TIP3    H168177   3.412   4.989  12.630 -1.2216 -0.1702  2.0465
15562TIP3    H268178   3.306   5.087  12.676 -1.7447  1.0601 -1.5069
15563TIP3   OH268179   5.900   0.604  14.495 -0.6560  0.3540 -0.8218
15563TIP3    H168180   5.892   0.699  14.493 -1.0924  0.4957  2.0676
15563TIP3    H268181   5.994   0.588  14.499 -0.5953  0.7366 -0.6533
15564TIP3   OH268182   6.185   3.863   2.760 -0.1276  0.0182 -0.0559
15564TIP3    H168183   6.277   3.887   2.746 -0.2579  0.0525 -0.8753
15564TIP3    H268184   6.189   3.787   2.818  0.3542  0.9616  1.1952
15565TIP3   OH268185   2.960   5.602  17.154 -0.8333 -0.1884 -0.1319
15565TIP3    H168186   2.869   5.628  17.145 -0.6047  0.3208 -1.1301
15565TIP3    H268187   3.009   5.665  17.100  0.1035 -0.4523  0.3746
15566TIP3   OH268188   6.072   2.233   1.055 -0.6343 -0.3588 -0.0100
15566TIP3    H168189   6.167   2.224   1.053 -0.4469  1.3727 -0.3857
15566TIP3    H268190   6.040   2.144   1.038  0.9145 -0.7810 -0.9962
15567TIP3   OH268191   1.362   6.735  15.478  0.2810 -0.5710  0.1833
15567TIP3    H168192   1.423   6.662  15.491  2.0431  0.6652 -0.7837
15567TIP3    H268193   1.326   6.720  15.391  1.4751  0.2588 -0.4749
15568TIP3   OH268194   6.258   6.757   5.203  0.1303  0.3148  0.2026
15568TIP3    H168195   6.309   6.717   5.274  0.1670  1.3067  0.7425
15568TIP3    H268196   6.309   6.738   5.124 -0.4635 -1.7710  0.2476
15569TIP3   OH268197   4.513   2.359   0.779 -0.6163  0.0218 -0.3212
15569TIP3    H168198   4.482   2.298   0.846 -0.6389  0.6116  0.2111
15569TIP3    H268199   4.604   2.377   0.804  0.0770 -1.4087 -1.6571
15570TIP3   OH268200   0.702   3.604  14.646  0.3836 -0.2186 -0.0058
15570TIP3    H168201   0.688   3.697  14.665 -1.2921 -0.2917 -0.7202
15570TIP3    H268202   0.745   3.570  14.725  0.0974  0.9481  0.6793
15571TIP3   OH268203   0.693   2.816   3.432 -0.3759 -0.4050 -0.0558
15571TIP3    H168204   0.705   2.864   3.350  2.3412 -1.7740 -0.5674
15571TIP3    H268205   0.615   2.763   3.418 -1.5656  1.3859 -0.6581
15572TIP3   OH268206   6.200   5.789  15.751  0.3402  0.5569  0.5832
15572TIP3    H168207   6.266   5.790  15.682  2.0817  1.7354  2.1638
15572TIP3    H268208   6.248   5.765  15.830 -0.9646  2.1263  1.9356
15573TIP3   OH268209   1.829   3.713   3.426 -0.0521  0.5986 -0.1912
15573TIP3    H168210   1.790   3.735   3.510 -0.6116  0.5699 -0.4382
15573TIP3    H268211   1.884   3.636   3.444  0.0627  0.7722  0.2023
15574TIP3   OH268212   5.669   4.755  13.112 -0.0735  0.3742  0.1069
15574TIP3    H168213   5.673   4.850  13.123  0.0808  0.1539  2.5915
15574TIP3    H268214   5.740   4.721  13.167  0.4283 -1.1846 -1.3823
15575TIP3   OH268215   0.681   5.216  16.011 -0.1481  0.0070 -0.2648
15575TIP3    H168216   0.770   5.181  16.016  0.1923  0.8171 -0.4180
15575TIP3    H268217   0.669   5.239  15.919 -1.5068 -2.5445 -0.8176
15576TIP3   OH268218   3.211   4.874   4.367  0.0382 -0.1228  0.2225
15576TIP3    H168219   3.184   4.795   4.414 -2.1743  1.2129  1.3453
15576TIP3    H268220   3.306   4.866   4.360 -0.1768 -3.2914 -0.5347
15577TIP3   OH268221   4.008   2.944   5.785  0.1420  0.2313 -0.3541
15577TIP3    H168222   3.922   2.942   5.745 -0.4852 -0.3134  0.9671
15577TIP3    H268223   4.052   2.865   5.755  1.0412  1.5370 -2.7516
15578TIP3   OH268224   2.281   3.043   4.051  0.8541 -0.1084 -0.7600
15578TIP3    H168225   2.372   3.071   4.045  0.9887 -0.6263 -1.2139
15578TIP3    H268226   2.247   3.086   4.130  1.9872 -1.3029  0.4137
15579TIP3   OH268227   1.658   1.776   1.052  0.1253 -0.0851  0.6242
15579TIP3    H168228   1.649   1.870   1.069 -1.7567  0.3236 -2.0189
15579TIP3    H268229   1.585   1.737   1.100  0.5468 -0.1494  1.2257
15580TIP3   OH268230   4.988   2.407  14.487 -0.4510  0.4190 -0.3088
15580TIP3    H168231   4.905   2.359  14.485 -1.0752  1.4627 -0.2091
15580TIP3    H268232   5.055   2.338  14.493 -1.3764 -0.3995  1.6037
15581TIP3   OH268233   6.350   2.151   5.125  0.1491 -0.1122 -0.3412
15581TIP3    H168234   6.371   2.221   5.187 -0.4186 -0.4110  0.1971
15581TIP3    H268235   6.279   2.103   5.166  0.3256 -0.8252 -0.8490
15582TIP3   OH268236   1.988   2.416   2.614 -0.3112  0.4967 -0.3464
15582TIP3    H168237   1.937   2.438   2.536  0.3371  1.4180 -0.5283
15582TIP3    H268238   2.034   2.335   2.591 -2.6353 -1.0854  0.2797
15583TIP3   OH268239   1.136   4.776   2.659  0.0345  0.5076 -0.3704
15583TIP3    H168240   1.067   4.829   2.621  0.2100  0.5902 -0.5769
15583TIP3    H268241   1.168   4.826   2.734 -1.4803 -0.4199  0.9748
15584TIP3   OH268242   1.486   3.431  12.799 -0.0958  0.2462  0.1674
15584TIP3    H168243   1.571   3.474  12.804 -0.7910  1.6733  0.1681
15584TIP3    H268244   1.474   3.391  12.885  0.3947  0.4078  0.3123
15585TIP3   OH268245   3.925   4.804  12.211  0.3325  0.1009  0.1076
15585TIP3    H168246   3.883   4.874  12.261 -0.5241  0.5772 -1.2188
15585TIP3    H268247   3.884   4.724  12.244 -0.1521  0.3973  0.2452
15586TIP3   OH268248   6.522   4.248  16.448 -0.0184  0.0787  0.2366
15586TIP3    H168249   6.614   4.232  16.466  0.1534  1.6779  0.9787
15586TIP3    H268250   6.500   4.324  16.502 -1.5325  0.2777 -0.6029
15587TIP3   OH268251   3.969   2.244  15.954 -0.3243  0.1383 -0.4620
15587TIP3    H168252   3.913   2.202  15.889  0.9843  0.0736 -1.6102
15587TIP3    H268253   4.034   2.293  15.903  1.4896 -0.8779  0.7179
15588TIP3   OH268254   1.623   3.841  16.084  0.3668  0.2734  0.4725
15588TIP3    H168255   1.592   3.794  16.007 -3.4561  1.9257  0.7917
15588TIP3    H268256   1.658   3.773  16.141 -1.5580 -1.7150 -0.5761
15589TIP3   OH268257   2.381   3.627   1.221 -0.0685  0.3060  0.0427
15589TIP3    H168258   2.419   3.669   1.144  0.4005  1.5986  0.9294
15589TIP3    H268259   2.329   3.555   1.187 -0.2643  1.1511 -1.5099
15590TIP3   OH268260   5.864   0.590   4.508 -0.6540  0.1323 -0.4006
15590TIP3    H168261   5.842   0.624   4.595  0.8945 -0.0487  0.0806
15590TIP3    H268262   5.816   0.508   4.502 -0.8794  0.2140  0.2287
15591TIP3   OH268263   2.171   4.268   0.237  0.4911 -0.3550  0.4137
15591TIP3    H168264   2.231   4.265   0.162 -0.2713  0.3462 -0.2498
15591TIP3    H268265   2.228   4.261   0.313  1.2476 -1.5273 -0.2370
15592TIP3   OH268266   2.964   6.831   0.943 -0.7763 -0.2002  0.0753
15592TIP3    H168267   2.971   6.921   0.973  0.5974 -0.1558 -0.3185
15592TIP3    H268268   3.014   6.828   0.862 -1.9365 -1.0152 -0.6515
15593TIP3   OH268269   2.814   1.371  16.676  0.2774  0.7665  0.5077
15593TIP3    H168270   2.769   1.454  16.661 -2.9498 -0.6295  1.6952
15593TIP3    H268271   2.871   1.388  16.751  2.0155  2.6101 -1.0985
15594TIP3   OH268272   2.201   5.544  16.957  0.1737 -0.0240  0.3545
15594TIP3    H168273   2.260   5.532  16.882  1.9710 -0.8493  1.8297
15594TIP3    H268274   2.117   5.568  16.917  1.2786  0.4528 -1.8725
15595TIP3   OH268275   2.172   1.650   1.679  0.2492  0.3151  0.0101
15595TIP3    H168276   2.084   1.682   1.659  0.9302  1.8883 -0.5687
15595TIP3    H268277   2.231   1.716   1.644  1.7302 -1.3248 -0.7378
15596TIP3   OH268278   1.446   6.075   4.957  1.0952  0.3451 -0.0041
15596TIP3    H168279   1.497   5.995   4.963  0.7298  0.1489  0.5248
15596TIP3    H268280   1.398   6.067   4.874  0.1285 -0.5455  0.6245
15597TIP3   OH268281   5.172   5.564   4.486 -0.5535 -0.2735 -0.7279
15597TIP3    H168282   5.240   5.534   4.426  0.0189  0.7606 -0.6318
15597TIP3    H268283   5.104   5.497   4.481 -0.0175 -0.7740 -1.6675
15598TIP3   OH268284   2.343   0.704   4.607 -0.9789 -0.5962  0.1266
15598TIP3    H168285   2.390   0.731   4.528 -0.6419 -1.1123  0.1436
15598TIP3    H268286   2.412   0.687   4.671 -1.2300 -0.6006  0.3955
15599TIP3   OH268287   2.818   6.700   0.205 -0.1434  0.0170  0.3570
15599TIP3    H168288   2.766   6.687   0.284 -1.8284  1.9614 -0.3590
15599TIP3    H268289   2.791   6.630   0.146  0.2910 -0.7537  1.0348
15600TIP3   OH268290   1.180   3.264   4.210 -0.8951 -0.5328 -0.3095
15600TIP3    H168291   1.201   3.226   4.125  1.4994  0.6084 -0.3141
15600TIP3    H268292   1.252   3.237   4.267 -1.1708  0.7531  0.7056
15601TIP3   OH268293   4.409   5.355  14.393 -0.3110  0.0901  1.0045
15601TIP3    H168294   4.436   5.319  14.477 -1.1361 -1.1331  0.7715
15601TIP3    H268295   4.383   5.445  14.413  1.5145  0.5179  1.6498
15602TIP3   OH268296   6.106   4.496  14.588  0.3538 -0.0848 -0.4294
15602TIP3    H168297   6.137   4.587  14.594 -0.1802  0.0396  0.8122
15602TIP3    H268298   6.124   4.460  14.675 -3.8951  0.3215  0.8259
15603TIP3   OH268299   1.680   6.124   0.457  0.0415 -0.0395  0.0470
15603TIP3    H168300   1.764   6.149   0.496  0.3800 -1.2726  0.1853
15603TIP3    H268301   1.658   6.041   0.500 -1.3069  0.3130  0.0776
15604TIP3   OH268302   4.644   1.994  15.911 -0.3542 -0.4169 -0.2351
15604TIP3    H168303   4.656   1.899  15.912 -0.2044 -0.4196 -1.2807
15604TIP3    H268304   4.710   2.026  15.849  0.5934  0.5340  1.2074
15605TIP3   OH268305   3.067   4.862   4.131 -0.2043  0.1321 -0.2123
15605TIP3    H168306   3.094   4.949   4.102 -2.2948  0.7301 -0.5507
15605TIP3    H268307   3.102   4.855   4.220  2.0801  0.2659 -1.0254
15606TIP3   OH268308   4.675   2.455   2.931  0.1916  0.0645 -0.5068
15606TIP3    H168309   4.680   2.404   3.012 -1.1357  0.1330 -0.3599
15606TIP3    H268310   4.763   2.449   2.893  1.2673  1.2004  1.6312
15607TIP3   OH268311   3.025   2.031  15.997  0.0813 -0.1500  0.1476
15607TIP3    H168312   3.018   2.103  16.060 -0.6986 -0.7543  0.7757
15607TIP3    H268313   2.969   1.962  16.033  0.4346 -0.8967 -0.6873
15608TIP3   OH268314   2.330   2.442  15.520 -0.6674  0.2010  0.2077
15608TIP3    H168315   2.341   2.525  15.567 -0.0789  0.1368  0.1911
15608TIP3    H268316   2.418   2.406  15.513 -0.8275 -0.1028 -0.3784
15609TIP3   OH268317   5.185   2.689  17.040  0.4628  0.0140 -0.0653
15609TIP3    H168318   5.239   2.617  17.073  0.2697  0.5894  1.5824
15609TIP3    H268319   5.244   2.764  17.038  0.4025  0.0513 -0.8338
15610TIP3   OH268320   4.240   2.647   2.935 -0.0896 -0.0423 -0.2118
15610TIP3    H168321   4.301   2.605   2.874  0.7322  0.6086  0.1410
15610TIP3    H268322   4.161   2.594   2.931  0.6258 -1.1113 -0.4204
15611TIP3   OH268323   4.650   1.450   4.418 -0.1616  0.1516 -0.0396
15611TIP3    H168324   4.735   1.459   4.459 -0.1421  0.9157 -0.2299
15611TIP3    H268325   4.645   1.524   4.356 -0.0341 -1.1485 -1.6857
15612TIP3   OH268326   1.443   3.140   4.777 -0.4148 -0.0411  0.3275
15612TIP3    H168327   1.376   3.110   4.715  0.4962  0.7642 -1.0956
15612TIP3    H268328   1.468   3.226   4.745  2.1424 -0.7884  0.0741
15613TIP3   OH268329   3.106   3.020  13.532 -0.5705  0.0263  0.1100
15613TIP3    H168330   3.141   2.936  13.504 -0.4166  0.2093 -0.2490
15613TIP3    H268331   3.058   3.053  13.456  0.2174  0.7276 -0.0921
15614TIP3   OH268332   6.178   6.036   2.509 -0.0352  0.3714  0.2483
15614TIP3    H168333   6.180   6.095   2.584 -0.6801  0.5590  0.1228
15614TIP3    H268334   6.090   5.997   2.512  0.6339 -1.1881  0.7953
15615TIP3   OH268335   0.277   3.790   4.201  0.0530  0.0276  0.2062
15615TIP3    H168336   0.271   3.734   4.278  1.7906  0.6976  0.8825
15615TIP3    H268337   0.360   3.837   4.212 -0.3592  1.2053 -1.3559
15616TIP3   OH268338   5.054   4.908   5.801  0.3504 -0.0426  0.4260
15616TIP3    H168339   5.125   4.857   5.842  1.7402 -0.1173 -1.9091
15616TIP3    H268340   5.082   4.999   5.813  1.2578 -0.0913 -1.0971
15617TIP3   OH268341   2.660   3.026  13.851  0.0300 -0.1995  0.1108
15617TIP3    H168342   2.718   2.978  13.911 -1.5769  0.5947  2.4449
15617TIP3    H268343   2.696   3.115  13.849  0.0077 -0.1932  0.0079
15618TIP3   OH268344   6.825   6.756   2.878 -0.3461  0.1598 -0.0775
15618TIP3    H168345   6.791   6.682   2.928 -1.3491  0.3597 -0.4392
15618TIP3    H268346   6.796   6.833   2.927 -1.0996  0.3498 -0.8027
15619TIP3   OH268347   1.721   2.266  15.280 -0.0270  0.3524  0.7086
15619TIP3    H168348   1.700   2.295  15.191  1.7170  2.1774  0.8317
15619TIP3    H268349   1.731   2.171  15.272 -1.3344  0.2853 -0.7080
15620TIP3   OH268350   0.563   0.412   0.979  0.8258  0.4077  0.0115
15620TIP3    H168351   0.585   0.488   1.032  0.1201  0.3257  0.4398
15620TIP3    H268352   0.560   0.339   1.041  0.6263  0.1941 -0.2422
15621TIP3   OH268353   2.742   2.406  13.390  0.0455 -0.6102 -0.0432
15621TIP3    H168354   2.792   2.341  13.341  1.3390 -0.3076  0.8195
15621TIP3    H268355   2.773   2.490  13.356  0.9094 -0.3997  1.2066
15622TIP3   OH268356   1.270   2.273   4.968 -0.0655  0.0740  0.4611
15622TIP3    H168357   1.177   2.250   4.965 -1.0257  3.5996 -1.5360
15622TIP3    H268358   1.289   2.311   4.883  2.8905  0.7432  1.2940
15623TIP3   OH268359   4.276   5.631  17.112 -0.4432  0.3304 -0.2134
15623TIP3    H168360   4.363   5.618  17.151 -1.2570  1.3385  2.1022
15623TIP3    H268361   4.276   5.723  17.085 -0.9356  0.4752  0.2583
15624TIP3   OH268362   1.385   3.367  15.201  0.4964 -0.3619  0.8370
15624TIP3    H168363   1.465   3.316  15.203  1.5052  1.0991 -0.0030
15624TIP3    H268364   1.413   3.456  15.223 -1.1280 -0.0621  1.8947
15625TIP3   OH268365   2.665   4.705  15.873  0.3747 -0.3044  0.0936
15625TIP3    H168366   2.690   4.792  15.842  1.1776 -0.6057 -0.1162
15625TIP3    H268367   2.708   4.644  15.813 -0.4454 -0.8511  0.0362
15626TIP3   OH268368   4.494   1.773  14.639 -0.6642  0.5685  0.1825
15626TIP3    H168369   4.504   1.807  14.550  1.9365  0.2357  0.2755
15626TIP3    H268370   4.550   1.829  14.693  0.0693 -0.9524  1.0920
15627TIP3   OH268371   3.261   2.893  16.860  0.2015 -0.0584  0.5045
15627TIP3    H168372   3.345   2.939  16.863 -0.3236  0.9056  0.8114
15627TIP3    H268373   3.227   2.899  16.949 -0.9598  1.0522  0.0118
15628TIP3   OH268374   5.941   6.173   6.321 -0.0175  0.2195  0.2893
15628TIP3    H168375   5.917   6.220   6.401 -2.7565 -1.9692  0.8986
15628TIP3    H268376   6.028   6.138   6.339  0.2762  1.4722  1.4660
15629TIP3   OH268377   5.939   5.779  14.245  0.1604  0.0543 -0.2993
15629TIP3    H168378   5.891   5.738  14.174 -0.6151  1.4635 -0.6295
15629TIP3    H268379   5.922   5.873  14.235  1.2846  0.4156  0.8329
15630TIP3   OH268380   4.075   3.196  13.602  0.4373 -0.1601 -0.1925
15630TIP3    H168381   4.084   3.211  13.696  0.2474 -0.9869 -0.0385
15630TIP3    H268382   4.098   3.104  13.590  0.3860 -0.0771 -0.9434
15631TIP3   OH268383   4.602   6.823   4.816  0.2101  0.3394  0.0125
15631TIP3    H168384   4.659   6.759   4.774 -1.3843  0.2427 -2.2013
15631TIP3    H268385   4.613   6.903   4.764  2.2393  2.0409  2.7723
15632TIP3   OH268386   1.625   3.803  15.290  0.4344 -0.1326 -0.6837
15632TIP3    H168387   1.596   3.867  15.355 -0.3322 -1.6801  0.5530
15632TIP3    H268388   1.566   3.817  15.215 -0.3409 -0.0088 -0.0636
15633TIP3   OH268389   6.001   0.995   1.808  0.8471  0.6746 -0.2252
15633TIP3    H168390   5.943   0.946   1.750 -1.6684 -0.4730  2.9346
15633TIP3    H268391   6.085   0.950   1.801  0.2743 -0.2268 -1.9539
15634TIP3   OH268392   2.277   4.473  14.224 -0.1559 -0.2677 -0.1843
15634TIP3    H168393   2.196   4.429  14.253  1.1425 -1.8019  1.3211
15634TIP3    H268394   2.316   4.412  14.162 -0.5360  0.8752 -1.6016
15635TIP3   OH268395   3.113   3.256   1.265  0.3857 -0.4032  0.0747
15635TIP3    H168396   3.028   3.295   1.248  0.0280 -1.1710  0.0557
15635TIP3    H268397   3.115   3.177   1.211  1.6407  0.2765 -0.9411
15636TIP3   OH268398   3.137   4.621   1.324  0.3517  0.2509  0.2403
15636TIP3    H168399   3.074   4.560   1.363 -0.8456  0.7560 -0.8102
15636TIP3    H268400   3.136   4.697   1.382 -1.7324  1.1714 -0.8452
15637TIP3   OH268401   5.028   1.954   2.022 -0.0013 -0.3889 -0.0307
15637TIP3    H168402   5.057   2.023   1.963 -0.3532 -0.5119 -0.3491
15637TIP3    H268403   4.950   1.989   2.064  0.8652  0.1412  1.1990
15638TIP3   OH268404   4.362   0.655   2.085 -0.0871  0.3717  0.2412
15638TIP3    H168405   4.413   0.609   2.018 -0.6319 -2.1049  1.3879
15638TIP3    H268406   4.273   0.657   2.050 -0.2697 -0.4588  0.6250
15639TIP3   OH268407   3.413   0.208   3.953  0.3177 -0.6179 -0.1816
15639TIP3    H168408   3.333   0.237   3.997  1.5541  2.8206  0.1528
15639TIP3    H268409   3.394   0.219   3.860  0.2479 -0.1523 -0.1173
15640TIP3   OH268410   6.337   0.435  16.685  0.4359  0.1796 -0.1266
15640TIP3    H168411   6.393   0.385  16.626  1.6468  2.4883 -1.0669
15640TIP3    H268412   6.339   0.524  16.649 -1.3418  0.9909  1.6346
15641TIP3   OH268413   1.711   0.355   3.804  0.3902 -0.1881 -0.1101
15641TIP3    H168414   1.701   0.450   3.811 -0.6745 -0.0571 -2.2923
15641TIP3    H268415   1.801   0.342   3.773  0.5932  0.0960  0.3644
15642TIP3   OH268416   1.208   6.638  14.917  0.2581 -0.3398  0.6878
15642TIP3    H168417   1.112   6.647  14.912  0.2308  1.3664  2.9143
15642TIP3    H268418   1.232   6.682  14.998  2.8931 -1.4500  0.5975
15643TIP3   OH268419   4.761   1.004  15.593 -0.3748 -0.5999 -0.5311
15643TIP3    H168420   4.707   1.045  15.660  1.2042  1.1293 -0.2266
15643TIP3    H268421   4.709   1.009  15.513 -0.9327  0.4302 -0.1170
15644TIP3   OH268422   0.480   1.375  12.938  0.2747  0.2681 -0.3646
15644TIP3    H168423   0.548   1.337  12.994 -0.3983  0.9884  0.9752
15644TIP3    H268424   0.526   1.439  12.885  0.5849  1.1457  0.9164
15645TIP3   OH268425   0.412   2.292  14.137  0.0128 -0.0566 -0.1560
15645TIP3    H168426   0.496   2.248  14.120 -1.3453 -2.6120 -0.7716
15645TIP3    H268427   0.419   2.324  14.227  1.8327  0.2908 -0.3848
15646TIP3   OH268428   0.184   4.449  15.608  0.1609 -0.3685 -0.1709
15646TIP3    H168429   0.198   4.419  15.519  1.0880 -1.9940  0.4851
15646TIP3    H268430   0.270   4.481  15.636 -0.1005  0.0373  0.1817
15647TIP3   OH268431   1.877   1.159   6.079  0.4946  0.1135  0.5956
15647TIP3    H168432   1.784   1.182   6.085  0.4749 -0.0159  0.7970
15647TIP3    H268433   1.877   1.064   6.072  0.4032  0.2204 -3.3506
15648TIP3   OH268434   4.075   2.113  14.213 -0.3377  0.6115  0.1782
15648TIP3    H168435   4.028   2.137  14.293  1.9546 -0.6532  2.0440
15648TIP3    H268436   4.167   2.131  14.233  0.3819 -0.3215 -1.9651
15649TIP3   OH268437   1.196   0.313   1.881 -0.0227 -0.5103 -0.2039
15649TIP3    H168438   1.196   0.226   1.840  2.0490 -0.7052  0.0747
15649TIP3    H268439   1.263   0.362   1.833 -0.5895  0.6770  0.1835
15650TIP3   OH268440   6.206   4.698  17.118  0.3241  0.2097  0.1083
15650TIP3    H168441   6.280   4.727  17.170  0.5533  2.3996 -1.2814
15650TIP3    H268442   6.232   4.613  17.082  1.4981  0.2288  0.8914
15651TIP3   OH268443   4.638   0.073   3.762  0.2762 -0.1253 -0.2740
15651TIP3    H168444   4.686  -0.005   3.733 -0.6343 -1.0311  0.5444
15651TIP3    H268445   4.644   0.071   3.857  0.0404  0.6793 -0.2330
15652TIP3   OH268446   4.176   4.924   5.401  0.0772 -0.5084  0.0684
15652TIP3    H168447   4.136   4.975   5.471 -1.1077 -0.9330 -0.2839
15652TIP3    H268448   4.134   4.839   5.405  1.0315 -1.0111 -0.2532
15653TIP3   OH268449   3.876   3.628   3.597  0.0683  0.2107  0.3259
15653TIP3    H168450   3.939   3.596   3.660  2.1219 -2.8551 -2.9163
15653TIP3    H268451   3.830   3.550   3.566 -2.1807  1.8001 -0.6650
15654TIP3   OH268452   3.265   4.844  15.655 -0.1495  0.5703 -0.2091
15654TIP3    H168453   3.247   4.871  15.745  1.0797  0.0407  0.2132
15654TIP3    H268454   3.186   4.867  15.607 -0.7208  1.1058  0.9534
15655TIP3   OH268455   4.753   2.318  13.712 -0.3057  0.4403 -0.1864
15655TIP3    H168456   4.843   2.318  13.679 -0.0089  1.6775  0.5899
15655TIP3    H268457   4.703   2.272  13.644  0.5407  1.6529 -1.7020
15656TIP3   OH268458   6.837   3.807   5.526  0.2340  0.0578  0.4704
15656TIP3    H168459   6.812   3.850   5.608  1.3438  0.3144  0.6818
15656TIP3    H268460   6.930   3.825   5.517  0.3028 -0.7104 -0.4147
15657TIP3   OH268461   3.607   0.419   0.719  0.0141 -0.0987  0.1281
15657TIP3    H168462   3.556   0.338   0.717 -0.0657 -0.0404 -0.4643
15657TIP3    H268463   3.667   0.412   0.644 -0.7180  0.8433 -0.5721
15658TIP3   OH268464   6.693   6.159   4.529  0.4753 -0.0278  0.0171
15658TIP3    H168465   6.606   6.197   4.513  0.8517  0.7826 -0.1164
15658TIP3    H268466   6.707   6.100   4.455 -0.6679 -1.4531  0.8943
15659TIP3   OH268467   3.036   1.401  16.873  0.4617 -0.3912  0.2560
15659TIP3    H168468   3.027   1.490  16.907 -0.0970  0.8635 -2.7991
15659TIP3    H268469   3.130   1.393  16.854  0.3455  0.0301 -0.5456
15660TIP3   OH268470   0.298   3.998  16.679 -0.1955  0.1242 -0.3751
15660TIP3    H168471   0.250   3.922  16.712  0.4979 -0.4113 -0.5652
15660TIP3    H268472   0.241   4.072  16.697  0.0436 -0.1632  1.7987
15661TIP3   OH268473   4.537   0.485  14.273  0.9030  0.3464  0.0440
15661TIP3    H168474   4.548   0.556  14.210 -1.4724 -0.8583 -1.9029
15661TIP3    H268475   4.449   0.451  14.256  0.9858 -1.4543  2.6027
15662TIP3   OH268476   1.466   4.630  11.147 -0.0198 -0.2662 -0.5250
15662TIP3    H168477   1.371   4.628  11.161 -0.0796 -1.3342 -0.9749
15662TIP3    H268478   1.503   4.645  11.234 -0.6400  2.9020 -0.6646
15663TIP3   OH268479   2.062   0.417  16.849  0.3045 -0.2763  0.0957
15663TIP3    H168480   2.083   0.495  16.901 -1.4599 -0.5025  1.2386
15663TIP3    H268481   2.086   0.343  16.906  0.8362 -0.5566 -0.4884
15664TIP3   OH268482   5.017   5.146   2.443 -0.2610  0.0018 -0.5548
15664TIP3    H168483   5.040   5.149   2.536  1.1452 -0.3484 -0.8654
15664TIP3    H268484   5.095   5.111   2.400 -1.0679 -0.3106 -1.8173
15665TIP3   OH268485   4.364   2.596  16.789 -0.0394 -0.0235  0.1651
15665TIP3    H168486   4.354   2.648  16.868 -0.6049 -0.2487  0.2447
15665TIP3    H268487   4.304   2.523  16.800  1.0551 -0.9433  0.2495
15666TIP3   OH268488   3.245   4.136  15.460 -0.0283  0.5684  0.3422
15666TIP3    H168489   3.197   4.086  15.393 -0.4529  0.7371  0.5252
15666TIP3    H268490   3.178   4.173  15.516  0.3286  0.4269  0.8719
15667TIP3   OH268491   5.961   3.442   2.232 -0.0188 -0.5664 -0.0011
15667TIP3    H168492   6.025   3.503   2.197  1.1583 -1.5930  0.2829
15667TIP3    H268493   5.964   3.455   2.327 -0.9204  0.0137 -0.0330
15668TIP3   OH268494   5.757   2.605  10.542  0.0404 -0.2314 -0.0535
15668TIP3    H168495   5.689   2.575  10.602 -1.0935  1.0584 -0.6485
15668TIP3    H268496   5.793   2.683  10.584 -0.5708  0.5193 -0.8975
15669TIP3   OH268497   0.889   0.295   5.423 -1.1486  0.4854 -0.3931
15669TIP3    H168498   0.916   0.216   5.377 -2.3060  0.7060 -1.5110
15669TIP3    H268499   0.957   0.309   5.489  0.0591 -0.3958 -1.4003
15670TIP3   OH268500   0.279   1.735   1.059 -0.3814 -0.0418  0.1558
15670TIP3    H168501   0.237   1.683   0.990 -1.3209  2.3147 -1.1587
15670TIP3    H268502   0.272   1.826   1.029  1.8940  0.8396  1.9600
15671TIP3   OH268503   5.722   0.946  15.513  0.0864 -1.2862 -0.4613
15671TIP3    H168504   5.719   0.861  15.556  0.3600 -0.6453  0.8883
15671TIP3    H268505   5.799   0.941  15.457  1.0532 -1.4119  0.8167
15672TIP3   OH268506   1.051   5.128  13.452  0.3788 -0.2285 -0.0333
15672TIP3    H168507   1.129   5.074  13.439  0.1548 -0.5866  0.1074
15672TIP3    H268508   1.078   5.194  13.516  0.0779 -1.4140  1.3935
15673TIP3   OH268509   2.987   3.840  14.540  0.3810 -0.3927  0.4792
15673TIP3    H168510   2.908   3.837  14.487  0.8692 -1.0470 -0.2395
15673TIP3    H268511   3.058   3.846  14.476  0.8340  4.0390  1.0838
15674TIP3   OH268512   1.581   5.428   2.009  0.2956 -0.1219  0.0501
15674TIP3    H168513   1.565   5.336   1.988  1.3848 -0.7702  1.8045
15674TIP3    H268514   1.634   5.460   1.936  0.3526 -1.0420 -0.3371
15675TIP3   OH268515   3.033   3.527  12.938 -0.4440 -0.1931  0.4865
15675TIP3    H168516   3.020   3.437  12.969  0.3344  0.1735  1.9760
15675TIP3    H268517   3.107   3.522  12.878 -0.1407 -0.4866  0.8847
15676TIP3   OH268518   0.868   5.453   2.412 -0.1151  0.6682 -0.0844
15676TIP3    H168519   0.887   5.468   2.504 -0.6605  1.9326 -0.1511
15676TIP3    H268520   0.948   5.415   2.376 -0.9143 -2.9140  1.5473
15677TIP3   OH268521   1.812   0.025   1.868 -0.3031  0.3280  0.0211
15677TIP3    H168522   1.832   0.114   1.896 -0.9428  0.5938 -0.3310
15677TIP3    H268523   1.896  -0.012   1.840  0.3505  0.0785  2.1711
15678TIP3   OH268524   2.447   0.460   4.002  0.1528  0.1107  0.3038
15678TIP3    H168525   2.526   0.511   3.983 -0.3954  0.6678 -0.5929
15678TIP3    H268526   2.473   0.369   3.988  1.1717  0.1055  2.0066
15679TIP3   OH268527   4.035   6.673   3.259  0.4333 -0.6614  0.2956
15679TIP3    H168528   4.008   6.633   3.341 -3.0097  0.9691  0.1247
15679TIP3    H268529   3.971   6.643   3.195  0.7691  1.0607 -0.9161
15680TIP3   OH268530   2.831   6.483   2.285 -0.5640 -0.2056 -0.0056
15680TIP3    H168531   2.781   6.450   2.360  1.3234 -0.5951  1.1520
15680TIP3    H268532   2.789   6.442   2.209 -1.4280 -1.2488  0.9885
15681TIP3   OH268533   0.119   6.675  13.247 -0.4624 -0.4698  0.6763
15681TIP3    H168534   0.124   6.619  13.169 -0.3801  0.0589  0.2982
15681TIP3    H268535   0.039   6.648  13.291 -1.1210  0.0025 -0.1948
15682TIP3   OH268536   2.995   4.940  11.988 -0.1500  0.0515 -0.6452
15682TIP3    H168537   3.084   4.972  11.974  0.5524 -1.5110  0.0354
15682TIP3    H268538   2.970   4.974  12.074 -0.0992  0.2572 -0.7123
15683TIP3   OH268539   2.514   3.216  13.430  0.1824  0.6066  0.7800
15683TIP3    H168540   2.431   3.170  13.435 -0.6130  1.8810 -0.0584
15683TIP3    H268541   2.528   3.231  13.336  0.7627  1.4106  0.9785
15684TIP3   OH268542   4.877   4.903  12.378 -0.0725 -0.5852 -0.2669
15684TIP3    H168543   4.789   4.896  12.415  0.2932 -1.7872  0.4207
15684TIP3    H268544   4.872   4.856  12.295  0.9178 -4.5657  1.7016
15685TIP3   OH268545   3.122   4.806   2.536 -0.3495  0.3112  0.4322
15685TIP3    H168546   3.051   4.864   2.564 -1.7595 -1.2327  0.2218
15685TIP3    H268547   3.119   4.733   2.599  0.7555 -0.0197  0.1271
15686TIP3   OH268548   1.269   4.701  10.797 -0.2019 -0.1291  0.1565
15686TIP3    H168549   1.236   4.791  10.794 -0.0776 -0.1201 -1.2428
15686TIP3    H268550   1.191   4.647  10.799 -0.3297 -0.0518 -1.5018
15687TIP3   OH268551   1.316   3.573  14.336  0.1626 -1.1829 -0.4247
15687TIP3    H168552   1.351   3.625  14.263  3.4117 -3.9356 -1.0408
15687TIP3    H268553   1.336   3.483  14.313 -2.7995 -2.5795  1.8634
15688TIP3   OH268554   2.253   1.055   5.566 -0.0219 -0.1133 -0.1932
15688TIP3    H168555   2.344   1.054   5.596  0.8504  0.3985 -2.5563
15688TIP3    H268556   2.245   1.136   5.516 -0.7100 -1.6755 -2.8413
15689TIP3   OH268557   0.747   1.109  13.379  0.1411  0.2001  0.2482
15689TIP3    H168558   0.704   1.192  13.359  0.8427  0.8430  1.2901
15689TIP3    H268559   0.770   1.115  13.472  0.1034 -1.2156  0.3789
15690TIP3   OH268560   4.948   2.309  12.100  0.2397 -0.7401  0.2419
15690TIP3    H168561   4.963   2.218  12.128  0.7105 -0.7163  0.0656
15690TIP3    H268562   5.035   2.344  12.085  0.0085 -0.6842 -1.0595
15691TIP3   OH268563   4.380   4.063  14.866 -0.0251  0.7275 -0.2821
15691TIP3    H168564   4.463   4.053  14.821 -0.2794 -0.7265 -0.4773
15691TIP3    H268565   4.322   3.998  14.825 -0.5308  0.0030  1.4868
15692TIP3   OH268566   5.338   1.639  15.715 -0.0396  0.1489 -0.6826
15692TIP3    H168567   5.352   1.719  15.664 -3.6960  0.4632 -1.4927
15692TIP3    H268568   5.336   1.669  15.806 -1.1748  1.0100 -0.9641
15693TIP3   OH268569   3.148   6.035  13.257  0.0591 -0.0060 -0.2243
15693TIP3    H168570   3.223   6.069  13.209  1.3641 -1.1707  0.8673
15693TIP3    H268571   3.182   5.957  13.301 -2.7457 -2.9591 -2.7727
15694TIP3   OH268572   6.258   1.688   3.284  0.6001 -0.8091 -0.2338
15694TIP3    H168573   6.322   1.734   3.337 -2.4807  1.6958  1.6750
15694TIP3    H268574   6.233   1.751   3.216 -1.9367 -0.4706  0.9136
15695TIP3   OH268575   1.846   1.471   1.493  0.5971 -0.4424  0.1991
15695TIP3    H168576   1.782   1.514   1.436  4.1222  0.8909 -3.2035
15695TIP3    H268577   1.832   1.510   1.579 -3.4260 -0.7364 -0.1446
15696TIP3   OH268578   0.100   1.538   5.144 -0.5810  0.3853 -0.3601
15696TIP3    H168579   0.103   1.633   5.151 -1.8588  0.5340 -1.5241
15696TIP3    H268580   0.009   1.518   5.124 -0.3836 -1.1178  0.1148
15697TIP3   OH268581   0.193   1.960  14.525 -0.0185 -0.3505 -0.4195
15697TIP3    H168582   0.187   1.869  14.555  0.1952 -0.4553 -0.6827
15697TIP3    H268583   0.105   1.981  14.493 -0.2552 -0.2260  0.2975
15698TIP3   OH268584   4.010   5.698   4.105 -0.3367 -0.8776  0.5419
15698TIP3    H168585   3.996   5.788   4.076  1.7211 -0.3008  1.1551
15698TIP3    H268586   4.027   5.649   4.025  1.4525 -0.0786  0.3766
15699TIP3   OH268587   6.201   5.755  14.596 -0.2538  0.0431 -0.6344
15699TIP3    H168588   6.120   5.803  14.582 -0.0995  0.8727  1.0354
15699TIP3    H268589   6.257   5.815  14.646  1.3223 -0.5782 -1.5567
15700TIP3   OH268590   0.644   1.572   1.521 -0.0447  0.4474 -0.2099
15700TIP3    H168591   0.565   1.612   1.557  0.3713  0.0062  1.2401
15700TIP3    H268592   0.658   1.618   1.438 -0.1344  2.6280  0.9139
15701TIP3   OH268593   2.621   5.010  17.049  0.4313 -0.1302 -0.3279
15701TIP3    H168594   2.611   5.105  17.038  0.1401 -0.1919 -0.6183
15701TIP3    H268595   2.532   4.976  17.044  0.6835 -0.6638 -2.6470
15702TIP3   OH268596   0.965   5.549  12.158 -0.0969 -0.4619  0.5484
15702TIP3    H168597   1.036   5.523  12.217 -1.1287 -0.7740  1.6983
15702TIP3    H268598   0.974   5.643  12.149  1.9371 -0.7453 -1.3392
15703TIP3   OH268599   0.026   1.767  15.021 -0.4635 -0.2731  1.1316
15703TIP3    H168600  -0.007   1.697  14.965 -1.4971  1.2903 -0.3159
15703TIP3    H268601   0.120   1.767  15.006 -0.4928 -1.1284  0.9053
15704TIP3   OH268602   1.054   0.474   1.569 -0.0515 -0.5065  0.1332
15704TIP3    H168603   1.120   0.460   1.637  1.6397  0.5280 -1.2169
15704TIP3    H268604   1.057   0.568   1.551  0.8519 -0.9490 -2.5450
15705TIP3   OH268605   5.595   4.832  14.173 -0.0473 -0.2077  0.1214
15705TIP3    H168606   5.651   4.802  14.101  0.4899 -2.5514  1.4125
15705TIP3    H268607   5.521   4.772  14.173 -2.3272  2.4203 -1.0982
15706TIP3   OH268608   4.793   2.103   1.291  0.3875 -0.2080  0.1899
15706TIP3    H168609   4.832   2.036   1.348  0.0778 -1.0622 -0.5667
15706TIP3    H268610   4.751   2.052   1.221  0.8579  0.8028 -0.8590
15707TIP3   OH268611   0.469   0.040  15.527  0.1252  0.4128 -0.2172
15707TIP3    H168612   0.446   0.049  15.435 -2.8449 -0.2230  0.3523
15707TIP3    H268613   0.394   0.077  15.574  0.8313 -0.7262  1.9302
15708TIP3   OH268614   0.920   2.817  11.036 -0.5779  0.6745  0.4340
15708TIP3    H168615   0.980   2.776  10.974  1.2565 -0.3341  2.7008
15708TIP3    H268616   0.966   2.896  11.066 -2.0975  1.9819 -0.5301
15709TIP3   OH268617   5.537   4.844   1.224 -0.1792  0.7668  0.2409
15709TIP3    H168618   5.465   4.822   1.284 -0.5963  1.5371  0.0421
15709TIP3    H268619   5.493   4.868   1.142  0.4060 -0.7791 -0.5552
15710TIP3   OH268620   6.176   5.906  10.957 -0.6039  0.0229  0.2110
15710TIP3    H168621   6.255   5.918  11.010 -0.6581 -0.5498  0.4308
15710TIP3    H268622   6.137   5.993  10.952 -0.6883  0.0640  1.2672
15711TIP3   OH268623   4.998   2.138  13.652 -0.5564 -0.1677  0.2906
15711TIP3    H168624   5.027   2.097  13.571  0.7049  0.1877  0.5490
15711TIP3    H268625   4.959   2.066  13.703  0.0244 -0.6919  0.0047
15712TIP3   OH268626   1.610   1.338  12.926 -0.1297 -0.6367  0.2468
15712TIP3    H168627   1.613   1.318  13.020 -0.6709 -1.2233  0.1488
15712TIP3    H268628   1.560   1.265  12.888  0.9673 -0.9622 -0.6427
15713TIP3   OH268629   4.853   2.735   2.226  0.3522 -0.0080  0.0157
15713TIP3    H168630   4.783   2.683   2.265 -0.9037  0.9091 -0.9284
15713TIP3    H268631   4.840   2.823   2.263 -1.1433  1.0093 -2.6431
15714TIP3   OH268632   1.755   5.303  14.586  0.2596  0.1332  0.1511
15714TIP3    H168633   1.667   5.289  14.621 -0.3801 -0.2716 -1.5167
15714TIP3    H268634   1.741   5.360  14.510  1.3529 -0.4205 -0.4800
15715TIP3   OH268635   5.874   3.572   5.951  0.0531  0.9082  0.0039
15715TIP3    H168636   5.901   3.579   6.042  1.4854  1.1030 -0.4102
15715TIP3    H268637   5.907   3.487   5.923 -0.5352  0.7705 -0.3043
15716TIP3   OH268638   3.771   1.804  14.771  0.0324 -0.2172  0.3701
15716TIP3    H168639   3.742   1.870  14.834 -1.8822 -1.9128  1.3632
15716TIP3    H268640   3.786   1.725  14.824  1.3914 -0.8549 -0.9019
15717TIP3   OH268641   2.842   2.454  14.059 -0.1338  0.5282 -0.4317
15717TIP3    H168642   2.796   2.393  14.002 -0.6950  0.3693  0.1741
15717TIP3    H268643   2.803   2.440  14.145  2.3884 -1.0114  0.5671
15718TIP3   OH268644   2.010   4.474  12.741  0.1610  0.2974 -0.6785
15718TIP3    H168645   2.024   4.507  12.652  0.2610 -0.7831 -1.0779
15718TIP3    H268646   2.082   4.411  12.754 -1.2775 -1.4416 -0.7972
15719TIP3   OH268647   0.693   1.508  15.435  0.8804 -0.1035  0.2388
15719TIP3    H168648   0.661   1.522  15.524 -0.4856 -1.4663 -0.0087
15719TIP3    H268649   0.789   1.510  15.444  0.7705  0.9506  1.5174
15720TIP3   OH268650   3.928   0.928   1.943 -0.2904 -0.1392 -0.0054
15720TIP3    H168651   3.909   0.837   1.920 -0.6060 -0.0392 -0.1582
15720TIP3    H268652   3.952   0.925   2.035  0.2092 -0.4441 -0.1449
15721TIP3   OH268653   5.778   5.427   1.666 -0.2112 -0.5959  0.4688
15721TIP3    H168654   5.854   5.425   1.724 -0.8466  0.4103  1.3782
15721TIP3    H268655   5.737   5.342   1.677 -0.6351 -0.2222  1.9480
15722TIP3   OH268656   4.715   4.922   3.437 -0.2210  0.7115  0.2615
15722TIP3    H168657   4.779   4.862   3.399 -0.1522  0.5037  0.6931
15722TIP3    H268658   4.669   4.869   3.503  1.4703  1.6966  2.3880
15723TIP3   OH268659   5.093   0.051   1.962  0.1927 -0.2351 -0.1626
15723TIP3    H168660   5.135   0.086   1.883  1.4770 -0.0654  0.5700
15723TIP3    H268661   5.013   0.010   1.930 -0.3058  1.5256 -1.3040
15724TIP3   OH268662   0.361   3.221  16.917  0.0250 -0.4211  0.3281
15724TIP3    H168663   0.438   3.177  16.954 -1.4523 -1.2825  2.5941
15724TIP3    H268664   0.351   3.182  16.830  0.3416 -2.6896  1.2262
15725TIP3   OH268665   2.801   2.775  11.894  0.7288 -0.3586 -0.2215
15725TIP3    H168666   2.862   2.848  11.900 -0.7227  0.8103  1.1086
15725TIP3    H268667   2.817   2.724  11.973  0.6476 -0.5789 -0.3464
15726TIP3   OH268668   4.422   3.928   5.638  0.2203 -0.3930  0.0176
15726TIP3    H168669   4.361   3.952   5.708 -0.0383 -1.2787  0.1065
15726TIP3    H268670   4.368   3.929   5.558  0.2787 -0.3887 -0.0221
15727TIP3   OH268671   0.203   3.277  10.745  0.1812  0.0509  0.0310
15727TIP3    H168672   0.246   3.331  10.811 -2.1000  0.7037  1.0921
15727TIP3    H268673   0.190   3.337  10.671  0.3275  0.0933  0.0394
15728TIP3   OH268674   2.809   6.153   4.237 -0.5747  0.3285  0.7554
15728TIP3    H168675   2.815   6.126   4.329 -1.6324 -0.8072  0.5250
15728TIP3    H268676   2.785   6.073   4.190 -0.0724  0.8963 -0.5214
15729TIP3   OH268677   2.133   3.166  12.064 -0.3572 -0.2979  0.4301
15729TIP3    H168678   2.061   3.179  12.002 -1.0330 -1.4569  0.9263
15729TIP3    H268679   2.107   3.216  12.141 -0.9963 -1.2575  0.8620
15730TIP3   OH268680   3.886   0.462   1.423 -0.0055 -0.0773 -0.0533
15730TIP3    H168681   3.892   0.539   1.480 -2.5664  0.7129 -0.6852
15730TIP3    H268682   3.857   0.498   1.338 -0.0152 -1.6078 -0.7241
15731TIP3   OH268683   2.690   4.425   0.751 -0.5446 -0.2832 -0.0900
15731TIP3    H168684   2.668   4.510   0.712  0.4683  0.8101  1.5628
15731TIP3    H268685   2.640   4.424   0.833  0.2521 -0.8077  0.4014
15732TIP3   OH268686   5.699   5.260   5.584 -0.4008  0.8345 -0.0293
15732TIP3    H168687   5.747   5.339   5.557 -0.4731  0.7206 -0.4914
15732TIP3    H268688   5.729   5.192   5.524 -0.1675  0.4515  0.5133
15733TIP3   OH268689   1.339   0.335   0.547 -0.4601 -0.5691 -0.5744
15733TIP3    H168690   1.298   0.378   0.622 -0.3853 -1.4358 -0.0104
15733TIP3    H268691   1.384   0.405   0.500  0.0348 -0.0968  0.5528
15734TIP3   OH268692   4.908   6.484   5.191  0.0212 -0.2560 -0.5416
15734TIP3    H168693   5.000   6.501   5.209  0.5052 -0.9377 -2.1797
15734TIP3    H268694   4.876   6.441   5.270  0.7502  1.1236  0.5556
15735TIP3   OH268695   5.312   5.572   3.170 -0.1494  0.3917  0.1389
15735TIP3    H168696   5.234   5.582   3.224  0.0622  0.9062  0.3497
15735TIP3    H268697   5.355   5.493   3.203 -0.4126  0.2904  0.2349
15736TIP3   OH268698   0.121   0.818  13.366  0.3655 -0.4715  0.5524
15736TIP3    H168699   0.192   0.842  13.427 -1.1638  2.3824  1.4092
15736TIP3    H268700   0.125   0.885  13.297 -2.1867  0.6075  1.3176
15737TIP3   OH268701   6.301   1.030  14.159 -0.3088  0.0957 -0.7463
15737TIP3    H168702   6.374   1.063  14.211 -0.4554 -1.0382  0.2339
15737TIP3    H268703   6.228   1.026  14.221 -1.0552  0.6581 -1.5642
15738TIP3   OH268704   3.780   3.709   2.612  0.3950  0.3299 -0.6044
15738TIP3    H168705   3.832   3.689   2.535  1.9580  1.5600  0.0620
15738TIP3    H268706   3.764   3.624   2.653  1.1746 -0.1610 -1.2850
15739TIP3   OH268707   3.554   6.676  11.334  0.3963 -0.1591  0.5321
15739TIP3    H168708   3.462   6.653  11.329  0.2594  0.5027 -0.3568
15739TIP3    H268709   3.566   6.707  11.423 -0.5176  0.7748  0.3580
15740TIP3   OH268710   0.443   1.801  17.029 -0.1191  0.6577 -0.8903
15740TIP3    H168711   0.508   1.760  16.973 -0.8191 -0.1242 -1.1546
15740TIP3    H268712   0.466   1.773  17.118 -0.4219 -0.0944 -1.0409
15741TIP3   OH268713   4.872   4.070   0.643 -0.3012  0.6862  1.0292
15741TIP3    H168714   4.902   3.981   0.625  0.0433  0.6946  1.5487
15741TIP3    H268715   4.918   4.096   0.723 -1.9488  0.5824  2.0510
15742TIP3   OH268716   3.241   0.724   2.251  0.4518  0.3380 -0.1531
15742TIP3    H168717   3.184   0.711   2.326  1.8479 -1.4817  0.6821
15742TIP3    H268718   3.201   0.672   2.181  1.5067 -1.7266  0.7077
15743TIP3   OH268719   1.300   5.213   2.472  0.5340  0.6179 -0.0298
15743TIP3    H168720   1.376   5.208   2.414  0.3284  1.1195 -0.3500
15743TIP3    H268721   1.336   5.241   2.556  0.9723 -1.0421  0.3725
15744TIP3   OH268722   5.383   1.192  11.785 -0.3281  0.0377 -0.1754
15744TIP3    H168723   5.468   1.161  11.818 -0.8236 -0.8727  0.2622
15744TIP3    H268724   5.379   1.160  11.695  0.4148  1.3389 -0.7094
15745TIP3   OH268725   0.579   2.390  16.765  0.0706  0.0721 -1.1451
15745TIP3    H168726   0.667   2.355  16.781 -0.4275 -0.3401  1.0380
15745TIP3    H268727   0.591   2.485  16.762  0.7933 -0.0421 -2.5236
15746TIP3   OH268728   2.430   5.915  14.453  0.2077 -0.6050 -0.1049
15746TIP3    H168729   2.370   5.896  14.381 -1.5656 -2.1951  1.6481
15746TIP3    H268730   2.390   5.989  14.499  0.9227 -0.0854 -0.3032
15747TIP3   OH268731   0.506   0.909  10.860 -0.0888  0.2375 -0.4249
15747TIP3    H168732   0.526   0.816  10.861 -0.9922  0.0219 -0.9705
15747TIP3    H268733   0.530   0.941  10.947 -0.8056 -0.7353  0.1456
15748TIP3   OH268734   0.943   6.781  12.837 -0.4756 -0.1003  0.1898
15748TIP3    H168735   0.989   6.811  12.759 -4.5902 -0.8957 -2.8339
15748TIP3    H268736   0.900   6.860  12.871 -1.3307 -0.3106 -0.3731
15749TIP3   OH268737   2.845   2.704  13.986 -0.2360 -0.1695 -0.2426
15749TIP3    H168738   2.848   2.609  13.996 -2.0458 -0.3046 -0.5951
15749TIP3    H268739   2.795   2.735  14.062 -0.9120  0.3414 -0.8804
15750TIP3   OH268740   0.626   4.345  14.663 -0.1954 -0.1462 -0.1923
15750TIP3    H168741   0.600   4.435  14.682 -0.4383 -0.0988 -0.7134
15750TIP3    H268742   0.622   4.300  14.748  0.0221  0.3524  0.0850
15751TIP3   OH268743   1.518   1.610  15.249  0.2252 -0.6362 -0.0410
15751TIP3    H168744   1.577   1.535  15.240  1.6033  0.1642  1.6578
15751TIP3    H268745   1.542   1.669  15.177  1.1828 -0.5377  0.3516
15752TIP3   OH268746   1.991   4.733   5.373 -0.3542  0.2057 -0.4493
15752TIP3    H168747   1.899   4.706   5.376 -0.5472  0.2560 -3.3548
15752TIP3    H268748   1.998   4.789   5.296  1.7132  2.0354  0.9264
15753TIP3   OH268749   4.554   2.137   4.702 -0.1400  0.0363  0.4179
15753TIP3    H168750   4.559   2.232   4.693 -0.2741  0.0482  0.4741
15753TIP3    H268751   4.502   2.122   4.781  1.8196 -0.0581  1.7636
15754TIP3   OH268752   1.655   6.740   0.715 -0.6787 -0.0085  0.3092
15754TIP3    H168753   1.633   6.710   0.627 -0.5642  0.3416  0.1558
15754TIP3    H268754   1.604   6.821   0.725  1.1978  1.3450 -0.4155
15755TIP3   OH268755   0.184   6.510  15.457 -0.1327  0.4898  0.1443
15755TIP3    H168756   0.178   6.598  15.422  0.7765  0.5051  0.0050
15755TIP3    H268757   0.261   6.511  15.514  0.0010 -0.2594 -0.0023
15756TIP3   OH268758   3.550   2.384  12.627  0.5729 -0.4390  0.0492
15756TIP3    H168759   3.496   2.386  12.705  1.8367  0.5401  0.9456
15756TIP3    H268760   3.557   2.475  12.600  3.1429 -0.2719  1.0030
15757TIP3   OH268761   5.391   5.498   4.331 -0.9293  0.3212  0.5026
15757TIP3    H168762   5.368   5.499   4.238 -1.0780  1.3826  0.5334
15757TIP3    H268763   5.464   5.560   4.338 -1.6074  1.0703  1.2446
15758TIP3   OH268764   6.587   4.115   4.134  0.5029  0.8742  0.2525
15758TIP3    H168765   6.625   4.085   4.051 -1.4850 -0.1298 -0.3525
15758TIP3    H268766   6.653   4.094   4.200  0.2747 -2.7761 -0.4527
15759TIP3   OH268767   4.766   3.789  17.083  0.4208  0.1215  0.7160
15759TIP3    H168768   4.789   3.708  17.038  2.1246  0.1403  1.4640
15759TIP3    H268769   4.710   3.761  17.155 -0.1247 -0.2212  0.1633
15760TIP3   OH268770   4.250   3.382  16.830  0.5022  0.5274  0.0332
15760TIP3    H168771   4.214   3.371  16.742 -0.3917 -0.1741  0.4703
15760TIP3    H268772   4.175   3.370  16.889  1.1476  0.6323  0.9050
15761TIP3   OH268773   2.684   1.774  15.854 -0.2722  0.2412  0.3245
15761TIP3    H168774   2.588   1.780  15.858 -0.2927  1.0010 -1.0685
15761TIP3    H268775   2.701   1.684  15.824 -0.5896  0.5114 -0.6818
15762TIP3   OH268776   5.744   3.250   5.870  0.0743 -0.3962 -0.3445
15762TIP3    H168777   5.753   3.250   5.966 -0.5027 -0.1123 -0.2887
15762TIP3    H268778   5.760   3.340   5.844  1.2454 -0.6705 -0.6223
15763TIP3   OH268779   2.730   2.956   0.437  0.1771  0.1205 -0.1364
15763TIP3    H168780   2.654   2.962   0.494 -0.4534  3.0387 -1.1242
15763TIP3    H268781   2.793   3.017   0.474  1.3079 -0.8174 -0.4460
15764TIP3   OH268782   2.811   0.954  16.877  0.7663 -0.4165 -0.4937
15764TIP3    H168783   2.791   0.953  16.971  0.7857  0.7436 -0.4652
15764TIP3    H268784   2.801   0.863  16.849  0.2402 -0.6802  0.5232
15765TIP3   OH268785   0.611   0.158   2.232  0.3609 -0.1694  0.4927
15765TIP3    H168786   0.615   0.241   2.278 -1.0738 -0.3616  1.0129
15765TIP3    H268787   0.649   0.176   2.147  0.5241  0.8971  0.7748
15766TIP3   OH268788   4.016   1.984   2.232 -0.0148 -0.3717 -0.2255
15766TIP3    H168789   4.021   2.061   2.175 -0.6634 -0.6362 -0.6597
15766TIP3    H268790   3.925   1.956   2.225 -0.0341 -0.5572  0.7571
15767TIP3   OH268791   3.208   3.897   1.649 -0.7190  0.5817 -0.1221
15767TIP3    H168792   3.169   3.842   1.581  1.4301  1.0577 -1.8138
15767TIP3    H268793   3.271   3.952   1.603  0.4863  1.2541  2.2009
15768TIP3   OH268794   4.308   2.918   4.147  0.1293 -0.1607 -0.4915
15768TIP3    H168795   4.320   2.892   4.238  1.2677 -0.7669 -0.7924
15768TIP3    H268796   4.329   2.839   4.096 -0.5262  0.1549 -1.2841
15769TIP3   OH268797   0.450   6.059   3.089 -0.4294  0.2383  0.4262
15769TIP3    H168798   0.443   6.007   3.169 -1.3958  1.5148  1.1935
15769TIP3    H268799   0.542   6.050   3.064 -0.0702 -0.0795  1.7503
15770TIP3   OH268800   4.607   1.855  16.719  0.0033 -0.3530 -0.1073
15770TIP3    H168801   4.654   1.804  16.652  0.1842 -0.0727 -0.1984
15770TIP3    H268802   4.516   1.830  16.708  0.1795 -1.2723  0.3880
15771TIP3   OH268803   1.381   5.080  11.328 -0.0258  0.3955  0.7000
15771TIP3    H168804   1.382   5.176  11.329 -0.3349  0.4320 -0.7572
15771TIP3    H268805   1.293   5.058  11.297  0.2945 -0.3529  0.3197
15772TIP3   OH268806   2.192   2.286   3.915 -0.0024 -0.3121  0.5628
15772TIP3    H168807   2.259   2.293   3.847 -1.2189 -0.8031 -0.7301
15772TIP3    H268808   2.200   2.196   3.946 -1.4398 -1.0904 -1.1385
15773TIP3   OH268809   1.978   5.234  12.566 -0.1029 -0.1242 -0.2240
15773TIP3    H168810   1.884   5.215  12.571  0.0899 -1.1006 -0.0627
15773TIP3    H268811   1.989   5.315  12.615 -0.6861 -0.6897  0.8894
15774TIP3   OH268812   3.872   1.488  16.682  0.4171 -0.5560  0.1413
15774TIP3    H168813   3.956   1.443  16.689  0.2258 -0.9808 -0.2796
15774TIP3    H268814   3.857   1.495  16.588  0.2762  0.0794  0.2046
15775TIP3   OH268815   6.772   3.014  11.123 -0.5065  0.0588  0.0681
15775TIP3    H168816   6.820   3.096  11.131 -0.1850  0.1844 -2.3702
15775TIP3    H268817   6.833   2.948  11.157 -0.3020  0.6768  0.9389
15776TIP3   OH268818   2.714   6.538   5.746 -0.6362 -0.7635  0.1521
15776TIP3    H168819   2.806   6.562   5.737 -0.7071  0.6215  2.2823
15776TIP3    H268820   2.668   6.599   5.689 -0.3847  0.3952  1.1412
15777TIP3   OH268821   5.851   5.191  14.485  0.0600 -0.3151  0.5491
15777TIP3    H168822   5.809   5.262  14.436  2.2518  1.5194  1.1324
15777TIP3    H268823   5.779   5.143  14.525 -1.5533  1.1292 -0.5124
15778TIP3   OH268824   5.733   1.795  14.279  0.0257 -0.1230 -0.2577
15778TIP3    H168825   5.664   1.768  14.339 -0.1087  0.2801 -0.2299
15778TIP3    H268826   5.768   1.712  14.244 -0.3633 -0.3307 -0.1588
15779TIP3   OH268827   0.355   3.954   0.016  0.0313  0.4484  0.2448
15779TIP3    H168828   0.309   3.932   0.097 -1.7092  1.8969 -0.2899
15779TIP3    H268829   0.391   3.871  -0.014 -0.3098 -0.3348  1.8697
15780TIP3   OH268830   1.227   3.115  14.554 -0.4803 -0.0258 -0.3540
15780TIP3    H168831   1.208   3.198  14.509 -0.2020  0.1763 -0.1082
15780TIP3    H268832   1.278   3.141  14.631  0.0640 -0.4713 -0.5552
15781TIP3   OH268833   0.116   0.485   5.612 -0.5523 -0.2890 -0.4441
15781TIP3    H168834   0.157   0.571   5.601 -1.6284  0.3587  0.4205
15781TIP3    H268835   0.136   0.439   5.530  0.3588  0.6384 -0.7677
15782TIP3   OH268836   4.546   6.345   4.148 -0.0286  0.4020 -0.1645
15782TIP3    H168837   4.526   6.337   4.242 -0.5321  1.2015 -0.1970
15782TIP3    H268838   4.608   6.274   4.131  0.3140  0.4451  0.8439
15783TIP3   OH268839   1.877   1.466   0.790  0.4241 -0.4392 -0.7547
15783TIP3    H168840   1.931   1.482   0.712  0.2301 -2.2886 -1.3168
15783TIP3    H268841   1.813   1.401   0.761  0.0100 -0.7565  0.8248
15784TIP3   OH268842   3.463   4.266   0.346  0.9528 -0.1056 -0.2081
15784TIP3    H168843   3.503   4.306   0.269  0.6890 -3.1059 -2.0633
15784TIP3    H268844   3.531   4.209   0.381  0.1824 -0.8511  0.0998
15785TIP3   OH268845   2.933   3.346  13.206  0.5318  0.0807  0.3624
15785TIP3    H168846   2.844   3.357  13.170  0.8693 -3.1761 -1.9064
15785TIP3    H268847   2.954   3.432  13.243 -2.9049  1.4800 -0.4819
15786TIP3   OH268848   0.852   6.604  15.758  0.7730  0.1527  0.4443
15786TIP3    H168849   0.900   6.581  15.837  0.5105  0.6303  0.7514
15786TIP3    H268850   0.784   6.537  15.751  0.1673  0.6718  1.1913
15787TIP3   OH268851   0.722   5.566   4.268  0.2749  0.0613 -0.3239
15787TIP3    H168852   0.736   5.606   4.182  1.0417 -1.0416 -0.7473
15787TIP3    H268853   0.700   5.475   4.248 -3.7718  0.6762  0.4951
15788TIP3   OH268854   6.191   3.869  12.679  0.2845 -0.4968 -0.3494
15788TIP3    H168855   6.132   3.879  12.754  0.7709 -0.2622  0.0105
15788TIP3    H268856   6.190   3.955  12.636 -2.4038 -1.4284 -2.4709
15789TIP3   OH268857   1.714   1.007   4.675 -0.2250  0.2625 -0.2379
15789TIP3    H168858   1.675   0.923   4.696  0.3380 -0.3070 -1.3541
15789TIP3    H268859   1.741   0.999   4.583  2.9417  0.4273  0.5561
15790TIP3   OH268860   0.871   5.861   1.947 -0.1576 -0.1924 -0.2732
15790TIP3    H168861   0.877   5.909   1.865  0.3488  0.7109  0.2769
15790TIP3    H268862   0.778   5.868   1.972  0.0867  1.3883  0.3039
15791TIP3   OH268863   5.476   5.012  11.027 -0.2596 -0.0577 -0.5381
15791TIP3    H168864   5.571   5.026  11.037 -0.3714 -0.1276  0.8469
15791TIP3    H268865   5.469   4.927  10.982  0.3378 -0.1739 -0.4251
15792TIP3   OH268866   3.322   1.581   5.649 -0.0921 -0.2663  0.2833
15792TIP3    H168867   3.337   1.539   5.564  3.0909  1.4094 -0.1281
15792TIP3    H268868   3.234   1.618   5.642  0.0421 -0.2597 -2.2745
15793TIP3   OH268869   6.393   2.881   1.526  0.3926 -0.3187  0.2721
15793TIP3    H168870   6.369   2.946   1.461  2.2796 -0.4203 -0.5763
15793TIP3    H268871   6.327   2.892   1.596  0.0487  1.7681 -0.3074
15794TIP3   OH268872   3.131   0.946  11.840  0.2040  0.5977 -0.1716
15794TIP3    H168873   3.112   0.961  11.748  1.1437  0.3055 -0.4302
15794TIP3    H268874   3.140   0.851  11.847 -1.0940  0.5019  0.4880
15795TIP3   OH268875   2.744   5.649   6.029 -0.2948 -0.0329  0.2579
15795TIP3    H168876   2.708   5.574   6.076 -1.8296  0.4853 -0.0542
15795TIP3    H268877   2.675   5.676   5.969  1.2446 -0.0532 -1.6412
15796TIP3   OH268878   2.716   5.150   5.883  0.1292 -0.4722  0.2496
15796TIP3    H168879   2.781   5.080   5.877 -0.5537 -1.1280  0.4706
15796TIP3    H268880   2.633   5.108   5.865 -0.0948  0.6546 -1.6041
15797TIP3   OH268881   5.354   5.972   5.322  0.3602 -0.7250  0.7057
15797TIP3    H168882   5.313   5.889   5.345  1.2084 -0.8538  1.8425
15797TIP3    H268883   5.442   5.948   5.294  0.2101 -0.3049 -0.1842
15798TIP3   OH268884   5.048   4.244   2.168 -0.4687  0.4597  0.1305
15798TIP3    H168885   5.061   4.150   2.182  2.8217  0.8118  0.2065
15798TIP3    H268886   5.022   4.251   2.076  2.2450 -0.4375 -0.7974
15799TIP3   OH268887   6.394   5.583   4.531  0.0786 -0.2925 -0.0461
15799TIP3    H168888   6.482   5.613   4.508  0.2962 -0.2470  0.7851
15799TIP3    H268889   6.335   5.644   4.487  0.3917 -1.3616 -2.0707
15800TIP3   OH268890   1.328   4.542  13.373 -0.1430 -0.0158 -0.0728
15800TIP3    H168891   1.412   4.550  13.328  0.7332 -0.7336  1.3753
15800TIP3    H268892   1.301   4.451  13.357 -0.7480  0.2622 -0.6818
15801TIP3   OH268893   3.168   3.534  11.501 -0.0765 -0.5910 -0.4972
15801TIP3    H168894   3.231   3.592  11.544 -0.5097  0.1089 -0.7879
15801TIP3    H268895   3.101   3.593  11.466 -0.5186 -1.2683 -0.8137
15802TIP3   OH268896   6.724   0.408   6.102  0.2959  0.4726 -0.3518
15802TIP3    H168897   6.766   0.438   6.021  2.0920  1.3834  0.8475
15802TIP3    H268898   6.751   0.472   6.168  1.2816 -1.7582  1.5700
15803TIP3   OH268899   1.414   2.553   1.357 -0.1947 -0.4441  0.6096
15803TIP3    H168900   1.390   2.619   1.422  0.0457  0.8936 -0.5931
15803TIP3    H268901   1.346   2.486   1.364 -0.6318  0.0908  1.6503
15804TIP3   OH268902   2.359   2.831   0.865 -0.0441  0.5122  0.0267
15804TIP3    H168903   2.322   2.797   0.946 -1.4269 -0.5095 -0.9988
15804TIP3    H268904   2.312   2.913   0.850 -0.4633  0.2298 -0.2212
15805TIP3   OH268905   2.191   6.477   3.107 -0.0363 -0.0283 -0.3435
15805TIP3    H168906   2.279   6.456   3.139  0.1451 -0.8247 -1.3169
15805TIP3    H268907   2.156   6.538   3.172  1.0477 -0.0790  0.3167
15806TIP3   OH268908   2.189   4.704  13.811 -0.0607 -0.1584  0.4303
15806TIP3    H168909   2.159   4.740  13.895 -1.8972 -0.7305  0.0648
15806TIP3    H268910   2.164   4.612  13.813  0.2709 -0.2865 -0.5740
15807TIP3   OH268911   5.249   0.172  13.757 -0.0127 -0.6397  0.0344
15807TIP3    H168912   5.235   0.143  13.666  1.0946 -1.7602  0.1936
15807TIP3    H268913   5.242   0.267  13.753 -1.8214 -0.7719 -0.8835
15808TIP3   OH268914   3.343   4.038  11.730  0.3908  0.0138  0.1625
15808TIP3    H168915   3.264   4.082  11.696 -0.9233 -0.1502  2.7888
15808TIP3    H268916   3.381   4.101  11.791  0.8815 -0.8997  0.8109
15809TIP3   OH268917   1.264   2.023  12.917  0.0640  0.5318 -0.0046
15809TIP3    H168918   1.210   1.978  12.852  2.6179  0.1900 -2.0920
15809TIP3    H268919   1.256   2.116  12.894 -3.2434  1.1183  2.7456
15810TIP3   OH268920   3.660   4.117   2.298  0.3575  0.0116 -0.5994
15810TIP3    H168921   3.667   4.142   2.390 -1.0471  0.8284 -0.6968
15810TIP3    H268922   3.577   4.153   2.269 -0.7575 -2.9013 -1.3680
15811TIP3   OH268923   5.448   6.165  15.638 -0.7837  0.0392 -0.1449
15811TIP3    H168924   5.466   6.241  15.693 -2.8184 -0.2734  1.0433
15811TIP3    H268925   5.528   6.112  15.645  0.0985  1.3525  0.1716
15812TIP3   OH268926   3.582   3.796   5.430  0.1914 -0.2054 -0.6561
15812TIP3    H168927   3.610   3.884   5.405  1.9471 -0.3592  0.5113
15812TIP3    H268928   3.595   3.743   5.351  1.5397  0.1225 -0.6876
15813TIP3   OH268929   2.579   1.109  17.084 -0.6589 -0.0047  0.2552
15813TIP3    H168930   2.538   1.195  17.093 -1.4049 -0.2130 -0.8773
15813TIP3    H268931   2.520   1.061  17.026  0.3592 -0.8776 -0.0821
15814TIP3   OH268932   4.272   4.415  14.844 -0.2358  0.2275 -0.6073
15814TIP3    H168933   4.186   4.450  14.820  0.5745  2.0471 -1.0613
15814TIP3    H268934   4.291   4.350  14.776 -0.7731  0.6396 -1.1669
15815TIP3   OH268935   0.432   4.065   3.722 -0.4646 -0.3361  0.3336
15815TIP3    H168936   0.459   3.985   3.767 -1.8759 -1.0509 -0.0375
15815TIP3    H268937   0.403   4.123   3.793  1.6495  0.3511  0.7148
15816TIP3   OH268938   4.371   3.182   0.917 -0.3262  1.0389  0.0483
15816TIP3    H168939   4.280   3.155   0.905 -1.0584  4.1572 -3.0673
15816TIP3    H268940   4.369   3.239   0.994 -0.4673 -0.7128  1.3914
15817TIP3   OH268941   4.103   4.741  13.568  0.0655 -0.0895  0.0213
15817TIP3    H168942   4.082   4.647  13.573  0.8564 -0.2689  0.1064
15817TIP3    H268943   4.196   4.743  13.546 -0.0200  0.6822 -0.2726
15818TIP3   OH268944   2.913   2.855  13.663 -0.4954 -0.3200 -0.0475
15818TIP3    H168945   2.993   2.907  13.673 -0.3595 -0.0337 -2.1801
15818TIP3    H268946   2.842   2.920  13.664 -0.3176  0.0543 -2.8380
15819TIP3   OH268947   3.706   5.559   1.613  0.9013  0.2549  0.4682
15819TIP3    H168948   3.647   5.496   1.571  0.7273  0.4806  0.3699
15819TIP3    H268949   3.663   5.581   1.695  0.4619  0.9996  0.0508
15820TIP3   OH268950   2.110   0.349  14.616 -0.2291 -0.0401  0.4495
15820TIP3    H168951   2.200   0.315  14.617 -0.5571 -0.9476  0.0700
15820TIP3    H268952   2.082   0.343  14.707 -0.4819 -1.3823  0.3053
15821TIP3   OH268953   6.157   3.005  14.310 -0.1713 -0.1071  0.2907
15821TIP3    H168954   6.241   3.002  14.264 -0.8007  0.5887 -0.9620
15821TIP3    H268955   6.174   3.055  14.389  0.7007 -0.3695  0.2780
15822TIP3   OH268956   0.779   6.113   0.070 -0.1421  0.0278  0.3789
15822TIP3    H168957   0.869   6.089   0.094 -0.0981  0.2862  0.4799
15822TIP3    H268958   0.790   6.182   0.004 -0.2650  1.0521  1.4124
15823TIP3   OH268959   0.643   0.583   2.442 -0.1548 -0.6287 -0.6535
15823TIP3    H168960   0.660   0.490   2.454  0.5028 -0.4587 -0.2463
15823TIP3    H268961   0.560   0.599   2.488  0.3290 -0.7769  0.2833
15824TIP3   OH268962   5.785   6.655  16.255 -0.0477 -0.7267 -0.1925
15824TIP3    H168963   5.780   6.669  16.350  1.7123 -0.8066 -0.0556
15824TIP3    H268964   5.878   6.666  16.234 -0.7211  1.9608 -2.3351
15825TIP3   OH268965   0.470   5.118   3.817 -0.0807 -0.1827 -0.1595
15825TIP3    H168966   0.534   5.054   3.849  0.3243  0.3371  0.1013
15825TIP3    H268967   0.387   5.071   3.816  0.0320 -0.4303  0.9601
15826TIP3   OH268968   2.379   0.774  12.178 -0.8730 -0.2249 -0.2529
15826TIP3    H168969   2.299   0.820  12.204 -0.2329  1.1969 -0.6917
15826TIP3    H268970   2.360   0.682  12.193 -2.4704  0.1178 -0.0183
15827TIP3   OH268971   3.410   2.564   4.960  0.1865 -0.2687  0.4386
15827TIP3    H168972   3.349   2.543   5.030 -1.2782  0.7899 -0.4517
15827TIP3    H268973   3.398   2.494   4.896 -0.0428 -0.1238  0.3181
15828TIP3   OH268974   0.528   3.144  14.932  0.5152  0.0024  0.3132
15828TIP3    H168975   0.527   3.096  14.849 -1.4695 -0.5516  0.6006
15828TIP3    H268976   0.556   3.232  14.909  0.4383 -0.2677 -0.8712
15829TIP3   OH268977   1.684   3.491   0.756 -0.4034  0.3766 -0.6170
15829TIP3    H168978   1.680   3.405   0.715 -1.3743  0.6622 -1.1572
15829TIP3    H268979   1.768   3.528   0.729  0.8528 -1.0811  1.0592
15830TIP3   OH268980   5.878   4.335  15.235 -0.4232  0.2718  0.0790
15830TIP3    H168981   5.863   4.419  15.277 -0.0168  1.2804 -1.7049
15830TIP3    H268982   5.796   4.316  15.189 -0.4046 -0.1694  0.2181
15831TIP3   OH268983   0.068   3.592   3.807 -0.0757  0.3849  0.5054
15831TIP3    H168984   0.088   3.553   3.892 -2.6404 -0.7704  0.6993
15831TIP3    H268985  -0.003   3.654   3.825 -2.1096 -1.3438 -0.9268
15832TIP3   OH268986   0.840   3.508   2.018 -0.0354  0.2768  0.0755
15832TIP3    H168987   0.901   3.490   2.090 -0.4049 -1.0387  0.0853
15832TIP3    H268988   0.830   3.423   1.974 -0.3943  0.9049 -1.0713
15833TIP3   OH268989   1.124   2.164  14.417  0.2620  0.0791  0.6232
15833TIP3    H168990   1.196   2.197  14.363 -0.6769  0.2386 -0.5743
15833TIP3    H268991   1.056   2.139  14.354 -0.7317 -0.0786  1.7186
15834TIP3   OH268992   1.492   1.420  16.282  0.1269 -0.5541 -1.0714
15834TIP3    H168993   1.502   1.325  16.275  1.8337 -0.3520 -2.0317
15834TIP3    H268994   1.500   1.438  16.376 -0.4838 -1.3673 -0.8532
15835TIP3   OH268995   1.721   3.436   3.341  0.1363 -0.3831 -0.3062
15835TIP3    H168996   1.766   3.437   3.257  0.4298  0.1841 -0.1508
15835TIP3    H268997   1.789   3.414   3.404  0.3138  0.9016 -0.0168
15836TIP3   OH268998   2.456   5.448  15.874  0.1891 -0.6957  0.4377
15836TIP3    H168999   2.436   5.517  15.811  0.4741 -1.0031 -0.0037
15836TIP3    H269000   2.409   5.371  15.841 -0.5997 -0.5753  1.2437
15837TIP3   OH269001   5.993   0.343   5.467  0.0795  0.0503 -0.2649
15837TIP3    H169002   6.011   0.263   5.419  0.6345  0.7158 -1.1869
15837TIP3    H269003   5.917   0.381   5.423 -1.1679 -0.7125  1.1223
15838TIP3   OH269004   5.068   0.288  15.162 -0.0730 -0.7101 -0.7107
15838TIP3    H169005   5.095   0.254  15.076  1.8762 -2.4332  0.4764
15838TIP3    H269006   5.151   0.301  15.209 -1.0462  1.0984  0.6190
15839TIP3   OH269007   3.657   2.305  12.382 -0.5585  0.5192 -0.4231
15839TIP3    H169008   3.665   2.210  12.395 -1.5898  0.2803 -1.3133
15839TIP3    H269009   3.630   2.338  12.468 -2.5488 -0.3528 -0.6443
15840TIP3   OH269010   5.116   3.153  16.845  0.0705  0.3709 -0.0082
15840TIP3    H169011   5.080   3.229  16.892  3.0642  0.5009  2.4241
15840TIP3    H269012   5.053   3.083  16.861 -0.9063  1.4234  0.9569
15841TIP3   OH269013   0.999   2.883  13.856 -0.0562 -0.0175 -0.1018
15841TIP3    H169014   1.046   2.966  13.858 -0.4807  0.4371 -3.2654
15841TIP3    H269015   0.928   2.894  13.919  0.0816  1.9006 -0.2344
15842TIP3   OH269016   2.032   5.617  14.889  0.0184 -0.4014  0.1252
15842TIP3    H169017   2.098   5.550  14.873  1.2904  0.8487 -0.0834
15842TIP3    H269018   1.973   5.612  14.814  0.4289 -0.9000 -0.1682
15843TIP3   OH269019   6.525   0.238   0.216 -0.7043 -0.4117  0.3771
15843TIP3    H169020   6.589   0.262   0.283 -0.0927 -1.0218  0.0238
15843TIP3    H269021   6.456   0.193   0.263  0.1257 -1.5894  0.5048
15844TIP3   OH269022   5.781   2.473  16.628  0.7919 -0.4930  0.3102
15844TIP3    H169023   5.811   2.448  16.715  1.9627  0.3669  0.1732
15844TIP3    H269024   5.780   2.568  16.629 -2.5044 -0.4431  0.4476
15845TIP3   OH269025   0.493   3.456   0.054  0.6342  0.4109 -0.1548
15845TIP3    H169026   0.465   3.494   0.138 -1.7832 -0.9458 -0.2503
15845TIP3    H269027   0.417   3.467  -0.003  1.5150 -0.5257 -1.5582
15846TIP3   OH269028   6.253   3.035   3.675  0.3859  0.0275 -0.0864
15846TIP3    H169029   6.231   3.118   3.634  0.0502 -0.2659 -0.5140
15846TIP3    H269030   6.177   2.979   3.657 -0.0094  0.0468  1.4017
15847TIP3   OH269031   6.100   5.400   3.146  0.6041  0.0624 -0.2745
15847TIP3    H169032   6.064   5.370   3.230 -1.2596 -1.4735 -1.5248
15847TIP3    H269033   6.062   5.487   3.133  2.9066  1.4692  1.5484
15848TIP3   OH269034   6.812   5.869   1.620  0.2349  0.1099 -0.6771
15848TIP3    H169035   6.775   5.786   1.588 -0.2367 -0.5087  1.3039
15848TIP3    H269036   6.860   5.904   1.546 -0.5717 -1.3369 -1.9543
15849TIP3   OH269037   6.605   5.875  16.993  0.0856 -0.2045  0.6049
15849TIP3    H169038   6.697   5.852  16.982  0.6243  1.7686  0.6594
15849TIP3    H269039   6.588   5.862  17.086 -0.0082 -1.5811  0.4119
15850TIP3   OH269040   5.780   5.578  14.130  0.3575  0.2337  0.4161
15850TIP3    H169041   5.700   5.527  14.143 -0.0528  0.6073 -0.5525
15850TIP3    H269042   5.781   5.597  14.036  1.9059 -0.2865  0.3064
15851TIP3   OH269043   4.020   0.076  12.406 -0.1173 -0.3866 -0.0875
15851TIP3    H169044   4.050   0.011  12.470  1.0979  0.5822  0.3659
15851TIP3    H269045   4.004   0.025  12.326 -0.6704 -1.4613  0.6795
15852TIP3   OH269046   1.945   3.837  17.020 -0.0957  0.3534 -0.6440
15852TIP3    H169047   1.908   3.913  16.974 -2.7207 -0.3682  0.1004
15852TIP3    H269048   1.906   3.762  16.975  0.7871 -0.4922 -0.0215
15853TIP3   OH269049   3.072   1.312   4.147 -0.2737  0.2228  0.2604
15853TIP3    H169050   3.021   1.256   4.089 -0.1555  1.0152 -0.6291
15853TIP3    H269051   3.071   1.266   4.231  0.4841 -1.5021 -0.6255
15854TIP3   OH269052   5.777   1.892  14.854 -0.2759 -0.7234 -0.2788
15854TIP3    H169053   5.780   1.805  14.892 -1.3122 -1.9780 -2.8142
15854TIP3    H269054   5.687   1.903  14.824 -0.0621  1.0593 -0.4120
15855TIP3   OH269055   3.151   3.739   3.672 -0.0151  0.4421  0.1305
15855TIP3    H169056   3.193   3.823   3.655 -0.8092  0.3328 -2.8621
15855TIP3    H269057   3.186   3.680   3.604 -1.2396 -0.9939  0.6901
15856TIP3   OH269058   6.718   0.991   0.775 -0.1521 -0.3545 -0.1749
15856TIP3    H169059   6.672   1.022   0.697 -0.3010  0.2069  0.1302
15856TIP3    H269060   6.649   0.962   0.834 -0.0172 -1.2129 -0.4259
15857TIP3   OH269061   4.758   5.639   0.124 -0.1159 -0.0591  0.1205
15857TIP3    H169062   4.823   5.705   0.099  0.1536  0.0550  1.0592
15857TIP3    H269063   4.742   5.657   0.217  0.2352 -1.5397  0.4914
15858TIP3   OH269064   3.352   6.361   6.455 -0.1175  0.1239 -0.1050
15858TIP3    H169065   3.273   6.319   6.489 -0.0463  1.2441  1.5041
15858TIP3    H269066   3.322   6.406   6.376 -0.6303 -1.1570 -0.6759
15859TIP3   OH269067   5.107   2.178   5.832 -0.7770 -0.2105  0.5605
15859TIP3    H169068   5.120   2.131   5.915 -2.1472  0.2341  1.0501
15859TIP3    H269069   5.013   2.175   5.817 -0.7005  0.8941 -0.2914
15860TIP3   OH269070   6.667   0.575   3.780  0.1522 -0.1518 -1.0035
15860TIP3    H169071   6.581   0.532   3.776  0.4860 -0.9344 -0.1007
15860TIP3    H269072   6.705   0.562   3.693  0.1307 -1.4643 -0.8381
15861TIP3   OH269073   2.528   0.442   1.871  0.5991  0.0839  0.2504
15861TIP3    H169074   2.615   0.406   1.887  0.1219 -1.1081  0.3480
15861TIP3    H269075   2.525   0.523   1.922  1.7385  0.2786  0.0202
15862TIP3   OH269076   5.686   4.012  16.580  0.4305  0.1264  0.3600
15862TIP3    H169077   5.604   4.013  16.629 -0.9264 -0.6349 -1.7613
15862TIP3    H269078   5.749   4.054  16.638 -1.1456 -0.3778  2.5540
15863TIP3   OH269079   3.280   2.218   2.705 -0.5789 -0.3036  0.0326
15863TIP3    H169080   3.367   2.259   2.706 -1.5238  1.8798 -1.2002
15863TIP3    H269081   3.298   2.125   2.696  1.6261  0.1691 -1.1133
15864TIP3   OH269082   3.074   5.596   5.289  0.3403  0.0247  0.1678
15864TIP3    H169083   2.978   5.588   5.282  0.0569  0.8415  2.3076
15864TIP3    H269084   3.105   5.591   5.198 -1.7191 -0.2493 -0.5851
15865TIP3   OH269085   2.401   2.704   6.490  0.4539  0.0438  0.1287
15865TIP3    H169086   2.335   2.730   6.426 -0.2985 -0.0879  0.8491
15865TIP3    H269087   2.478   2.683   6.437  0.1006  0.7338 -0.6775
15866TIP3   OH269088   5.145   5.523  15.395  0.1182  0.2075 -0.6706
15866TIP3    H169089   5.116   5.593  15.453 -0.2688 -0.6305  0.1814
15866TIP3    H269090   5.190   5.461  15.454 -0.6526 -0.8673 -1.1861
15867TIP3   OH269091   2.620   0.234   5.687 -0.1497 -0.4808 -0.0343
15867TIP3    H169092   2.659   0.197   5.608  3.2876  2.0945  0.2209
15867TIP3    H269093   2.668   0.192   5.759  0.9866  1.3903  0.3674
15868TIP3   OH269094   3.385   4.739  12.357  0.3008  0.5361 -0.7864
15868TIP3    H169095   3.424   4.754  12.271  0.2449  2.2327 -0.5618
15868TIP3    H269096   3.433   4.665  12.393  2.7552  1.9529 -0.9048
15869TIP3   OH269097   4.357   6.348   3.820 -0.3112  0.2994 -0.2790
15869TIP3    H169098   4.275   6.300   3.819 -0.3050  0.2831 -2.3222
15869TIP3    H269099   4.384   6.346   3.912 -1.8215 -0.9732  0.1790
15870TIP3   OH269100   6.105   5.389  15.588 -0.0563  0.0713  0.3946
15870TIP3    H169101   6.163   5.348  15.524  0.0663 -0.1043  0.6148
15870TIP3    H269102   6.154   5.387  15.670 -1.5989 -3.2187  1.4102
15871TIP3   OH269103   6.341   1.281   4.093  0.2757 -0.0647 -0.0880
15871TIP3    H169104   6.409   1.232   4.138  0.5849  0.0139 -0.4610
15871TIP3    H269105   6.350   1.255   4.001  0.1389  0.3357 -0.2157
15872TIP3   OH269106   5.658   5.194   0.549 -0.4695 -0.1363 -0.5674
15872TIP3    H169107   5.666   5.242   0.466 -0.6002 -1.3366 -1.2951
15872TIP3    H269108   5.724   5.125   0.543  0.6768  0.7679  1.0708
15873TIP3   OH269109   2.214   6.372   0.261 -0.0176  0.0791  0.2603
15873TIP3    H169110   2.184   6.285   0.234  0.4840  0.0155 -0.1075
15873TIP3    H269111   2.211   6.370   0.357 -0.4975 -0.1657  0.2422
15874TIP3   OH269112   5.220   1.856  11.994 -0.1299  0.2008  0.3181
15874TIP3    H169113   5.306   1.832  12.028 -0.2297 -1.0294 -0.2073
15874TIP3    H269114   5.167   1.776  12.005  0.1322 -0.7276 -3.5870
15875TIP3   OH269115   6.024   4.745   0.158 -0.5146 -0.3972 -0.4094
15875TIP3    H169116   6.043   4.666   0.209 -0.4222  0.4591  0.9213
15875TIP3    H269117   6.087   4.742   0.085  0.4314 -0.8479  0.4022
15876TIP3   OH269118   0.901   0.037   2.063  0.1136  0.3505  0.4030
15876TIP3    H169119   0.844   0.114   2.060 -1.9925 -1.1465  0.0439
15876TIP3    H269120   0.896  -0.000   1.975 -2.0334 -2.2789  1.4947
15877TIP3   OH269121   5.820   2.530   5.869  0.1756  0.5188 -0.6571
15877TIP3    H169122   5.797   2.527   5.776  0.8203  0.1503 -0.8093
15877TIP3    H269123   5.738   2.551   5.913 -1.3130 -3.9884 -0.8573
15878TIP3   OH269124   3.551   3.425   3.846  0.2668  0.1371  0.1614
15878TIP3    H169125   3.465   3.390   3.871  0.2224  0.0986 -0.0430
15878TIP3    H269126   3.532   3.488   3.777  0.4185  0.0178  0.0110
15879TIP3   OH269127   4.529   5.938   2.877  0.8186 -0.0751 -0.2945
15879TIP3    H169128   4.538   6.029   2.848  1.7877  0.1943  0.7355
15879TIP3    H269129   4.440   5.914   2.853  0.0321  1.6350  0.6543
15880TIP3   OH269130   1.324   0.637  14.984  0.1477 -0.1395  0.2301
15880TIP3    H169131   1.343   0.548  14.954 -0.3898 -0.1882  0.0212
15880TIP3    H269132   1.335   0.633  15.079  1.4055 -0.0984  0.1010
15881TIP3   OH269133   1.109   1.666   3.370 -0.0329 -0.1297  0.6245
15881TIP3    H169134   1.114   1.597   3.304 -1.8657  0.3638 -0.1187
15881TIP3    H269135   1.015   1.683   3.379  0.3222  1.6844  1.3790
15882TIP3   OH269136   5.559   3.095   5.388  0.0969 -0.4681  0.3874
15882TIP3    H169137   5.641   3.047   5.394  0.5578  0.0284 -1.2409
15882TIP3    H269138   5.503   3.057   5.455  0.6016 -2.9335 -0.4839
15883TIP3   OH269139   2.686   4.411   2.723 -0.0003 -0.0738 -0.3461
15883TIP3    H169140   2.707   4.331   2.676 -0.8243  0.2793 -1.3593
15883TIP3    H269141   2.590   4.416   2.721 -0.0862 -0.2505  1.7534
15884TIP3   OH269142   0.645   1.140   4.046 -0.3803 -0.6518  0.3439
15884TIP3    H169143   0.594   1.059   4.058  0.6794 -1.1826  1.4594
15884TIP3    H269144   0.592   1.192   3.985 -1.6673 -1.6775  0.5252
15885TIP3   OH269145   5.272   3.886   3.673  0.5020  0.2885 -0.5156
15885TIP3    H169146   5.183   3.883   3.706  0.5320  1.4783 -0.2589
15885TIP3    H269147   5.267   3.943   3.596  0.8495 -0.5354 -1.1619
15886TIP3   OH269148   0.733   1.594  11.397 -0.0355 -0.2785 -0.5858
15886TIP3    H169149   0.686   1.620  11.476  1.7998  3.1901 -0.4662
15886TIP3    H269150   0.672   1.614  11.326  0.2340  1.8689 -0.2883
15887TIP3   OH269151   0.520   5.534  13.864  0.1685 -0.5832  0.1675
15887TIP3    H169152   0.591   5.480  13.830  0.3736 -1.0599  1.3319
15887TIP3    H269153   0.464   5.474  13.913  0.5936  0.2729  1.7938
15888TIP3   OH269154   1.862   3.910   3.237 -0.1939 -0.1048 -0.3684
15888TIP3    H169155   1.882   3.833   3.290 -2.3354 -0.7562 -0.4283
15888TIP3    H269156   1.810   3.966   3.294 -1.1677 -0.0770 -1.2571
15889TIP3   OH269157   5.883   2.799  16.890  0.1096  0.6040  0.5934
15889TIP3    H169158   5.818   2.777  16.823  0.9028 -1.1148  0.3152
15889TIP3    H269159   5.962   2.820  16.841  0.4533  0.2029  0.9611
15890TIP3   OH269160   2.917   1.418  13.270  0.1258  0.1536  0.0472
15890TIP3    H169161   2.894   1.454  13.356 -1.4677 -0.0814 -0.2640
15890TIP3    H269162   2.919   1.323  13.284 -1.6234  0.0041 -0.4781
15891TIP3   OH269163   3.247   5.749  11.331 -0.5764  0.1921 -0.7635
15891TIP3    H169164   3.278   5.831  11.292  0.0722  0.5278  0.4368
15891TIP3    H269165   3.170   5.726  11.278 -0.2432  1.0892 -1.6839
15892TIP3   OH269166   0.676   2.491  15.338  0.3389  0.2776  0.2672
15892TIP3    H169167   0.651   2.536  15.257  0.4618  0.1657  0.1665
15892TIP3    H269168   0.707   2.560  15.396 -1.6784  0.6659  0.9806
15893TIP3   OH269169   1.651   4.658   3.353 -0.2114  0.6370 -0.1358
15893TIP3    H169170   1.657   4.706   3.271  0.6885  0.5413 -0.1364
15893TIP3    H269171   1.661   4.566   3.328  0.3495  0.6290  0.1051
15894TIP3   OH269172   2.616   5.931   1.487 -0.0806 -0.0677  0.8064
15894TIP3    H169173   2.597   6.018   1.524  2.3929  0.4469  1.0816
15894TIP3    H269174   2.600   5.870   1.559  1.4784  0.5766  1.7513
15895TIP3   OH269175   5.485   5.286   4.696  0.5745 -0.6693 -0.3278
15895TIP3    H169176   5.426   5.358   4.674 -1.3489 -2.7070 -2.4656
15895TIP3    H269177   5.532   5.315   4.774 -1.3475  2.1556 -0.0955
15896TIP3   OH269178   4.769   5.610  14.863  0.3300  0.0862 -0.7705
15896TIP3    H169179   4.764   5.679  14.797 -0.9615  0.0442 -0.7345
15896TIP3    H269180   4.697   5.628  14.923  0.5471 -0.7579 -0.2294
15897TIP3   OH269181   2.012   1.428  15.062  0.1689 -0.5345  0.3572
15897TIP3    H169182   1.933   1.377  15.042  0.5230 -0.7240 -0.5792
15897TIP3    H269183   2.082   1.364  15.062  0.6263 -0.0580 -0.8672
15898TIP3   OH269184   2.307   5.944   0.203  0.1475 -0.0885 -0.2778
15898TIP3    H169185   2.247   5.939   0.129 -1.5557 -2.7883  1.1494
15898TIP3    H269186   2.382   5.890   0.178  1.0973  1.5696 -1.2056
15899TIP3   OH269187   0.170   4.171  10.852 -0.3550 -0.1081 -0.2742
15899TIP3    H169188   0.220   4.110  10.906 -0.7637 -0.9166 -0.7829
15899TIP3    H269189   0.202   4.258  10.877 -1.3794 -0.3558  2.1205
15900TIP3   OH269190   0.430   4.241   1.842  0.1516 -0.1046  0.0989
15900TIP3    H169191   0.372   4.306   1.803  0.1468 -0.4620 -0.5046
15900TIP3    H269192   0.401   4.157   1.806 -1.3438 -0.7836  2.5922
15901TIP3   OH269193   3.742   3.404  14.819  0.8014  0.0216 -0.0734
15901TIP3    H169194   3.804   3.423  14.890  0.7986  0.0942 -0.0907
15901TIP3    H269195   3.707   3.318  14.841  0.4200  0.2632  0.2899
15902TIP3   OH269196   1.505   0.977   1.342 -0.2113  0.5929 -0.2199
15902TIP3    H169197   1.515   1.070   1.326 -1.0801  0.8805  0.8067
15902TIP3    H269198   1.417   0.956   1.309  0.0699  0.0884 -0.6646
15903TIP3   OH269199   5.177   3.003  10.971  0.0333 -0.0851  0.6499
15903TIP3    H169200   5.127   3.057  10.909 -0.2837  1.2651  2.0162
15903TIP3    H269201   5.254   2.976  10.922 -0.9964 -0.4499 -0.8422
15904TIP3   OH269202   3.645   6.091   5.572 -0.4717  0.4740 -0.6097
15904TIP3    H169203   3.698   6.020   5.535 -0.6832  0.8611 -1.7092
15904TIP3    H269204   3.622   6.145   5.496 -0.9253  1.3116  0.1071
15905TIP3   OH269205   3.509   6.167  13.799  0.2094  0.2939 -0.1167
15905TIP3    H169206   3.579   6.223  13.833  0.6129  0.7499 -1.6094
15905TIP3    H269207   3.463   6.223  13.736 -0.6433 -0.4438 -0.1621
15906TIP3   OH269208   5.967   3.710   5.591  0.1214 -0.5355  0.9990
15906TIP3    H169209   6.033   3.706   5.522 -1.0219 -0.2489 -0.1375
15906TIP3    H269210   5.967   3.623   5.630  0.3699 -0.8693  0.2601
15907TIP3   OH269211   3.011   4.149   1.223 -0.5720 -0.7007 -0.1575
15907TIP3    H169212   3.025   4.236   1.261 -1.3322  0.0328 -1.4790
15907TIP3    H269213   2.916   4.142   1.214 -0.7042 -2.4955  1.6996
15908TIP3   OH269214   6.155   3.500   2.462  0.0761  0.3838 -0.6908
15908TIP3    H169215   6.213   3.573   2.482  0.7925 -0.4871  0.5315
15908TIP3    H269216   6.067   3.538   2.463  0.5378  1.5662 -1.8098
15909TIP3   OH269217   2.774   4.414  11.092  0.8469  0.4608 -0.5214
15909TIP3    H169218   2.711   4.407  11.164  1.4174  1.4654  0.1000
15909TIP3    H269219   2.766   4.504  11.062 -0.1264 -0.2218 -2.4556
15910TIP3   OH269220   1.938   5.198   5.685  0.3609 -0.6127 -0.0306
15910TIP3    H169221   1.927   5.143   5.763 -0.0126 -1.5690 -0.7421
15910TIP3    H269222   1.878   5.271   5.699  0.5050 -0.6265  0.7054
15911TIP3   OH269223   1.260   2.600  13.557  0.3444  0.6995 -0.6109
15911TIP3    H169224   1.315   2.522  13.565 -1.9834 -0.9104  0.8537
15911TIP3    H269225   1.283   2.653  13.633 -0.7465 -0.4894  0.6281
15912TIP3   OH269226   4.110   5.360  11.941  0.6703 -1.2718  0.8237
15912TIP3    H169227   4.143   5.445  11.970  0.3043 -0.4473 -1.0291
15912TIP3    H269228   4.037   5.381  11.884  0.4292 -2.8526  0.5023
15913TIP3   OH269229   1.184   6.127  15.352 -0.3227 -0.7477 -0.4322
15913TIP3    H169230   1.093   6.132  15.322 -0.5486  0.6954  0.4267
15913TIP3    H269231   1.180   6.077  15.433  0.0839 -3.2475 -1.8384
15914TIP3   OH269232   3.502   3.890   2.238  0.5444 -0.5354  0.6142
15914TIP3    H169233   3.582   3.935   2.265 -0.1757  1.0011  0.3320
15914TIP3    H269234   3.443   3.961   2.212 -0.3460 -1.7114 -0.7105
15915TIP3   OH269235   2.052   1.020   2.181 -0.0664  0.0831 -0.0633
15915TIP3    H169236   2.143   1.020   2.150 -0.0040 -0.9160  0.0943
15915TIP3    H269237   2.004   0.970   2.114 -0.0067 -1.7187  1.1840
15916TIP3   OH269238   4.717   0.926   1.678  0.5767 -0.0783  0.1947
15916TIP3    H169239   4.794   0.971   1.643  0.5664  0.4364  0.8138
15916TIP3    H269240   4.650   0.936   1.610  0.0017  2.4500  1.0366
15917TIP3   OH269241   4.668   0.114   6.616  0.0241 -0.1378  0.2761
15917TIP3    H169242   4.671   0.043   6.679  0.3407  0.5644  1.0650
15917TIP3    H269243   4.581   0.153   6.628 -0.3350 -0.6783 -0.4891
15918TIP3   OH269244   5.324   2.801  15.250 -0.6188 -0.3804 -0.4009
15918TIP3    H169245   5.257   2.745  15.210 -2.8413  0.9124  1.2550
15918TIP3    H269246   5.293   2.890  15.234  2.0536  0.4009 -1.6929
15919TIP3   OH269247   6.611   5.785   4.533 -0.8090 -0.0704 -0.7843
15919TIP3    H169248   6.557   5.853   4.493  0.7483  0.4267 -2.1578
15919TIP3    H269249   6.700   5.807   4.508 -0.0055 -1.2733  0.7943
15920TIP3   OH269250   0.624   4.001   5.367 -0.7254  0.2977  0.2638
15920TIP3    H169251   0.537   3.960   5.358 -0.0532 -1.0029 -0.5988
15920TIP3    H269252   0.654   4.014   5.277  0.5108 -0.4822  0.5394
15921TIP3   OH269253   1.603   4.957  12.372  0.3283 -0.0466  0.1435
15921TIP3    H169254   1.510   4.953  12.353  0.2241 -0.7797  0.7783
15921TIP3    H269255   1.635   5.031  12.319 -1.2083  2.4540  2.4228
15922TIP3   OH269256   2.246   5.388   3.934  0.5685 -0.0723 -0.2547
15922TIP3    H169257   2.213   5.460   3.988  0.6495 -0.5304  0.4174
15922TIP3    H269258   2.168   5.355   3.889  0.8357  1.7955 -2.2668
15923TIP3   OH269259   0.699   5.198   5.032  0.3236 -0.0113  0.5320
15923TIP3    H169260   0.663   5.224   5.117 -0.1942 -1.4901  0.7817
15923TIP3    H269261   0.773   5.141   5.054 -0.6773 -1.5594  0.0219
15924TIP3   OH269262   4.838   2.844   1.185  0.0548  0.2212  1.0586
15924TIP3    H169263   4.797   2.796   1.257 -1.9317  2.6384  1.6972
15924TIP3    H269264   4.866   2.776   1.124 -3.6715 -1.8218  1.2726
15925TIP3   OH269265   6.549   4.691   4.094  0.4056 -0.2078  0.0613
15925TIP3    H169266   6.483   4.702   4.025  1.1110 -0.0486 -0.5975
15925TIP3    H269267   6.580   4.601   4.084  0.0678 -0.3856  0.5762
15926TIP3   OH269268   0.282   0.068  16.831  0.3392  0.0075  0.1017
15926TIP3    H169269   0.266   0.018  16.750 -2.6230  0.8742  0.0418
15926TIP3    H269270   0.247   0.155  16.812 -0.4698  0.2093  2.3301
15927TIP3   OH269271   3.748   4.666  13.582  0.7343  0.1132 -0.3414
15927TIP3    H169272   3.750   4.673  13.678 -0.1332  2.0753 -0.3972
15927TIP3    H269273   3.827   4.712  13.553  1.6703 -1.5845 -0.5748
15928TIP3   OH269274   6.442   6.282  15.025 -0.1167  0.0897  0.0140
15928TIP3    H169275   6.517   6.336  15.050 -0.8602  1.7037 -1.1084
15928TIP3    H269276   6.470   6.193  15.045  2.4971  0.5135 -1.2475
15929TIP3   OH269277   1.000   2.607  13.909  0.0256  0.0580 -0.3135
15929TIP3    H169278   0.973   2.699  13.908  1.1737  0.4323  0.5113
15929TIP3    H269279   0.942   2.565  13.973  1.3946  0.8881  1.5871
15930TIP3   OH269280   5.821   6.506   3.694  0.1868 -0.4270  0.0833
15930TIP3    H169281   5.889   6.563   3.660  0.2604 -0.9487 -0.6838
15930TIP3    H269282   5.759   6.565   3.736  0.9601  0.0771  0.5336
15931TIP3   OH269283   4.243   3.707   6.563 -0.5940 -0.3885 -0.4818
15931TIP3    H169284   4.278   3.628   6.604  2.1243  1.0061  0.1018
15931TIP3    H269285   4.293   3.716   6.482  0.4788  1.6383  0.3256
15932TIP3   OH269286   6.054   0.942   4.252 -0.3597 -0.1557  0.1461
15932TIP3    H169287   6.026   1.027   4.287 -0.9727  0.3641 -1.5090
15932TIP3    H269288   6.079   0.891   4.329 -0.5962  1.3026  1.2232
15933TIP3   OH269289   1.888   2.924   1.153 -0.2902  0.0754 -0.1567
15933TIP3    H169290   1.919   2.870   1.080  1.2060  1.0059 -0.2663
15933TIP3    H269291   1.797   2.944   1.131 -0.0068 -0.0259 -1.5672
15934TIP3   OH269292   2.692   2.468  10.338 -0.0769  0.0908  0.5828
15934TIP3    H169293   2.696   2.429  10.251 -0.8447  1.6371 -0.1809
15934TIP3    H269294   2.784   2.477  10.363  0.3553  2.2927 -1.3722
15935TIP3   OH269295   4.739   3.226  14.969 -0.1044 -0.1898  0.1465
15935TIP3    H169296   4.810   3.258  14.914  0.2601 -1.4541 -0.1336
15935TIP3    H269297   4.676   3.188  14.908  0.0830 -1.1689  0.5389
15936TIP3   OH269298   1.684   0.332   1.202  0.2238 -0.1196  0.1346
15936TIP3    H169299   1.726   0.408   1.242 -0.6643 -0.2800  1.4243
15936TIP3    H269300   1.617   0.369   1.144  1.4473  0.1122 -1.1840
15937TIP3   OH269301   5.193   3.765  11.660  0.3048  0.2508 -0.2512
15937TIP3    H169302   5.184   3.673  11.639  0.7050  0.3414 -0.8322
15937TIP3    H269303   5.250   3.801  11.592  1.4072  0.6093  0.8090
15938TIP3   OH269304   6.044   5.740  13.123 -0.6539  0.6938 -0.6725
15938TIP3    H169305   6.040   5.647  13.147  1.1872  0.5679 -0.6624
15938TIP3    H269306   5.979   5.782  13.178  0.3606 -0.2362  1.3407
15939TIP3   OH269307   3.984   4.826  15.898 -0.4739  0.0411  0.6455
15939TIP3    H169308   3.969   4.795  15.808 -1.0198 -1.8867  1.3613
15939TIP3    H269309   3.932   4.906  15.904 -0.2939  0.3043 -0.7909
15940TIP3   OH269310   4.717   0.931   5.537  0.6929  0.3090 -0.3305
15940TIP3    H169311   4.708   0.965   5.448  0.7254  0.7581 -0.1673
15940TIP3    H269312   4.643   0.970   5.585  0.8613  0.3285 -0.0855
15941TIP3   OH269313   2.514   6.173   0.184  0.2155 -0.2123  0.2352
15941TIP3    H169314   2.490   6.244   0.123  0.0434 -0.9597 -0.5859
15941TIP3    H269315   2.494   6.093   0.136  3.5335 -0.9316 -0.2391
15942TIP3   OH269316   5.475   2.554  14.940 -0.2225 -0.2355 -0.2509
15942TIP3    H169317   5.437   2.607  15.010 -1.3198  2.1195 -2.4799
15942TIP3    H269318   5.402   2.503  14.906  0.3032 -1.3622  0.2595
15943TIP3   OH269319   1.466   6.286  13.077 -0.3329 -0.1513  0.0597
15943TIP3    H169320   1.496   6.203  13.040 -1.1995  0.0349 -1.0930
15943TIP3    H269321   1.383   6.304  13.033  0.6449  2.1830 -0.9884
15944TIP3   OH269322   4.655   4.714   0.531  0.1554 -0.1872  0.3492
15944TIP3    H169323   4.646   4.637   0.475 -0.8350  2.0924 -2.9084
15944TIP3    H269324   4.738   4.754   0.504 -1.0387  1.7395 -0.6505
15945TIP3   OH269325   2.632   4.195   0.607  0.1994 -0.5050 -0.2430
15945TIP3    H169326   2.644   4.277   0.656  0.4977 -0.7828  0.1577
15945TIP3    H269327   2.717   4.180   0.565 -0.2533  0.0921 -1.4294
15946TIP3   OH269328   3.078   0.553  14.093  0.0047 -0.0763 -0.1764
15946TIP3    H169329   3.156   0.525  14.140 -1.0054 -0.7971  1.1138
15946TIP3    H269330   3.066   0.487  14.024 -0.4999 -1.0386  0.7994
15947TIP3   OH269331   4.163   3.162  16.532  0.0205  0.3044  0.6017
15947TIP3    H169332   4.096   3.105  16.570  1.1604 -2.1008 -0.7172
15947TIP3    H269333   4.136   3.173  16.441  1.5661 -1.0999 -0.0822
15948TIP3   OH269334   3.678   6.728  16.818 -0.5432 -0.1264 -0.3899
15948TIP3    H169335   3.721   6.650  16.784 -1.3521 -1.1523  0.8353
15948TIP3    H269336   3.588   6.721  16.787 -0.0745  1.7078 -2.4554
15949TIP3   OH269337   6.355   6.163   5.938 -0.2733  0.0915  0.1309
15949TIP3    H169338   6.381   6.103   5.868 -0.0998  0.7229 -0.3618
15949TIP3    H269339   6.368   6.113   6.018 -0.6584 -0.7103 -0.2958
15950TIP3   OH269340   4.426   6.822  13.164 -0.2159 -0.2613 -0.0362
15950TIP3    H169341   4.432   6.810  13.258  2.1989 -1.7039 -0.2666
15950TIP3    H269342   4.460   6.910  13.148 -1.9403  0.5336  0.4920
15951TIP3   OH269343   0.618   0.390   3.571  0.4242 -0.5757 -0.3120
15951TIP3    H169344   0.536   0.419   3.611 -0.0308  0.5701 -1.9809
15951TIP3    H269345   0.595   0.310   3.524  0.2820 -0.3244 -0.6740
15952TIP3   OH269346   6.142   4.624  15.397 -0.2978 -0.0130 -0.2406
15952TIP3    H169347   6.149   4.539  15.353  1.1450 -0.3027  0.4815
15952TIP3    H269348   6.160   4.688  15.328 -0.5509 -0.3424 -0.6115
15953TIP3   OH269349   2.822   1.562  13.822 -0.4242  0.1428 -0.4062
15953TIP3    H169350   2.758   1.502  13.783  0.1179 -1.2143  0.7204
15953TIP3    H269351   2.773   1.610  13.889 -0.6224  0.2362 -0.6166
15954TIP3   OH269352   2.063   3.094   1.277  0.4813 -0.5869 -0.5884
15954TIP3    H169353   2.025   3.172   1.237  1.7304  0.1530 -0.3930
15954TIP3    H269354   2.011   3.022   1.243 -0.1712  0.2592 -1.4357
15955TIP3   OH269355   4.496   1.916  15.285 -0.0650  0.1085 -0.2477
15955TIP3    H169356   4.429   1.899  15.352  0.0831 -0.2100 -0.1785
15955TIP3    H269357   4.460   1.877  15.205 -0.4059  0.8067 -0.4441
15956TIP3   OH269358   1.979   4.663   0.754 -0.1713 -0.3656 -0.3092
15956TIP3    H169359   2.068   4.643   0.781  0.0800  1.2187  0.1678
15956TIP3    H269360   1.931   4.581   0.765  1.6878 -1.9794 -2.9115
15957TIP3   OH269361   2.584   6.349   2.124  0.3307 -0.0566  0.0740
15957TIP3    H169362   2.592   6.270   2.178  0.5717  0.8784  1.4811
15957TIP3    H269363   2.641   6.334   2.049 -0.6500 -1.7419 -0.3850
15958TIP3   OH269364   4.769   2.024   1.933  0.3041  0.1715  0.4021
15958TIP3    H169365   4.724   2.097   1.891 -1.2995 -1.3423 -0.6999
15958TIP3    H269366   4.762   2.042   2.027 -2.1809  0.3108  0.2619
15959TIP3   OH269367   6.462   0.393   1.612 -0.0988  0.2762 -0.4386
15959TIP3    H169368   6.546   0.358   1.582 -0.9811 -0.8619 -1.6977
15959TIP3    H269369   6.406   0.316   1.620 -1.2481  1.1007 -0.3420
15960TIP3   OH269370   0.193   3.594  13.981  0.2963 -0.0233  0.4030
15960TIP3    H169371   0.285   3.616  13.995  0.5752 -2.1545  2.6455
15960TIP3    H269372   0.158   3.579  14.068 -1.3912 -2.0453 -0.5173
15961TIP3   OH269373   0.110   3.182   5.688 -0.2223 -0.1131 -0.3522
15961TIP3    H169374   0.083   3.090   5.684 -1.2631  0.0240  1.9891
15961TIP3    H269375   0.093   3.208   5.778  1.5054  1.9658 -0.5554
15962TIP3   OH269376   3.422   4.172   6.911  0.9745  0.0164 -0.0061
15962TIP3    H169377   3.448   4.084   6.884  1.4052 -0.6102  2.2351
15962TIP3    H269378   3.466   4.185   6.995 -2.0026  0.8808  1.5396
15963TIP3   OH269379   4.319   0.393  11.294  0.8181  0.2600 -0.4934
15963TIP3    H169380   4.301   0.299  11.293  0.5477  0.3023  0.1678
15963TIP3    H269381   4.354   0.412  11.206 -0.6634 -0.1580 -1.1989
15964TIP3   OH269382   4.539   1.954  11.704  0.1059  0.9719  0.1994
15964TIP3    H169383   4.552   2.016  11.633  1.6317  1.0788  0.5279
15964TIP3    H269384   4.570   1.871  11.669 -2.2451  0.2712 -0.3546
15965TIP3   OH269385   0.940   2.841   1.003  0.0618  0.4539 -0.2804
15965TIP3    H169386   0.880   2.864   1.074  1.1637 -0.6595  1.0984
15965TIP3    H269387   0.885   2.832   0.926 -1.5404 -0.4490  0.9066
15966TIP3   OH269388   0.399   0.031  15.269  0.0770  0.2307 -0.1206
15966TIP3    H169389   0.323  -0.017  15.302  0.2313 -0.5415 -0.8585
15966TIP3    H269390   0.438  -0.027  15.204  0.5021  1.1972 -0.7555
15967TIP3   OH269391   2.459   1.305  11.147  0.0786  0.1764 -0.5302
15967TIP3    H169392   2.493   1.287  11.235  1.1416  0.2108 -0.9166
15967TIP3    H269393   2.518   1.372  11.112 -0.6279  0.5145 -1.0892
15968TIP3   OH269394   2.726   2.170  11.966 -0.0746  0.0554  0.0654
15968TIP3    H169395   2.800   2.198  11.912  1.2290 -0.3260  1.5761
15968TIP3    H269396   2.757   2.093  12.012 -1.2388  0.1825  1.1262
15969TIP3   OH269397   1.778   0.000  12.035 -0.0609  0.0664  0.3358
15969TIP3    H169398   1.725  -0.077  12.015  0.2074  0.1763 -0.8736
15969TIP3    H269399   1.857  -0.035  12.076 -0.4253 -0.2104  0.8072
15970TIP3   OH269400   3.813   5.190  12.219 -0.1037 -0.1403 -0.9677
15970TIP3    H169401   3.898   5.160  12.186  0.6925 -0.0371  0.8614
15970TIP3    H269402   3.781   5.118  12.272 -0.1512  0.5869  0.0338
15971TIP3   OH269403   0.854   0.453  11.876  0.1868 -0.1408 -0.6102
15971TIP3    H169404   0.807   0.528  11.913 -0.6674 -0.8570 -0.2085
15971TIP3    H269405   0.926   0.492  11.826  0.8065  0.9123  1.0037
15972TIP3   OH269406   0.299   2.684  12.890  0.4864 -0.9376 -0.5640
15972TIP3    H169407   0.378   2.661  12.938  0.1784 -0.1270  0.3588
15972TIP3    H269408   0.298   2.780  12.889 -0.4889 -0.9354 -0.5430
15973TIP3   OH269409   3.342   0.149   4.979  0.3284 -0.1519  0.2633
15973TIP3    H169410   3.323   0.242   4.983  1.9548  0.3167 -1.4135
15973TIP3    H269411   3.334   0.119   5.069 -0.8989  1.4372  0.7337
15974TIP3   OH269412   0.709   4.946   3.702  0.2734  0.1775  0.4897
15974TIP3    H169413   0.740   4.998   3.776  1.4190 -0.9986  0.8744
15974TIP3    H269414   0.787   4.902   3.670 -0.1654  0.7754 -1.5472
15975TIP3   OH269415   2.771   3.875  15.067 -0.3153  0.2392 -0.5733
15975TIP3    H169416   2.800   3.913  15.149  1.6653 -0.5916 -0.8387
15975TIP3    H269417   2.842   3.817  15.040 -1.3562 -0.3106 -2.3522
15976TIP3   OH269418   5.172   4.499  13.167 -0.5884  0.2853 -0.4689
15976TIP3    H169419   5.111   4.488  13.239 -1.7462 -0.1169 -1.4893
15976TIP3    H269420   5.240   4.433  13.183 -0.1828  0.9827  0.8672
15977TIP3   OH269421   6.338   3.771   1.662 -0.3869 -0.3138 -1.0138
15977TIP3    H169422   6.429   3.745   1.649  0.2359  2.2117 -2.2768
15977TIP3    H269423   6.342   3.843   1.725 -1.5152 -0.1268 -1.1273
15978TIP3   OH269424   5.548   0.188  16.965 -0.2984 -0.2396  0.1647
15978TIP3    H169425   5.502   0.119  17.012  0.2076 -0.5551  0.2074
15978TIP3    H269426   5.497   0.202  16.885 -1.1979  0.3458  0.8237
15979TIP3   OH269427   0.059   4.042   0.656 -0.3552  0.1791 -0.2339
15979TIP3    H169428   0.067   3.984   0.732  1.2154  1.3389  0.5449
15979TIP3    H269429   0.143   4.087   0.651 -1.5215  2.4634 -0.7376
15980TIP3   OH269430   5.584   1.862  10.439 -0.1860 -0.5339  0.9758
15980TIP3    H169431   5.547   1.949  10.426  1.4109  0.4336  2.4201
15980TIP3    H269432   5.556   1.837  10.527  0.9532 -0.6011  1.3357
15981TIP3   OH269433   6.381   0.699  11.548 -0.3601 -0.3665  0.1399
15981TIP3    H169434   6.400   0.681  11.456 -2.1687 -0.7906 -0.1772
15981TIP3    H269435   6.416   0.623  11.595 -0.7159 -0.8444 -0.3557
15982TIP3   OH269436   5.577   1.541  10.613  0.0737  0.3487 -0.7494
15982TIP3    H169437   5.493   1.495  10.625  0.1421  0.0252 -1.5128
15982TIP3    H269438   5.557   1.632  10.637 -0.0341 -0.0753  0.8927
15983TIP3   OH269439   6.056   0.616   3.514 -0.5794 -0.2066  0.2998
15983TIP3    H169440   6.102   0.699   3.498  0.1619 -0.3716  1.4561
15983TIP3    H269441   5.975   0.623   3.464 -0.3717  1.0865  0.1218
15984TIP3   OH269442   3.304   6.009  11.203 -0.1707  0.0057 -0.1193
15984TIP3    H169443   3.248   6.083  11.228  0.6835  0.1739  1.4315
15984TIP3    H269444   3.275   5.986  11.114 -1.1821  1.4960 -0.2176
15985TIP3   OH269445   4.261   3.105   4.697  0.2050 -0.6927  0.1072
15985TIP3    H169446   4.270   3.122   4.603  2.6199  1.0116  0.5293
15985TIP3    H269447   4.181   3.150   4.723  0.0272 -0.3584 -0.9912
15986TIP3   OH269448   0.414   5.056  14.460  0.2226 -0.0521 -0.6548
15986TIP3    H169449   0.400   4.961  14.462 -0.5053  0.0419 -0.7862
15986TIP3    H269450   0.410   5.079  14.367 -1.2919  0.3150 -0.5338
15987TIP3   OH269451   1.062   2.734  11.837  0.7410 -0.0505  0.3925
15987TIP3    H169452   1.077   2.802  11.771 -0.4255 -0.3740 -0.2200
15987TIP3    H269453   0.968   2.722  11.838  0.9903 -3.5820 -1.5156
15988TIP3   OH269454   3.267   2.709   0.224  0.3470 -0.2291  0.4326
15988TIP3    H169455   3.220   2.712   0.307 -1.2933 -1.3228 -0.3969
15988TIP3    H269456   3.215   2.764   0.165  1.1944  0.1103 -0.0231
15989TIP3   OH269457   2.053   2.756  15.235  0.0959  0.0166 -0.0906
15989TIP3    H169458   2.054   2.846  15.267  1.0357 -0.4430  1.2813
15989TIP3    H269459   2.076   2.703  15.312 -1.2560 -1.4786 -0.6465
15990TIP3   OH269460   4.149   1.863   1.726  0.0506  0.4312 -0.0870
15990TIP3    H169461   4.102   1.901   1.651  0.6357  1.7244  0.1718
15990TIP3    H269462   4.145   1.769   1.711 -0.7946  0.6116 -1.1703
15991TIP3   OH269463   3.540   1.277   4.696  0.2230  0.5426 -0.0092
15991TIP3    H169464   3.515   1.187   4.678  0.2005  0.8735 -1.8253
15991TIP3    H269465   3.633   1.272   4.718 -0.0121 -0.0103  0.9366
15992TIP3   OH269466   6.525   3.291   0.283 -0.5108  0.3442  1.0957
15992TIP3    H169467   6.584   3.346   0.231 -1.5452 -0.3255 -0.8388
15992TIP3    H269468   6.551   3.201   0.263 -1.9645  0.0454  0.4505
15993TIP3   OH269469   6.700   1.196   2.764  0.2731  0.5828 -0.1568
15993TIP3    H169470   6.731   1.285   2.750  1.1602  0.1002 -1.4908
15993TIP3    H269471   6.730   1.148   2.686  0.3670 -1.0152  0.8208
15994TIP3   OH269472   6.507   6.837  16.307  0.0680 -0.0812  0.4107
15994TIP3    H169473   6.423   6.827  16.261  0.1453 -0.0317  0.2589
15994TIP3    H269474   6.571   6.847  16.237 -0.0643  1.9760  0.5343
15995TIP3   OH269475   5.354   5.034   1.585  0.3435 -0.0614 -0.1706
15995TIP3    H169476   5.359   5.109   1.644  0.0635  0.7990 -1.2182
15995TIP3    H269477   5.281   5.054   1.527  0.1761 -1.2172 -0.3820
15996TIP3   OH269478   6.543   4.676  14.930 -0.3493  0.4321 -0.3095
15996TIP3    H169479   6.599   4.664  14.853 -0.7488  2.6426 -1.0199
15996TIP3    H269480   6.454   4.668  14.896 -0.5252  1.3060 -0.0768
15997TIP3   OH269481   5.473   0.682   5.430 -0.4828  0.3358  0.1714
15997TIP3    H169482   5.487   0.617   5.499 -0.0992  1.2242  0.9557
15997TIP3    H269483   5.496   0.765   5.471 -0.6154  0.9274 -0.9237
15998TIP3   OH269484   0.200   5.463   4.520 -0.1639  0.1693 -0.5163
15998TIP3    H169485   0.169   5.458   4.610  1.1191 -0.3974 -0.0785
15998TIP3    H269486   0.156   5.540   4.484 -2.4158 -0.8413 -0.1206
15999TIP3   OH269487   4.095   3.804   4.080 -0.4756  0.2699 -0.0050
15999TIP3    H169488   4.021   3.865   4.081  0.0637  0.9472 -0.0204
15999TIP3    H269489   4.121   3.796   4.171  0.8066  1.7939 -0.1886
16000TIP3   OH269490   2.212   5.014   5.951  0.3237 -0.9921  0.3375
16000TIP3    H169491   2.171   4.986   5.870  0.1517  0.3674 -0.0789
16000TIP3    H269492   2.306   5.018   5.931  0.1272  1.1644 -0.4345
16001TIP3   OH269493   6.036   3.069  12.227  0.5097 -0.1782  0.4607
16001TIP3    H169494   6.003   2.998  12.281 -0.3043  0.4182  0.7818
16001TIP3    H269495   6.091   3.121  12.286 -0.0327  0.2337  0.6137
16002TIP3   OH269496   2.436   3.892   4.619  0.2855 -0.0091  0.2473
16002TIP3    H169497   2.406   3.934   4.538 -0.3893  0.0910  0.5404
16002TIP3    H269498   2.531   3.888   4.610  0.2749  0.6069 -0.2597
16003TIP3   OH269499   0.702   6.148   5.431 -0.2855  0.2963  0.7654
16003TIP3    H169500   0.750   6.203   5.493  1.9629 -1.3108  0.5733
16003TIP3    H269501   0.752   6.156   5.350  0.5797 -2.4923  0.9221
16004TIP3   OH269502   6.352   2.393  12.920  0.0714 -0.5625  0.0481
16004TIP3    H169503   6.440   2.392  12.884 -0.2780  0.0061 -0.8318
16004TIP3    H269504   6.341   2.306  12.959  1.5644 -0.1335  1.5564
16005TIP3   OH269505   5.466   0.235   4.339 -0.2077 -0.5607 -0.0926
16005TIP3    H169506   5.497   0.160   4.288 -0.1863 -0.5661 -0.0715
16005TIP3    H269507   5.406   0.197   4.403 -0.0839 -0.5777  0.0130
16006TIP3   OH269508   3.953   4.501   2.795 -0.1043  0.2353  0.0329
16006TIP3    H169509   3.949   4.479   2.702 -0.1499 -0.8185  0.2827
16006TIP3    H269510   3.882   4.564   2.807 -1.3770 -1.1130 -0.2459
16007TIP3   OH269511   1.319   0.844  13.322  0.0639 -0.4966 -0.1612
16007TIP3    H169512   1.353   0.822  13.235 -1.7544 -1.0306 -0.8024
16007TIP3    H269513   1.248   0.906  13.305 -1.2039 -1.6125  0.7885
16008TIP3   OH269514   1.948   0.203   4.754  0.2972  0.3317 -0.2656
16008TIP3    H169515   1.918   0.258   4.826  0.7465  1.3711 -0.8491
16008TIP3    H269516   2.043   0.203   4.763  0.3233  0.0459 -0.5542
16009TIP3   OH269517   3.687   5.527  15.175 -0.0192 -0.5496  0.1070
16009TIP3    H169518   3.624   5.576  15.228 -1.5868 -2.2698 -0.0569
16009TIP3    H269519   3.738   5.477  15.240 -1.2858 -1.9031  0.1247
16010TIP3   OH269520   4.184   6.699   4.451 -0.1505 -0.1701  0.1504
16010TIP3    H169521   4.243   6.714   4.377  1.1187 -1.3055  0.9023
16010TIP3    H269522   4.229   6.734   4.527 -1.3818  0.8530  0.4474
16011TIP3   OH269523   2.726   2.289   2.352 -0.4235 -0.3788  0.6416
16011TIP3    H169524   2.756   2.379   2.360 -0.4806 -0.1863 -1.0414
16011TIP3    H269525   2.782   2.250   2.285 -2.2920 -0.7091 -0.8095
16012TIP3   OH269526   2.469   3.100  16.110 -0.2170 -0.1386 -0.4433
16012TIP3    H169527   2.386   3.060  16.085 -1.6267  0.9217  2.1580
16012TIP3    H269528   2.467   3.186  16.070 -1.2700  0.5649  1.0201
16013TIP3   OH269529   4.810   0.181  13.214 -0.0380  0.1088 -0.0781
16013TIP3    H169530   4.816   0.087  13.230 -0.7603  0.1363  0.4140
16013TIP3    H269531   4.859   0.195  13.133  0.0681 -0.6883 -0.1588
16014TIP3   OH269532   5.305   2.080   5.611 -0.2883 -0.8086  0.4791
16014TIP3    H169533   5.266   2.166   5.627 -4.0457 -1.6602 -2.6630
16014TIP3    H269534   5.284   2.029   5.689 -0.8719  0.2383  1.0311
16015TIP3   OH269535   0.819   5.564   6.038  0.6090  0.1579 -0.0564
16015TIP3    H169536   0.827   5.659   6.030 -0.7327  0.2109 -0.9748
16015TIP3    H269537   0.894   5.529   5.990 -0.2055  0.7369 -1.8254
16016TIP3   OH269538   5.628   5.423   2.542  0.3209  0.3178  0.0133
16016TIP3    H169539   5.668   5.484   2.605  1.9446 -0.2509 -0.4039
16016TIP3    H269540   5.640   5.465   2.457 -1.1769  0.7278 -0.0169
16017TIP3   OH269541   4.010   1.537  11.205 -0.3153 -0.2987  0.0828
16017TIP3    H169542   3.964   1.561  11.286  0.2653  1.4171 -0.0555
16017TIP3    H269543   4.101   1.523  11.232 -0.0867  0.4381 -0.2845
16018TIP3   OH269544   0.874   6.045  14.819  0.2221  0.4478 -0.1079
16018TIP3    H169545   0.859   6.034  14.725  1.5557 -0.1213 -0.2798
16018TIP3    H269546   0.969   6.049  14.827  0.1915 -0.8288  1.3535
16019TIP3   OH269547   0.418   4.563   0.554  0.7248 -0.0389  0.5481
16019TIP3    H169548   0.406   4.577   0.648  3.4644 -1.2872  1.1623
16019TIP3    H269549   0.356   4.494   0.532  0.8778 -0.5798  1.7255
16020TIP3   OH269550   0.330   2.293  15.508  0.1361  0.3886 -0.4564
16020TIP3    H169551   0.319   2.218  15.567 -1.7256  0.1425 -1.0495
16020TIP3    H269552   0.266   2.357  15.539 -0.7325  0.3363 -2.0536
16021TIP3   OH269553   5.819   5.406   5.862  0.3859  0.6165 -0.1723
16021TIP3    H169554   5.746   5.371   5.811 -0.3817 -2.0555  2.4858
16021TIP3    H269555   5.895   5.357   5.831  0.1738  0.0205  0.2263
16022TIP3   OH269556   3.653   3.386   1.354 -0.3943 -0.6168  0.7555
16022TIP3    H169557   3.595   3.462   1.355 -0.4998 -0.6913  0.2676
16022TIP3    H269558   3.623   3.333   1.280  0.9665 -0.1481 -0.1561
16023TIP3   OH269559   6.432   3.199   2.363  0.3789 -0.4102  0.4638
16023TIP3    H169560   6.419   3.292   2.340  0.1358 -0.5341  0.0852
16023TIP3    H269561   6.527   3.189   2.366  0.4428 -0.4747 -0.9243
16024TIP3   OH269562   0.251   6.060   5.398 -0.3823 -0.4314 -0.3328
16024TIP3    H169563   0.245   6.026   5.309  0.2989  0.0341 -0.5595
16024TIP3    H269564   0.186   6.130   5.401  1.0897  1.0346 -1.1581
16025TIP3   OH269565   3.551   3.475  11.049 -0.3445 -0.6680  0.6864
16025TIP3    H169566   3.529   3.568  11.054 -0.9435 -0.8028  0.6449
16025TIP3    H269567   3.530   3.450  10.959 -2.7104 -1.4387  1.3706
16026TIP3   OH269568   3.382   2.586  16.062 -0.0448  0.0303  0.3451
16026TIP3    H169569   3.321   2.550  15.998 -1.0043  1.3508  0.4569
16026TIP3    H269570   3.364   2.538  16.142 -1.4902  0.8846  0.5631
16027TIP3   OH269571   5.311   1.375  15.987 -0.1385 -0.0147 -0.4090
16027TIP3    H169572   5.294   1.283  16.009  0.6322  0.0246  0.4249
16027TIP3    H269573   5.230   1.406  15.946 -0.1671 -1.2534 -1.3496
16028TIP3   OH269574   6.381   0.946   2.665  0.2135  0.0972 -0.1243
16028TIP3    H169575   6.441   0.984   2.729 -0.4922  0.4667  0.3233
16028TIP3    H269576   6.410   0.855   2.657 -0.9017 -0.5598  2.2483
16029TIP3   OH269577   6.730   3.406  17.068 -0.4022 -0.5755 -0.0967
16029TIP3    H169578   6.803   3.387  17.008 -0.2237 -2.2290  0.5746
16029TIP3    H269579   6.658   3.432  17.010 -0.2944 -2.3144 -1.0930
16030TIP3   OH269580   4.929   5.194   4.631  0.5327  0.3316  0.2939
16030TIP3    H169581   4.935   5.187   4.727 -1.1206  0.5153  0.4493
16030TIP3    H269582   5.002   5.141   4.598  0.6457 -0.4071  1.6515
16031TIP3   OH269583   4.575   3.423   1.672  0.2203 -0.2690  0.3975
16031TIP3    H169584   4.589   3.502   1.724 -2.4140  0.3713  0.2947
16031TIP3    H269585   4.480   3.409   1.676  0.3037 -1.9097 -1.7830
16032TIP3   OH269586   0.157   5.661   3.080 -0.0632  0.0323 -0.5192
16032TIP3    H169587   0.153   5.685   2.988  0.4722 -0.9134 -0.8117
16032TIP3    H269588   0.251   5.655   3.099 -0.1693  0.2258  0.0885
16033TIP3   OH269589   6.234   5.475   1.905  0.2591  0.0379 -0.1132
16033TIP3    H169590   6.310   5.504   1.955  0.7101 -0.6235 -0.3874
16033TIP3    H269591   6.232   5.533   1.829  0.8225 -0.2863 -0.3827
16034TIP3   OH269592   4.492   3.331   0.012 -0.1391 -0.4430 -0.8764
16034TIP3    H169593   4.483   3.238  -0.012 -0.1271 -1.0126  1.1694
16034TIP3    H269594   4.409   3.353   0.054  0.7539 -0.2604  0.8636
16035TIP3   OH269595   6.089   5.990  16.709  0.0634 -0.3895  0.4219
16035TIP3    H169596   6.086   5.896  16.696 -0.9288 -0.8296  3.1495
16035TIP3    H269597   6.147   6.002  16.785 -2.4416  0.8101  2.2843
16036TIP3   OH269598   3.967   3.343   4.557  0.3753 -0.1019  0.3703
16036TIP3    H169599   3.923   3.278   4.610  0.4491 -0.8692 -0.4861
16036TIP3    H269600   4.024   3.292   4.499  1.1273  0.7711  0.3175
16037TIP3   OH269601   6.652   2.547  12.390  0.4678 -0.1890 -0.3015
16037TIP3    H169602   6.583   2.597  12.345  0.2792  2.2210  2.3806
16037TIP3    H269603   6.733   2.575  12.348  0.3307  2.2997  0.9282
16038TIP3   OH269604   1.330   4.633   4.099 -0.4118 -0.3041  0.3940
16038TIP3    H169605   1.396   4.701   4.112 -0.6773  0.5185 -1.9442
16038TIP3    H269606   1.247   4.676   4.122 -0.3773 -0.5780  1.0531
16039TIP3   OH269607   0.181   0.473  11.373  0.1066  0.6878  0.1682
16039TIP3    H169608   0.135   0.464  11.289  1.8408 -1.6534 -0.6381
16039TIP3    H269609   0.152   0.398  11.425  2.4905 -0.5570 -0.1715
16040TIP3   OH269610   3.727   0.601  15.208 -0.2946 -0.7354  0.1960
16040TIP3    H169611   3.746   0.678  15.260  1.8146 -0.7325 -0.4847
16040TIP3    H269612   3.744   0.527  15.266  3.7837 -0.7943 -0.7912
16041TIP3   OH269613   4.808   5.267   5.910 -0.4766  0.2756  0.1015
16041TIP3    H169614   4.780   5.282   6.000 -1.8731 -0.7196 -0.1401
16041TIP3    H269615   4.902   5.250   5.917 -0.9489 -2.1768  1.6991
16042TIP3   OH269616   1.953   2.584  14.892  0.1054  0.0206  0.0198
16042TIP3    H169617   1.885   2.553  14.832 -0.3321 -1.4757  1.2256
16042TIP3    H269618   1.953   2.520  14.963  0.8721  1.5360  1.4376
16043TIP3   OH269619   0.232   6.531  14.990 -0.7751  0.5921 -0.1879
16043TIP3    H169620   0.174   6.532  15.066  1.7714 -1.3069  1.9638
16043TIP3    H269621   0.227   6.441  14.957 -0.2467  0.8330 -0.9640
16044TIP3   OH269622   0.144   4.743   1.500  0.0199  0.3446 -0.3350
16044TIP3    H169623   0.224   4.735   1.551  0.6862 -1.2899 -1.5250
16044TIP3    H269624   0.098   4.817   1.538  1.8697  1.0374  0.6859
16045TIP3   OH269625   3.381   3.661   6.198 -0.4432 -0.6072  0.4333
16045TIP3    H169626   3.364   3.588   6.139 -0.2196 -1.5839  1.5441
16045TIP3    H269627   3.403   3.620   6.282  0.5745  0.7105  0.8577
16046TIP3   OH269628   3.027   4.212  15.664  0.0219 -0.4600 -0.2147
16046TIP3    H169629   3.099   4.275  15.673  0.1442 -0.3710 -1.6050
16046TIP3    H269630   3.005   4.188  15.754  3.1155 -1.9827  0.2987
16047TIP3   OH269631   0.642   4.982   4.873  0.1032  0.7215  0.0697
16047TIP3    H169632   0.655   5.049   4.940  1.8253 -0.5327  1.0823
16047TIP3    H269633   0.728   4.941   4.864 -0.4846 -0.2113 -1.7711
16048TIP3   OH269634   0.336   5.662  16.503  0.1284  0.4486 -0.4930
16048TIP3    H169635   0.381   5.696  16.426 -0.2069 -1.1508 -1.4202
16048TIP3    H269636   0.372   5.574  16.515 -1.7508 -0.3369 -0.4334
16049TIP3   OH269637   0.273   4.724   5.339 -0.0648  0.2060  0.1459
16049TIP3    H169638   0.369   4.716   5.333 -0.2080 -1.5909 -0.1708
16049TIP3    H269639   0.246   4.647   5.389 -1.3710  0.6734  0.1790
16050TIP3   OH269640   3.474   6.497   3.681 -0.1249 -0.2176  0.0831
16050TIP3    H169641   3.490   6.459   3.767  0.5556 -0.8079 -0.3002
16050TIP3    H269642   3.451   6.588   3.699  0.5806 -0.1870  0.8474
16051TIP3   OH269643   2.542   5.284   0.940 -0.3399  0.1014 -0.2289
16051TIP3    H169644   2.599   5.278   0.864  0.2779  0.5608  0.1858
16051TIP3    H269645   2.586   5.347   0.998  0.1653 -1.6217  1.3322
16052TIP3   OH269646   5.310   1.704   5.378 -0.2296 -0.0799  0.3039
16052TIP3    H169647   5.329   1.639   5.311 -1.2705 -1.4870  1.3068
16052TIP3    H269648   5.245   1.762   5.339 -0.1798 -0.3623 -0.1951
16053TIP3   OH269649   2.061   6.357  14.855  0.6430 -0.0734  0.0279
16053TIP3    H169650   2.126   6.296  14.821 -0.8598 -0.4410 -2.4802
16053TIP3    H269651   2.015   6.309  14.923  0.5779 -1.1763 -0.7699
16054TIP3   OH269652   1.887   4.686  12.882 -0.7900  0.5549  0.1930
16054TIP3    H169653   1.903   4.600  12.843 -2.8569  0.1835  0.0694
16054TIP3    H269654   1.927   4.748  12.821 -0.8999 -0.2307 -0.6924
16055TIP3   OH269655   1.273   4.329  11.832  0.0283  0.0181  0.1053
16055TIP3    H169656   1.271   4.244  11.789 -1.4686 -0.0378  0.2540
16055TIP3    H269657   1.197   4.376  11.798 -0.4691  0.4436  1.6897
16056TIP3   OH269658   2.783   1.096  12.020 -0.5224 -0.6689 -0.1775
16056TIP3    H169659   2.846   1.151  11.973  1.0502 -1.1352  1.2881
16056TIP3    H269660   2.734   1.157  12.075 -0.0929 -0.4923  0.0165
16057TIP3   OH269661   6.130   1.981   3.474 -0.0116 -0.2425  0.2723
16057TIP3    H169662   6.092   2.056   3.520 -0.2256 -0.2540  0.1162
16057TIP3    H269663   6.224   1.994   3.482 -0.0446  0.2227 -0.0382
16058TIP3   OH269664   0.428   2.853  14.481  0.2704 -0.0110 -0.4210
16058TIP3    H169665   0.479   2.787  14.434  1.9992  2.0727 -1.6598
16058TIP3    H269666   0.380   2.900  14.412 -1.7631 -0.5901  0.5355
16059TIP3   OH269667   3.879   5.120  15.943 -0.4636 -0.2622  0.0743
16059TIP3    H169668   3.863   5.182  15.873 -0.7098 -0.0165  0.3494
16059TIP3    H269669   3.947   5.161  15.996 -0.5058 -0.3046  0.1609
16060TIP3   OH269670   4.312   3.796  14.098  0.1901  0.0981  0.3100
16060TIP3    H169671   4.303   3.886  14.068  1.2945  0.1285  0.0170
16060TIP3    H269672   4.223   3.761  14.096 -0.0996  0.8361 -0.6881
16061TIP3   OH269673   0.851   5.817   0.779  0.5112  0.0341 -0.8506
16061TIP3    H169674   0.803   5.747   0.736 -1.6470  1.1979 -0.5111
16061TIP3    H269675   0.837   5.894   0.723  0.3624  0.8370  0.2543
16062TIP3   OH269676   6.150   2.021  13.834  1.0000  0.6764  0.1763
16062TIP3    H169677   6.179   2.022  13.743  0.5027  1.0963  0.0128
16062TIP3    H269678   6.150   2.113  13.860 -0.3430  0.7235  0.1010
16063TIP3   OH269679   4.696   1.886  13.119  0.4508  0.2258  0.3866
16063TIP3    H169680   4.683   1.948  13.191 -0.4726  0.5532 -0.0425
16063TIP3    H269681   4.653   1.806  13.147  0.4557  0.2178  0.3701
16064TIP3   OH269682   3.076   1.392   6.328  0.8705 -0.2582 -0.2713
16064TIP3    H169683   3.068   1.341   6.409  1.2203  1.0035  0.6010
16064TIP3    H269684   3.113   1.331   6.264 -1.2730 -1.8727 -0.0923
16065TIP3   OH269685   4.223   1.556  16.438  0.7815  0.8670  0.4208
16065TIP3    H169686   4.182   1.538  16.354 -0.1201  0.9351  0.8389
16065TIP3    H269687   4.274   1.476  16.457  2.1075  1.3764 -0.8053
16066TIP3   OH269688   3.137   5.751  11.573 -0.0966 -0.3555  0.1297
16066TIP3    H169689   3.199   5.747  11.500  1.7238 -0.7210  1.6206
16066TIP3    H269690   3.107   5.842  11.574 -0.2650 -0.3783 -1.1390
16067TIP3   OH269691   2.742   6.224  14.900  0.3076 -0.1991  0.0987
16067TIP3    H169692   2.805   6.172  14.950  0.6951 -0.6101 -0.7912
16067TIP3    H269693   2.778   6.226  14.811 -1.2402 -0.9534 -0.5856
16068TIP3   OH269694   4.024   3.076  12.466 -0.7717 -0.1465 -0.4668
16068TIP3    H169695   4.095   3.092  12.528 -1.3448  0.8661 -0.0547
16068TIP3    H269696   4.029   3.148  12.404 -1.0957 -0.3782 -0.7685
16069TIP3   OH269697   3.322   2.826   1.761  0.3229  0.6728 -0.1744
16069TIP3    H169698   3.258   2.777   1.813  1.8909 -0.0510  1.1758
16069TIP3    H269699   3.310   2.796   1.672 -1.7072  1.1200 -0.0922
16070TIP3   OH269700   5.936   3.085  14.909  0.1583  0.0770 -0.5253
16070TIP3    H169701   5.898   3.073  14.822 -2.7354  0.6084  0.5812
16070TIP3    H269702   5.954   2.996  14.940  2.1042 -0.1031 -1.9227
16071TIP3   OH269703   2.163   2.311  16.334  0.1659 -0.8084  0.4234
16071TIP3    H169704   2.250   2.282  16.309  0.5442  2.1367 -2.3423
16071TIP3    H269705   2.103   2.253  16.287  0.8025  0.2090 -1.7625
16072TIP3   OH269706   4.220   3.491   6.163 -0.2291  0.3038  0.0025
16072TIP3    H169707   4.293   3.430   6.152  0.6244  1.4385 -0.7972
16072TIP3    H269708   4.143   3.441   6.134  0.0477 -1.2149  1.7300
16073TIP3   OH269709   3.151   2.579   3.876  0.0682  0.5949 -0.0004
16073TIP3    H169710   3.167   2.520   3.802 -1.5924 -0.2813  0.3071
16073TIP3    H269711   3.197   2.537   3.950  0.5133  0.7138 -0.2057
16074TIP3   OH269712   4.616   5.770   0.547 -0.0132 -0.1729  0.2359
16074TIP3    H169713   4.573   5.855   0.542 -2.3266 -1.2694 -0.0778
16074TIP3    H269714   4.604   5.742   0.638 -0.7548 -0.8545 -0.0601
16075TIP3   OH269715   2.502   2.122  13.332 -0.7401 -0.0266 -0.1276
16075TIP3    H169716   2.423   2.126  13.386 -0.4921 -2.2855  0.4907
16075TIP3    H269717   2.482   2.060  13.262  0.6271 -1.0822  0.3618
16076TIP3   OH269718   4.300   0.219   2.861  0.3670 -0.1469 -0.0912
16076TIP3    H169719   4.300   0.245   2.769 -0.2817 -0.7082 -0.2583
16076TIP3    H269720   4.210   0.231   2.890  0.8155  1.2032  0.8312
16077TIP3   OH269721   4.732   0.785   1.902 -0.3556 -0.6526 -0.1383
16077TIP3    H169722   4.727   0.865   1.955  1.6559 -1.4255  1.3416
16077TIP3    H269723   4.705   0.813   1.814 -1.3628  1.2421  0.7007
16078TIP3   OH269724   2.608   3.694   2.963  0.4971 -0.2331  0.0942
16078TIP3    H169725   2.672   3.624   2.975  2.0064  0.9336 -0.7337
16078TIP3    H269726   2.608   3.742   3.046  2.6614  1.2473 -0.6530
16079TIP3   OH269727   3.614   4.417   2.663 -0.6055 -0.5772  0.0925
16079TIP3    H169728   3.679   4.445   2.599 -1.1074  0.2464 -0.0706
16079TIP3    H269729   3.629   4.472   2.740 -0.6787 -0.8462  0.3048
16080TIP3   OH269730   5.220   1.194  13.906 -0.0536 -0.1829 -0.1991
16080TIP3    H169731   5.285   1.251  13.863  0.8722 -0.0089  1.3225
16080TIP3    H269732   5.266   1.162  13.984 -0.7519 -2.6140 -0.7281
16081TIP3   OH269733   1.123   2.693  12.773 -0.6710 -0.1547  0.2503
16081TIP3    H169734   1.188   2.724  12.710 -0.5690 -1.0469 -0.0987
16081TIP3    H269735   1.039   2.717  12.736 -0.5802  0.1887  0.2581
16082TIP3   OH269736   5.102   3.195  13.309 -0.7565 -0.0716 -0.3949
16082TIP3    H169737   5.146   3.153  13.383  0.8361 -1.2781 -1.9192
16082TIP3    H269738   5.078   3.122  13.252 -0.1847  0.9099 -1.9586
16083TIP3   OH269739   0.781   3.181   2.541 -0.2198  0.6648 -0.0287
16083TIP3    H169740   0.855   3.121   2.546 -0.2031  0.6441 -0.5260
16083TIP3    H269741   0.820   3.265   2.516 -0.2317  0.9078  0.7391
16084TIP3   OH269742   1.810   5.017   0.299  0.9382 -0.5239 -0.4277
16084TIP3    H169743   1.836   5.109   0.302  2.6277 -0.9634 -0.7707
16084TIP3    H269744   1.811   4.988   0.391  0.6588 -0.2883 -0.3471
16085TIP3   OH269745   2.295   1.143   1.701 -0.0240 -0.5170 -0.1359
16085TIP3    H169746   2.281   1.234   1.726  1.4765 -0.2940 -0.0654
16085TIP3    H269747   2.266   1.093   1.777 -0.1246 -0.0632  0.1257
16086TIP3   OH269748   5.198   2.989   5.288  0.3859 -0.0157  0.2073
16086TIP3    H169749   5.159   2.962   5.205  0.6317 -1.2416  0.4771
16086TIP3    H269750   5.251   2.914   5.316  1.0395  0.7302  1.0176
16087TIP3   OH269751   0.173   2.714  15.809  0.0241 -0.3624 -0.5255
16087TIP3    H169752   0.252   2.672  15.774 -0.2993  0.6405 -2.5960
16087TIP3    H269753   0.205   2.795  15.848 -0.0115  0.3760 -1.9654
16088TIP3   OH269754   4.757   0.082  15.086  0.2749  0.2537 -0.2238
16088TIP3    H169755   4.738  -0.008  15.113 -1.1489  0.2852 -1.0433
16088TIP3    H269756   4.841   0.075  15.040 -0.8110 -1.0741 -2.1397
16089TIP3   OH269757   0.640   3.440   6.508  0.2465  0.5418 -0.1109
16089TIP3    H169758   0.632   3.467   6.417 -1.0595  1.2627  0.2084
16089TIP3    H269759   0.717   3.382   6.508 -0.4000 -0.4170 -1.8782
16090TIP3   OH269760   1.019   1.026  17.145  0.3620  0.1970 -0.4888
16090TIP3    H169761   1.072   1.106  17.144  0.4932  0.1106 -0.6218
16090TIP3    H269762   1.046   0.981  17.225 -0.1653  0.5819 -0.0904
16091TIP3   OH269763   5.518   3.072   5.892  0.4197 -0.5533 -0.1396
16091TIP3    H169764   5.470   3.079   5.809  0.3683 -0.4934 -0.1045
16091TIP3    H269765   5.590   3.133   5.883 -0.0706  0.0823  0.1949
16092TIP3   OH269766   4.255   0.426  16.249 -0.0023  0.4812 -0.2432
16092TIP3    H169767   4.285   0.449  16.161  1.7501 -0.0302  0.1974
16092TIP3    H269768   4.303   0.484  16.307 -0.2725  0.0217  0.4531
16093TIP3   OH269769   6.480   1.897  14.558  0.1110  0.5368  0.0053
16093TIP3    H169770   6.519   1.913  14.472 -1.0882  2.2118 -0.2693
16093TIP3    H269771   6.553   1.908  14.619  0.1760  3.6261 -0.4977
16094TIP3   OH269772   0.318   5.049  13.884  0.2553  0.3282 -0.6809
16094TIP3    H169773   0.239   5.099  13.908  0.1061  0.9119 -2.2103
16094TIP3    H269774   0.299   4.959  13.911 -0.5670  0.6214 -0.2324
16095TIP3   OH269775   1.222   2.328  15.725 -0.2283 -0.0280 -0.0486
16095TIP3    H169776   1.307   2.285  15.733  1.2177  2.7796  1.0775
16095TIP3    H269777   1.178   2.281  15.654  0.9697 -3.4987  1.2914
16096TIP3   OH269778   1.666   4.857  15.207 -0.1345  0.4904 -0.2833
16096TIP3    H169779   1.679   4.849  15.301 -0.0073 -2.3421 -0.4560
16096TIP3    H269780   1.592   4.917  15.198  0.5460  1.7079  1.5048
16097TIP3   OH269781   4.543   5.140  17.041 -0.0746 -0.1419 -0.5073
16097TIP3    H169782   4.484   5.142  17.116  0.9208 -2.1632  0.4025
16097TIP3    H269783   4.627   5.111  17.077  1.3921  2.1011 -1.8368
16098TIP3   OH269784   6.212   6.338   0.449  0.2817 -0.1883  0.3921
16098TIP3    H169785   6.175   6.397   0.514 -0.1468 -0.6160  0.5357
16098TIP3    H269786   6.195   6.251   0.482  0.2770 -0.4086 -0.1721
16099TIP3   OH269787   1.483   1.836  16.559 -0.0672 -0.2968  0.4004
16099TIP3    H169788   1.485   1.811  16.651  0.8225  0.3528  0.5733
16099TIP3    H269789   1.569   1.810  16.525 -0.6815 -1.2707 -0.4596
16100TIP3   OH269790   5.307   1.269  13.029 -0.5530 -0.4297 -0.4544
16100TIP3    H169791   5.229   1.313  12.993 -0.9842 -1.0553 -0.2979
16100TIP3    H269792   5.359   1.339  13.068 -0.3582  0.1961 -1.7848
16101TIP3   OH269793   5.274   3.880   4.709  0.4536  0.1012 -0.5059
16101TIP3    H169794   5.358   3.926   4.709  0.4311  0.1411 -1.2390
16101TIP3    H269795   5.287   3.804   4.653 -0.6045  1.2417 -2.4039
16102TIP3   OH269796   4.138   6.303  13.641  0.2715 -0.0451  0.2624
16102TIP3    H169797   4.063   6.245  13.656 -0.0126  0.6198  1.6008
16102TIP3    H269798   4.099   6.386  13.612  0.5690 -0.0411 -0.1339
16103TIP3   OH269799   5.511   5.069   0.795 -0.3193 -0.5634  0.1469
16103TIP3    H169800   5.546   5.116   0.719 -1.1522  0.2219  0.2295
16103TIP3    H269801   5.419   5.055   0.773 -0.7189  0.1927  1.2415
16104TIP3   OH269802   6.241   5.865   3.685  0.6615 -0.0384  0.4218
16104TIP3    H169803   6.211   5.917   3.610 -2.1280  0.2572  1.6025
16104TIP3    H269804   6.232   5.774   3.656  0.5497  0.0845  0.0677
16105TIP3   OH269805   4.775   2.868  17.134  0.1374 -0.5533 -0.3676
16105TIP3    H169806   4.684   2.888  17.113  0.1760 -1.9303 -2.1412
16105TIP3    H269807   4.784   2.774  17.115  1.9980 -0.3909 -0.5505
16106TIP3   OH269808   4.391   3.392   3.161 -0.5262  0.4433 -0.0149
16106TIP3    H169809   4.411   3.433   3.245  1.3650  0.2367 -0.3036
16106TIP3    H269810   4.328   3.451   3.120 -0.4498  1.2519  0.9851
16107TIP3   OH269811   5.591   2.980  16.878  0.4290  0.1905 -0.4621
16107TIP3    H169812   5.651   2.911  16.908  0.6682  0.3698 -0.5257
16107TIP3    H269813   5.519   2.932  16.836  0.7879 -0.0114 -0.8587
16108TIP3   OH269814   1.627   0.757  15.380 -0.1069 -0.3680  0.4390
16108TIP3    H169815   1.593   0.796  15.461 -2.3707 -0.3819 -0.4313
16108TIP3    H269816   1.670   0.830  15.334 -1.6153  0.4305  0.2290
16109TIP3   OH269817   2.970   2.451  13.036  0.2850  0.1677 -0.3662
16109TIP3    H169818   2.936   2.479  12.951  0.2621 -0.7048 -0.6582
16109TIP3    H269819   3.063   2.469  13.032  0.5058 -0.9919 -1.0718
16110TIP3   OH269820   2.486   6.834  14.666 -0.8481 -0.2618  0.0670
16110TIP3    H169821   2.540   6.855  14.590 -0.4917 -0.5443  0.2372
16110TIP3    H269822   2.502   6.741  14.681 -1.9354 -0.5227 -0.3151
16111TIP3   OH269823   6.341   4.347  11.353  0.3888 -0.1714 -0.3938
16111TIP3    H169824   6.318   4.292  11.278  0.7456  1.4080 -1.7453
16111TIP3    H269825   6.436   4.356  11.347  0.3857  0.2186  0.0804
16112TIP3   OH269826   6.798   6.768  12.850  0.1071  0.2518  0.4653
16112TIP3    H169827   6.856   6.835  12.815 -1.4487  0.6554 -1.4897
16112TIP3    H269828   6.714   6.785  12.808 -0.7871 -1.8192  1.3154
16113TIP3   OH269829   1.799   2.765  11.942  0.0804 -0.0149  0.2817
16113TIP3    H169830   1.891   2.744  11.955  0.6625  1.3489 -1.2429
16113TIP3    H269831   1.776   2.724  11.858  0.0039  1.5686 -0.5169
16114TIP3   OH269832   4.824   0.622  12.473 -0.2444 -0.0004 -0.1213
16114TIP3    H169833   4.773   0.657  12.401 -1.2896 -0.7392  0.2378
16114TIP3    H269834   4.906   0.593  12.433 -0.0111  1.3571 -0.6723
16115TIP3   OH269835   3.316   2.115   4.758  0.0166  0.3467 -0.5992
16115TIP3    H169836   3.368   2.060   4.817  1.0782  1.8362 -0.0903
16115TIP3    H269837   3.241   2.143   4.812  0.0899  0.3301 -0.4876
16116TIP3   OH269838   1.632   6.462  13.395  0.3592  0.0065 -0.8389
16116TIP3    H169839   1.672   6.376  13.379  1.7493  0.4815 -0.1301
16116TIP3    H269840   1.705   6.518  13.421 -0.6206  1.2431 -0.6336
16117TIP3   OH269841   4.730   0.365  12.068 -0.7380  0.2988  0.2909
16117TIP3    H169842   4.817   0.327  12.055 -0.5586  1.2286 -1.5335
16117TIP3    H269843   4.683   0.345  11.987 -1.7795  0.9699  0.7068
16118TIP3   OH269844   4.407   2.290   4.456  0.2588 -0.0298  0.3531
16118TIP3    H169845   4.344   2.339   4.509  0.3879  0.9032 -0.3259
16118TIP3    H269846   4.464   2.247   4.519 -0.4395 -0.0675  0.9685
16119TIP3   OH269847   5.155   6.536  13.411  0.1079 -0.2990  0.3666
16119TIP3    H169848   5.109   6.583  13.341 -0.9201  1.6992  2.2720
16119TIP3    H269849   5.085   6.507  13.470  0.8854 -2.6355  0.2588
16120TIP3   OH269850   6.446   3.915   2.416 -0.8351 -0.0466 -0.4854
16120TIP3    H169851   6.540   3.918   2.399 -0.2653 -2.2408  1.6949
16120TIP3    H269852   6.432   3.980   2.485 -0.9044  0.1707 -0.7021
16121TIP3   OH269853   0.566   3.969  10.912  0.1578 -0.2021 -0.1757
16121TIP3    H169854   0.543   3.902  10.847  0.5528  0.4449 -1.0052
16121TIP3    H269855   0.481   3.997  10.947 -0.0437 -0.7784 -0.1885
16122TIP3   OH269856   4.252   2.946  14.805  0.5716 -0.0234 -0.4302
16122TIP3    H169857   4.181   2.906  14.855  0.6072 -0.4490 -0.7208
16122TIP3    H269858   4.215   2.960  14.717 -0.2712  2.8034  0.2535
16123TIP3   OH269859   0.103   0.667  13.704 -0.5542 -0.3742  0.2333
16123TIP3    H169860   0.053   0.609  13.647  1.6805 -1.4006 -0.7929
16123TIP3    H269861   0.159   0.717  13.645  1.4901 -1.1329  1.4076
16124TIP3   OH269862   2.989   6.569   5.885  0.2747  0.4876 -0.3196
16124TIP3    H169863   3.044   6.611   5.951  0.2387 -0.3122  0.2345
16124TIP3    H269864   2.974   6.637   5.820 -0.8407  1.7440  1.1749
16125TIP3   OH269865   3.558   0.355   0.241  0.5495 -0.4270 -0.1126
16125TIP3    H169866   3.649   0.382   0.252  0.3643 -0.3391  1.4617
16125TIP3    H269867   3.562   0.260   0.231  0.8263 -0.3953 -0.3095
16126TIP3   OH269868   2.983   2.496   5.379  0.3820 -0.0687 -0.0343
16126TIP3    H169869   2.998   2.481   5.472 -1.2494  0.8824  0.4120
16126TIP3    H269870   2.892   2.471   5.364  0.7583 -0.7067 -1.5066
16127TIP3   OH269871   3.169   0.330   2.274 -0.3811 -0.1170  0.4003
16127TIP3    H169872   3.110   0.268   2.318 -1.0270  0.9566  1.0865
16127TIP3    H269873   3.167   0.303   2.182 -1.7976 -0.2247  0.4382
16128TIP3   OH269874   4.806   1.536  15.369 -0.3959  0.3529 -0.3693
16128TIP3    H169875   4.845   1.474  15.307 -1.4002  0.2365 -0.9058
16128TIP3    H269876   4.793   1.485  15.449  1.0784  0.5531  0.0158
16129TIP3   OH269877   1.267   2.089  12.130  0.2528  0.7186 -0.7744
16129TIP3    H169878   1.325   2.042  12.070 -2.2458 -4.0020 -0.0202
16129TIP3    H269879   1.286   2.051  12.216 -0.3809  2.9185  0.3914
16130TIP3   OH269880   1.322   4.908   3.144  0.1018 -0.2199  0.1724
16130TIP3    H169881   1.373   4.828   3.156 -0.2343 -0.6289 -1.0126
16130TIP3    H269882   1.386   4.978   3.153  0.4315 -0.6142  1.0562
16131TIP3   OH269883   6.825   4.004   1.492  0.1579 -0.0691  0.4362
16131TIP3    H169884   6.846   4.094   1.516 -0.8818 -0.1855  1.9694
16131TIP3    H269885   6.802   4.008   1.399  2.4192  0.7969 -0.1445
16132TIP3   OH269886   2.337   0.882  17.003  0.2141  0.1148  0.1602
16132TIP3    H169887   2.350   0.883  16.908 -1.6675 -0.3665 -0.1345
16132TIP3    H269888   2.287   0.961  17.022  0.6534  0.2542  0.7873
16133TIP3   OH269889   4.063   2.472  13.415 -0.1345  0.5779 -0.1917
16133TIP3    H169890   3.985   2.500  13.368  0.4244  1.4374 -0.6407
16133TIP3    H269891   4.030   2.420  13.488 -1.1072  0.7005 -0.5321
16134TIP3   OH269892   2.496   1.664   5.370  0.1169 -0.7080 -0.8620
16134TIP3    H169893   2.447   1.719   5.430 -0.4188  0.1455 -2.0606
16134TIP3    H269894   2.562   1.621   5.425 -0.6673 -0.3160  0.4007
16135TIP3   OH269895   6.063   6.160  15.920 -0.0694  0.3655  0.3460
16135TIP3    H169896   6.114   6.163  16.001  0.4534  0.6256  0.0106
16135TIP3    H269897   6.079   6.244  15.878  0.1274  0.0124 -0.3062
16136TIP3   OH269898   0.941   1.777   2.201 -0.0059 -0.4819  0.5456
16136TIP3    H169899   0.895   1.722   2.137 -0.7202  1.9169 -1.1562
16136TIP3    H269900   0.873   1.809   2.259  0.2653 -0.5826  0.9292
16137TIP3   OH269901   2.371   3.311  17.086  0.1034  0.3707 -0.5367
16137TIP3    H169902   2.356   3.368  17.011 -1.0125  0.9235  0.0724
16137TIP3    H269903   2.456   3.338  17.121  0.7643 -0.0794 -1.7428
16138TIP3   OH269904   3.630   2.697   0.843  0.2516 -0.5434  0.1125
16138TIP3    H169905   3.657   2.766   0.904  0.2665  0.3493 -0.8885
16138TIP3    H269906   3.562   2.649   0.891 -0.7734  1.0319  0.3152
16139TIP3   OH269907   5.913   5.485  15.105 -0.2878  0.2478 -0.0460
16139TIP3    H169908   5.994   5.526  15.134  0.2664 -1.8833  1.7340
16139TIP3    H269909   5.940   5.407  15.057 -1.2945  0.3685 -0.8566
16140TIP3   OH269910   2.044   3.751   0.669 -0.6718 -0.6152 -0.1193
16140TIP3    H169911   2.038   3.669   0.717  1.5759 -1.1758 -0.7193
16140TIP3    H269912   2.092   3.810   0.726  0.0799 -0.5833 -0.7688
16141TIP3   OH269913   6.634   0.280  14.394  0.3706 -0.3552  0.5298
16141TIP3    H169914   6.647   0.244  14.481  1.4030 -0.3374  0.4042
16141TIP3    H269915   6.705   0.344  14.384 -1.1617  1.4204  0.5838
16142TIP3   OH269916   2.696   3.775   0.755 -0.6300 -0.0076  0.6877
16142TIP3    H169917   2.760   3.722   0.710 -1.4286  1.2931 -2.1971
16142TIP3    H269918   2.667   3.721   0.829  1.6148 -1.7518  0.3758
16143TIP3   OH269919   3.137   1.903   2.279  0.9063  0.2809  0.0853
16143TIP3    H169920   3.128   1.955   2.199 -0.7267  0.5547  0.3938
16143TIP3    H269921   3.208   1.842   2.261  2.4600  2.1619 -0.5383
16144TIP3   OH269922   5.252   4.423  11.639 -0.3068 -0.0597  0.5214
16144TIP3    H169923   5.263   4.404  11.732 -0.6904 -0.7427  0.4359
16144TIP3    H269924   5.207   4.346  11.604 -0.3454  0.2768 -0.1900
16145TIP3   OH269925   0.291   3.311   5.152 -0.6364 -0.1686  0.1775
16145TIP3    H169926   0.301   3.403   5.176  1.5039 -0.1635 -0.5651
16145TIP3    H269927   0.196   3.298   5.145 -1.0727  1.4770  2.0907
16146TIP3   OH269928   1.323   2.876   5.449 -0.4949 -0.3591  0.3876
16146TIP3    H169929   1.351   2.853   5.537 -0.4655 -3.0047 -0.2390
16146TIP3    H269930   1.233   2.845   5.443 -0.6974  0.3254 -0.3370
16147TIP3   OH269931   0.960   2.594  14.680 -0.2589  0.2507  0.0053
16147TIP3    H169932   0.904   2.589  14.758  0.0831 -1.9668  0.1590
16147TIP3    H269933   0.955   2.507  14.641  2.1752  0.3385 -0.6418
16148TIP3   OH269934   3.720   6.115  15.097  0.0558  0.2345 -0.3878
16148TIP3    H169935   3.644   6.111  15.039  0.2055  0.5247 -0.6032
16148TIP3    H269936   3.793   6.088  15.043 -0.1325 -1.7331  0.2626
16149TIP3   OH269937   0.905   2.745   0.712 -0.1320  0.4346 -0.6385
16149TIP3    H169938   0.969   2.813   0.691 -2.3736  2.4858 -1.3533
16149TIP3    H269939   0.832   2.762   0.652 -1.5978 -1.4085  0.5154
16150TIP3   OH269940   6.453   3.368   4.256  0.3165  0.4936 -0.4310
16150TIP3    H169941   6.538   3.326   4.245  0.1244  0.0603 -0.2677
16150TIP3    H269942   6.408   3.355   4.172  0.0363 -0.1408 -0.1938
16151TIP3   OH269943   6.329   4.917  11.485  0.1970 -0.7557 -0.2675
16151TIP3    H169944   6.341   4.822  11.488  0.4385 -0.7688 -1.1166
16151TIP3    H269945   6.261   4.935  11.549  0.5689 -1.4316  0.3385
16152TIP3   OH269946   0.312   1.819   0.545  0.2199  0.2528  0.2760
16152TIP3    H169947   0.348   1.893   0.496 -1.9636  0.7851 -0.6638
16152TIP3    H269948   0.347   1.741   0.501  4.3730  0.5207  2.6331
16153TIP3   OH269949   1.130   1.513  12.213  0.1433 -0.9063  0.0882
16153TIP3    H169950   1.047   1.555  12.194  0.7158  0.5032  0.6035
16153TIP3    H269951   1.176   1.511  12.129  0.3161 -0.0159  0.1532
16154TIP3   OH269952   6.156   3.026   4.784 -0.4332 -0.5716  0.0816
16154TIP3    H169953   6.064   3.030   4.813 -1.4329 -2.3345 -2.4955
16154TIP3    H269954   6.151   3.031   4.689  2.3125  0.6789 -0.0911
16155TIP3   OH269955   4.982   1.959  11.863 -0.0910 -0.1196 -0.2448
16155TIP3    H169956   4.984   1.905  11.783 -2.7069 -0.3371 -0.2522
16155TIP3    H269957   4.976   1.896  11.934 -0.8581  0.1075 -0.1001
16156TIP3   OH269958   2.489   4.652  11.478 -0.2747 -0.5022 -0.0065
16156TIP3    H169959   2.544   4.724  11.447 -0.6796 -0.3951 -0.4823
16156TIP3    H269960   2.461   4.680  11.565  0.7942 -0.7672  0.4473
16157TIP3   OH269961   6.008   3.649  15.506 -0.0826  0.4731  0.0207
16157TIP3    H169962   6.080   3.700  15.544 -0.7351  0.6575  1.0280
16157TIP3    H269963   5.999   3.683  15.417  1.3527  0.1561 -0.2715
16158TIP3   OH269964   5.339   2.962   2.084 -0.0881  0.4718  0.0905
16158TIP3    H169965   5.371   2.963   1.994 -0.7893  1.5010 -0.1589
16158TIP3    H269966   5.331   3.054   2.108 -0.9477  0.2150  0.8257
16159TIP3   OH269967   2.926   6.539   0.743  0.6556 -0.3494  0.0555
16159TIP3    H169968   2.844   6.589   0.747  0.8646 -0.0082  0.1055
16159TIP3    H269969   2.954   6.531   0.834  0.1830 -1.2965  0.1256
16160TIP3   OH269970   2.188   4.466  14.676 -0.4120  0.0324  0.1345
16160TIP3    H169971   2.154   4.377  14.667  0.0765 -0.1330 -0.1215
16160TIP3    H269972   2.135   4.518  14.616  0.6405 -0.4637 -1.2795
16161TIP3   OH269973   2.725   3.076  15.919  0.4908  0.6332  0.2502
16161TIP3    H169974   2.806   3.113  15.885  0.1542 -0.5398 -1.9843
16161TIP3    H269975   2.662   3.085  15.847 -0.8006 -0.3075  1.2095
16162TIP3   OH269976   1.378   2.257  16.570  0.1993 -0.2051 -0.0325
16162TIP3    H169977   1.462   2.297  16.595  0.8270 -2.0356  0.9862
16162TIP3    H269978   1.401   2.195  16.501 -0.3774 -0.4798  0.0193
16163TIP3   OH269979   1.322   1.349   1.808 -0.7427 -0.1271 -0.0801
16163TIP3    H169980   1.371   1.358   1.727 -0.2591 -0.2300  0.1991
16163TIP3    H269981   1.312   1.254   1.820  0.2077 -0.1596  0.5798
16164TIP3   OH269982   0.865   1.514  12.433 -0.3908  0.0490 -0.0570
16164TIP3    H169983   0.901   1.537  12.348 -1.6551  1.1252 -0.3385
16164TIP3    H269984   0.895   1.424  12.449  0.9163  0.2764 -1.0340
16165TIP3   OH269985   5.475   4.472   0.216  0.5007 -0.4241 -0.2167
16165TIP3    H169986   5.450   4.559   0.245 -0.1269 -1.0684  1.2826
16165TIP3    H269987   5.571   4.471   0.221  0.4808 -0.0046  0.3040
16166TIP3   OH269988   5.262   2.372  15.646 -0.4071 -0.2370 -0.5924
16166TIP3    H169989   5.224   2.447  15.691 -0.8141 -0.9720  0.3365
16166TIP3    H269990   5.194   2.342  15.586 -0.9542 -0.9416  0.3456
16167TIP3   OH269991   5.738   5.833   6.473  0.6056  0.2738  0.6059
16167TIP3    H169992   5.789   5.852   6.394  0.3364 -0.9740  0.1211
16167TIP3    H269993   5.673   5.768   6.445  0.5240 -0.2026  1.8600
16168TIP3   OH269994   6.064   3.522  12.680 -0.2825  0.4431 -0.3732
16168TIP3    H169995   6.001   3.592  12.696 -0.2183  0.5904 -0.7599
16168TIP3    H269996   6.146   3.555  12.717 -0.8168 -0.4968  1.7989
16169TIP3   OH269997   0.639   1.970  11.523  0.1711 -0.1900  0.5922
16169TIP3    H169998   0.708   1.908  11.498  0.6189 -0.6169  2.6834
16169TIP3    H269999   0.675   2.056  11.500 -0.6167 -0.5961 -2.7025
16170TIP3   OH270000   1.944   1.372  10.951  0.0059 -0.1892 -0.1090
16170TIP3    H170001   1.922   1.292  10.903 -0.7078 -0.1158  0.0942
16170TIP3    H270002   2.015   1.345  11.010  1.3599 -0.1372 -1.6298
16171TIP3   OH270003   6.580   2.630   1.913  0.3665  0.8560 -0.1357
16171TIP3    H170004   6.568   2.604   2.004 -1.6141 -2.1923 -1.0884
16171TIP3    H270005   6.672   2.613   1.895  0.9125  2.0111  1.3790
16172TIP3   OH270006   1.893   2.451  11.824  0.3574  0.2313 -0.2330
16172TIP3    H170007   1.801   2.426  11.820  0.1646  0.7926  0.3847
16172TIP3    H270008   1.913   2.484  11.737 -0.4024  1.3418 -0.0087
16173TIP3   OH270009   5.464   4.112   4.190  0.4322  0.1780  0.2081
16173TIP3    H170010   5.414   4.041   4.230 -1.7304  1.3401 -0.2657
16173TIP3    H270011   5.555   4.089   4.205 -0.2175 -2.2352  0.8389
16174TIP3   OH270012   5.512   1.689  14.784 -0.6047 -0.0309  0.7472
16174TIP3    H170013   5.468   1.604  14.793 -1.6613  0.2148 -1.4149
16174TIP3    H270014   5.600   1.666  14.755 -1.2649 -0.4205 -1.0938
16175TIP3   OH270015   3.989   1.181   4.538  0.0974 -0.4782 -0.0232
16175TIP3    H170016   4.030   1.265   4.560 -0.5469 -0.2654  0.3858
16175TIP3    H270017   3.906   1.182   4.585 -1.0608 -0.2854 -1.9585
16176TIP3   OH270018   2.224   6.685  11.175  0.3223 -0.1605 -0.8455
16176TIP3    H170019   2.195   6.619  11.111 -0.5818 -0.4625 -0.1446
16176TIP3    H270020   2.316   6.699  11.154  0.5744 -1.7288 -0.9637
16177TIP3   OH270021   1.940   1.381   2.530 -0.3303 -0.8171  0.2257
16177TIP3    H170022   2.006   1.317   2.503 -1.5863 -1.6037 -1.0963
16177TIP3    H270023   1.935   1.442   2.457  1.8176  1.7274  1.9941
16178TIP3   OH270024   1.797   0.569   1.284 -0.4777 -0.2343  0.4670
16178TIP3    H170025   1.751   0.648   1.256  0.2548  0.0853  0.1461
16178TIP3    H270026   1.888   0.596   1.294 -0.5928 -0.4558  2.6318
16179TIP3   OH270027   1.831   6.504  12.665 -0.8593  0.2079 -0.1119
16179TIP3    H170028   1.782   6.533  12.743  0.6079  1.2405  0.4539
16179TIP3    H270029   1.862   6.584  12.624 -0.4581 -0.3918 -1.0175
16180TIP3   OH270030   0.965   6.298  14.137  0.0631 -0.1550 -0.1922
16180TIP3    H170031   0.881   6.257  14.159  0.2505 -0.1263  0.6363
16180TIP3    H270032   1.020   6.281  14.214  0.1974  1.5135  0.1175
16181TIP3   OH270033   3.602   2.441  10.737 -0.6508  0.5464 -0.0973
16181TIP3    H170034   3.676   2.502  10.743  0.7126 -1.1538  1.5559
16181TIP3    H270035   3.589   2.429  10.643  0.2802  1.9241 -0.4357
16182TIP3   OH270036   3.571   2.874   4.416 -0.5183 -0.0031 -0.0745
16182TIP3    H170037   3.543   2.895   4.327  0.4131 -1.1053 -0.6525
16182TIP3    H270038   3.589   2.780   4.414  2.9859  0.5316  0.2675
16183TIP3   OH270039   0.837   2.360   4.629 -0.3515  0.4128 -0.2671
16183TIP3    H170040   0.900   2.289   4.616 -1.7774 -1.0310  0.4997
16183TIP3    H270041   0.785   2.361   4.549 -1.3309 -0.4651  0.3392
16184TIP3   OH270042   5.595   1.750  14.535 -0.0808  0.1222 -0.5084
16184TIP3    H170043   5.671   1.708  14.576 -1.5727 -2.2385  0.0223
16184TIP3    H270044   5.566   1.815  14.599  1.0575  0.5827 -0.4338
16185TIP3   OH270045   5.435   1.957  16.287  0.6950 -0.1287 -0.3088
16185TIP3    H170046   5.415   1.868  16.259 -0.7407 -0.0843  0.4994
16185TIP3    H270047   5.519   1.950  16.332  0.3217 -1.1897  0.2610
16186TIP3   OH270048   1.821   3.054   1.992 -0.4056  0.6943 -0.5308
16186TIP3    H170049   1.725   3.049   1.997 -0.3716  1.0115  0.8749
16186TIP3    H270050   1.841   3.026   1.902 -1.6959 -1.1110 -0.3336
16187TIP3   OH270051   5.786   5.371  16.686 -0.0484  0.1537  0.6239
16187TIP3    H170052   5.749   5.394  16.601 -0.0455  1.0123  0.8504
16187TIP3    H270053   5.775   5.276  16.692 -0.0157  0.0803 -0.3491
16188TIP3   OH270054   5.973   6.057  14.834 -0.4422  0.2240 -0.2755
16188TIP3    H170055   6.061   6.020  14.845 -0.2114  0.4031 -1.3968
16188TIP3    H270056   5.915   5.995  14.879  0.2139 -0.0976  0.1434
16189TIP3   OH270057   0.816   3.582  14.889  0.3248  0.2659  0.1191
16189TIP3    H170058   0.867   3.501  14.901 -1.1980 -0.5946  1.1951
16189TIP3    H270059   0.763   3.588  14.968 -1.2451  1.1085 -0.9561
16190TIP3   OH270060   0.727   5.306  10.660  0.1463  0.6724  0.8374
16190TIP3    H170061   0.632   5.296  10.658 -0.3043  3.4426  2.5203
16190TIP3    H270062   0.760   5.236  10.605 -2.8555 -0.4848  0.3349
16191TIP3   OH270063   5.286   2.672   2.054  0.0592  0.4877 -0.0299
16191TIP3    H170064   5.268   2.766   2.053  0.2992  0.5472  0.7307
16191TIP3    H270065   5.378   2.666   2.029 -0.3224  0.3443 -1.5134
16192TIP3   OH270066   6.624   0.839  12.476 -0.2417 -0.4071 -0.2679
16192TIP3    H170067   6.547   0.794  12.439 -1.2536  0.5153  0.6330
16192TIP3    H270068   6.699   0.799  12.432 -1.3491  2.3491 -5.4420
16193TIP3   OH270069   6.779   5.532  16.294  0.1190  0.1566 -0.2032
16193TIP3    H170070   6.830   5.574  16.225 -0.4273 -1.4527 -1.6571
16193TIP3    H270071   6.688   5.546  16.268 -0.1164  0.1900  0.6095
16194TIP3   OH270072   5.980   5.407   1.859 -0.3112 -1.0402  0.3388
16194TIP3    H170073   5.929   5.476   1.901  0.9165  0.4720 -0.5421
16194TIP3    H270074   6.069   5.419   1.891  0.0956 -1.6369 -0.5162
16195TIP3   OH270075   3.442   1.742   6.085 -0.3186 -0.0030 -0.9344
16195TIP3    H170076   3.366   1.749   6.027  0.0731  2.0327 -1.2570
16195TIP3    H270077   3.406   1.756   6.173 -0.4001  0.4214 -1.0334
16196TIP3   OH270078   0.008   6.542  13.729  0.1089  0.0459 -0.5619
16196TIP3    H170079   0.081   6.584  13.684 -0.3601 -0.2411 -1.6106
16196TIP3    H270080  -0.020   6.472  13.670  0.4680 -1.3655  0.8419
16197TIP3   OH270081   1.585   3.708   0.645  0.4820 -0.0321 -0.5187
16197TIP3    H170082   1.610   3.625   0.685  0.5889 -0.1633 -0.8557
16197TIP3    H270083   1.563   3.686   0.554  1.3189  0.4334 -0.8481
16198TIP3   OH270084   3.276   1.660  16.047 -0.2684 -0.3592  0.0469
16198TIP3    H170085   3.281   1.661  16.142 -1.3160  3.2067  0.2431
16198TIP3    H270086   3.183   1.647  16.028  0.0272 -1.7772 -0.5752
16199TIP3   OH270087   3.960   1.861   1.528 -0.7855 -0.4224  0.1296
16199TIP3    H170088   3.938   1.772   1.501 -2.5886 -0.0475  0.2817
16199TIP3    H270089   3.886   1.915   1.499  0.5644  1.1750 -0.5982
16200TIP3   OH270090   1.116   1.935   4.917 -0.2605  0.0194  0.0037
16200TIP3    H170091   1.208   1.933   4.890 -0.2530  1.7702 -0.1998
16200TIP3    H270092   1.119   1.954   5.010 -0.4071  1.9317 -0.3413
16201TIP3   OH270093   4.739   1.661  12.857 -0.0313 -0.5718  0.3708
16201TIP3    H170094   4.742   1.646  12.952  1.1709 -1.8760  0.1578
16201TIP3    H270095   4.735   1.573  12.819 -1.2566 -0.0483 -0.7976
16202TIP3   OH270096   1.324   5.629  14.446 -0.0416  0.1038 -0.4534
16202TIP3    H170097   1.380   5.629  14.369  0.8024 -0.5534  0.1367
16202TIP3    H270098   1.385   5.629  14.520 -0.8120 -0.5828  0.2004
16203TIP3   OH270099   0.635   4.756   4.648  0.2356 -0.5241 -0.4645
16203TIP3    H170100   0.589   4.832   4.684 -0.5086 -0.6770 -1.0441
16203TIP3    H270101   0.578   4.727   4.576  0.2529 -1.9335  0.0770
16204TIP3   OH270102   3.992   3.955  15.922  0.7394  0.8302 -0.5300
16204TIP3    H170103   3.916   3.962  15.980 -0.4319  0.4315 -1.9515
16204TIP3    H270104   4.068   3.959  15.980 -0.3660  1.3747  0.9147
16205TIP3   OH270105   6.820   5.082   2.664  0.1551  0.4893 -0.1570
16205TIP3    H170106   6.764   5.099   2.740 -0.3422 -0.1161 -0.3825
16205TIP3    H270107   6.811   4.988   2.648  3.1553 -0.1674  1.3040
16206TIP3   OH270108   1.674   2.774   1.020 -0.2475 -0.1831  0.2049
16206TIP3    H170109   1.702   2.684   1.002 -0.4438 -0.2574  0.2690
16206TIP3    H270110   1.592   2.764   1.068  0.0504  0.0175  0.7643
16207TIP3   OH270111   1.026   4.114   0.554  0.5181  0.4638  0.1575
16207TIP3    H170112   0.992   4.127   0.465  0.1898 -0.6089  0.1179
16207TIP3    H270113   1.010   4.198   0.597 -2.1839  0.0402  0.1308
16208TIP3   OH270114   6.255   4.840   3.303 -0.1413 -0.3428 -0.5322
16208TIP3    H170115   6.286   4.879   3.385  0.3325 -0.9484 -0.4160
16208TIP3    H270116   6.332   4.797   3.266 -0.7381 -1.5733 -0.4080
16209TIP3   OH270117   2.865   2.617  13.241 -0.5655  0.1533 -0.0246
16209TIP3    H170118   2.904   2.700  13.215 -0.4298  0.2564  0.4957
16209TIP3    H270119   2.893   2.555  13.173  0.4606  0.2370  0.3015
16210TIP3   OH270120   5.591   5.502  16.100  0.0946 -0.3559  0.5655
16210TIP3    H170121   5.570   5.590  16.133 -0.1980 -0.8785  1.8271
16210TIP3    H270122   5.657   5.517  16.032 -0.7646  0.9201 -0.0287
16211TIP3   OH270123   5.587   3.593  11.481 -0.0218 -0.4816  0.1517
16211TIP3    H170124   5.550   3.631  11.402  0.4638  1.0301  0.6199
16211TIP3    H270125   5.681   3.589  11.465 -0.0760 -1.7064  0.0376
16212TIP3   OH270126   3.969   6.275   5.472 -0.3681 -0.2512 -0.5507
16212TIP3    H170127   3.941   6.263   5.381  0.6284  4.7150 -1.7645
16212TIP3    H270128   4.059   6.244   5.474 -0.8479 -1.7524 -0.7652
16213TIP3   OH270129   6.063   0.737  12.389 -0.3410 -0.1736  0.4932
16213TIP3    H170130   6.108   0.662  12.429  0.1899  0.8326  1.8793
16213TIP3    H270131   5.987   0.699  12.345  2.2086 -2.0745 -2.7391
16214TIP3   OH270132   4.377   3.161   0.247  0.0174  0.8812 -0.5216
16214TIP3    H170133   4.451   3.214   0.220  0.6944  1.8887  2.8730
16214TIP3    H270134   4.322   3.221   0.299 -1.1670 -0.7837  0.2413
16215TIP3   OH270135   2.372   1.199   2.410 -0.2905 -0.0686  0.6123
16215TIP3    H170136   2.284   1.219   2.440 -0.0621  1.4231  0.3733
16215TIP3    H270137   2.425   1.195   2.489 -0.4503 -0.2874  0.7075
16216TIP3   OH270138   2.218   0.835   1.083  0.7670 -0.2916 -0.7834
16216TIP3    H170139   2.238   0.924   1.053  1.0815  0.1786  0.7596
16216TIP3    H270140   2.271   0.779   1.027  1.3381  0.5489 -1.1101
16217TIP3   OH270141   2.690   6.370  10.352 -0.0169 -0.2190 -0.8239
16217TIP3    H170142   2.643   6.426  10.290  1.0877 -0.3288 -1.8011
16217TIP3    H270143   2.777   6.410  10.358 -0.4772  0.5459  1.6879
16218TIP3   OH270144   4.521   6.281  11.944 -0.5115  0.4310 -0.7014
16218TIP3    H170145   4.499   6.324  12.027  1.1259  1.8088 -0.9233
16218TIP3    H270146   4.551   6.352  11.887 -0.3975 -0.6611 -2.0564
16219TIP3   OH270147   1.680   1.541   5.295  0.5800  0.3972 -0.3360
16219TIP3    H170148   1.642   1.541   5.207  1.2706  0.5878 -0.6351
16219TIP3    H270149   1.636   1.468   5.339 -1.1808  1.4538 -0.2208
16220TIP3   OH270150   0.345   1.197  11.854  0.2268 -0.0920 -0.1669
16220TIP3    H170151   0.307   1.263  11.796  2.3451 -0.3431 -1.9687
16220TIP3    H270152   0.292   1.118  11.839  1.9292 -0.7491 -3.4466
16221TIP3   OH270153   6.188   2.805   1.242  0.2854 -0.3063  0.5408
16221TIP3    H170154   6.161   2.891   1.275  2.2893  0.5386  0.1391
16221TIP3    H270155   6.253   2.825   1.174  0.4286 -2.1419  0.0809
16222TIP3   OH270156   4.186   2.358  13.870  0.4055 -0.4564 -0.3281
16222TIP3    H170157   4.225   2.271  13.872  1.0087 -0.2022 -0.7111
16222TIP3    H270158   4.257   2.416  13.843 -0.5309 -0.1809 -2.4753
16223TIP3   OH270159   3.700   3.164  14.933 -0.4573 -0.0283  0.1043
16223TIP3    H170160   3.702   3.185  15.026 -4.4890  0.1902  0.2977
16223TIP3    H270161   3.697   3.068  14.930  0.1064 -0.0537  0.1244
16224TIP3   OH270162   0.214   5.326   3.788 -0.4801  0.1853  0.2392
16224TIP3    H170163   0.168   5.249   3.823  0.5087 -1.0435 -1.0337
16224TIP3    H270164   0.154   5.362   3.723  0.0039 -1.0038 -0.9168
16225TIP3   OH270165   5.433   2.358  11.628  0.1446  0.1701  0.2524
16225TIP3    H170166   5.407   2.436  11.580  0.2608 -0.3535 -0.6817
16225TIP3    H270167   5.351   2.325  11.667  0.0153  0.4801  0.2417
16226TIP3   OH270168   6.355   3.199  15.168  0.1221  0.1108 -0.4506
16226TIP3    H170169   6.362   3.294  15.155 -1.4645  0.2205 -0.7781
16226TIP3    H270170   6.337   3.189  15.262  2.4840 -0.0527  0.0365
16227TIP3   OH270171   6.500   3.419  11.060 -0.3053  0.4337  0.2664
16227TIP3    H170172   6.484   3.418  10.966 -0.8895 -0.0343  0.3654
16227TIP3    H270173   6.476   3.331  11.090 -0.6108  0.7292  0.9263
16228TIP3   OH270174   5.957   5.521  13.809  0.1337  0.3085 -0.3198
16228TIP3    H170175   6.016   5.517  13.884  0.6967  1.5334 -0.6733
16228TIP3    H270176   5.888   5.583  13.835 -0.1286  0.0983 -0.5045
16229TIP3   OH270177   1.486   3.675   3.562  0.1261  0.0387 -0.1855
16229TIP3    H170178   1.570   3.629   3.567 -0.1330 -0.4382 -0.1074
16229TIP3    H270179   1.433   3.635   3.631 -0.9529 -1.3149 -1.7246
16230TIP3   OH270180   1.935   1.803   1.854 -0.1911 -0.0414  0.1820
16230TIP3    H170181   1.935   1.793   1.759  0.4380 -1.1060  0.2817
16230TIP3    H270182   1.853   1.848   1.874  0.5314  1.9822 -1.0311
16231TIP3   OH270183   3.136   6.627  11.339 -0.6585  0.1075  0.5422
16231TIP3    H170184   3.186   6.548  11.318 -0.3038  0.8128 -1.4684
16231TIP3    H270185   3.190   6.673  11.403  0.1035 -0.3208  0.2242
16232TIP3   OH270186   5.133   4.854   2.690 -0.4649 -0.2363 -0.2948
16232TIP3    H170187   5.211   4.825   2.644 -0.1811  0.2896 -0.1586
16232TIP3    H270188   5.131   4.949   2.676 -0.6949 -0.1525  0.2804
16233TIP3   OH270189   2.898   1.228  15.833 -0.5828  0.3319  0.5730
16233TIP3    H170190   2.804   1.238  15.820 -0.4418  1.4170  0.2270
16233TIP3    H270191   2.907   1.211  15.927 -1.1199  0.3257  0.6271
16234TIP3   OH270192   0.433   3.911   6.050  0.1796  0.6199  0.3322
16234TIP3    H170193   0.424   3.865   5.967 -2.4491  1.9223 -0.2189
16234TIP3    H270194   0.448   3.842   6.115  0.3739 -0.6027 -0.9763
16235TIP3   OH270195   1.694   5.675   2.845  0.5616  0.0220  0.1929
16235TIP3    H170196   1.672   5.586   2.815 -2.9846  0.5561  0.7652
16235TIP3    H270197   1.745   5.712   2.773  0.4111 -1.8259 -0.9370
16236TIP3   OH270198   2.246   5.105  14.424  0.0755  0.2019  0.3287
16236TIP3    H170199   2.294   5.027  14.453  1.1409  1.4981  2.2644
16236TIP3    H270200   2.161   5.099  14.469 -0.2997 -0.3860 -0.4322
16237TIP3   OH270201   4.387   2.457  13.121 -0.6701  0.4292  0.3721
16237TIP3    H170202   4.441   2.527  13.159  2.2200 -1.8908  0.8705
16237TIP3    H270203   4.346   2.498  13.044  0.6021  2.7588  0.8289
16238TIP3   OH270204   6.110   1.717   0.061  0.0679  0.1242  0.1341
16238TIP3    H170205   6.134   1.784   0.124  1.8797  0.2318 -0.6223
16238TIP3    H270206   6.036   1.670   0.102  0.4129  0.9488  1.7621
16239TIP3   OH270207   2.656   3.932  14.144  0.4340  0.2212  0.0992
16239TIP3    H170208   2.747   3.914  14.122  0.4813 -1.0869  1.2625
16239TIP3    H270209   2.657   4.020  14.181  1.4255 -0.2029  1.1303
16240TIP3   OH270210   3.559   6.687   4.730  0.5631 -0.7496 -0.3768
16240TIP3    H170211   3.520   6.668   4.815 -1.4732  1.5875 -0.6721
16240TIP3    H270212   3.569   6.783   4.729  1.3489 -0.8037 -2.4307
16241TIP3   OH270213   1.199   3.887  16.945  0.0977  0.3651 -0.0253
16241TIP3    H170214   1.160   3.838  17.018  0.1700 -0.2471 -0.3953
16241TIP3    H270215   1.293   3.873  16.955  0.0365 -0.8598 -1.0285
16242TIP3   OH270216   0.162   3.624   3.557  0.2501  0.3748  0.4010
16242TIP3    H170217   0.258   3.626   3.554  0.2533 -0.6909 -0.8148
16242TIP3    H270218   0.141   3.617   3.650  1.2446  3.3728  0.9908
16243TIP3   OH270219   3.215   2.428   4.101 -0.0157  0.5166  0.5169
16243TIP3    H170220   3.186   2.342   4.073 -1.3504  0.9939  0.3700
16243TIP3    H270221   3.265   2.412   4.181  2.3944 -0.6872 -1.0891
16244TIP3   OH270222   4.469   2.946  15.630 -0.0765 -0.3400  0.3307
16244TIP3    H170223   4.508   3.009  15.568 -1.2928 -1.6536 -1.8790
16244TIP3    H270224   4.521   2.866  15.618 -0.4382 -0.6579  0.8877
16245TIP3   OH270225   6.523   4.045   4.804 -0.4316  0.0424  0.0298
16245TIP3    H170226   6.429   4.027   4.805 -0.6869  0.9641  3.0511
16245TIP3    H270227   6.556   3.995   4.730 -3.1275 -1.1963 -0.4596
16246TIP3   OH270228   3.771   3.270   2.360  0.2763  0.1646  0.0818
16246TIP3    H170229   3.832   3.306   2.424  1.8955 -1.5936 -0.3888
16246TIP3    H270230   3.791   3.177   2.357 -2.0385 -0.3941 -0.5749
16247TIP3   OH270231   0.321   5.661   0.811 -0.3148  0.2105  0.4733
16247TIP3    H170232   0.348   5.571   0.824  2.7058  0.8890 -0.2639
16247TIP3    H270233   0.230   5.655   0.782 -0.8102 -2.4182  2.2335
16248TIP3   OH270234   2.792   0.096   3.270 -0.1521  0.2783 -0.0551
16248TIP3    H170235   2.754   0.022   3.317 -0.4216  0.7673  0.5097
16248TIP3    H270236   2.878   0.109   3.310  0.3905 -0.4641 -0.9468
16249TIP3   OH270237   6.131   5.276   4.191 -0.0999 -0.1528 -0.1329
16249TIP3    H170238   6.055   5.254   4.244 -0.1673  1.0414  0.3018
16249TIP3    H270239   6.197   5.304   4.254  1.0494 -1.9978 -0.4222
16250TIP3   OH270240   4.962   5.486   0.996 -0.5771 -0.5684 -0.0528
16250TIP3    H170241   4.967   5.477   1.092  0.0325 -1.8920 -0.1867
16250TIP3    H270242   4.874   5.520   0.980 -0.2070  1.0085  1.0482
16251TIP3   OH270243   3.760   2.103  13.567  0.3815  0.0198  0.6403
16251TIP3    H170244   3.809   2.077  13.489  1.3960 -0.3894  1.4002
16251TIP3    H270245   3.826   2.111  13.636 -0.6139 -0.5355  1.6930
16252TIP3   OH270246   0.792   2.105  10.297 -0.0287  0.1106 -0.1565
16252TIP3    H170247   0.705   2.088  10.259 -1.4220  1.6426  2.0750
16252TIP3    H270248   0.803   2.037  10.363 -1.0921  1.7523  1.8204
16253TIP3   OH270249   2.793   0.186   4.465  0.1294 -0.2534 -0.0320
16253TIP3    H170250   2.743   0.105   4.455 -0.8372  0.4603 -1.2839
16253TIP3    H270251   2.877   0.168   4.422  0.0334 -0.6757 -0.0499
16254TIP3   OH270252   5.815   1.611   4.496  0.2368  0.3411 -0.8892
16254TIP3    H170253   5.836   1.683   4.437 -0.6598  3.4648  2.2127
16254TIP3    H270254   5.722   1.622   4.516  0.3536 -0.9656  0.6052
16255TIP3   OH270255   0.817   3.403  16.824 -0.1830 -0.3742 -0.4638
16255TIP3    H170256   0.885   3.451  16.871 -0.4608  0.0229 -0.4712
16255TIP3    H270257   0.856   3.383  16.739 -0.1053 -0.0779 -0.4974
16256TIP3   OH270258   5.017   0.720  14.431 -0.0721 -0.4538 -0.1404
16256TIP3    H170259   4.946   0.658  14.447 -0.7830  0.3199 -0.1575
16256TIP3    H270260   5.041   0.707  14.340 -0.3188 -0.6153 -0.1836
16257TIP3   OH270261   2.869   1.610  14.862  0.4113 -0.4236 -0.1701
16257TIP3    H170262   2.817   1.554  14.805  0.1096 -1.9088  1.4889
16257TIP3    H270263   2.955   1.614  14.820 -0.0823 -0.6276 -1.2418
16258TIP3   OH270264   1.292   4.953  14.377  0.2094 -0.0128 -0.1593
16258TIP3    H170265   1.228   4.882  14.366  0.4150 -0.5236  1.6014
16258TIP3    H270266   1.249   5.014  14.437  1.1476 -0.1002  0.6252
16259TIP3   OH270267   0.306   2.927  15.975  0.5362 -0.2198  0.0906
16259TIP3    H170268   0.363   2.990  15.931  0.3097  0.9165  1.3766
16259TIP3    H270269   0.298   2.959  16.064 -1.1474 -1.0116  0.2706
16260TIP3   OH270270   3.560   5.530   3.861 -0.0109 -0.1290  0.4822
16260TIP3    H170271   3.651   5.551   3.841 -0.0788  1.3191  1.5595
16260TIP3    H270272   3.536   5.465   3.795  1.0629  1.2260 -1.3504
16261TIP3   OH270273   1.620   5.877   0.229 -0.4461 -0.0711 -0.3679
16261TIP3    H170274   1.681   5.808   0.202  0.8887  0.2782  1.5360
16261TIP3    H270275   1.639   5.950   0.170  0.8649 -0.0519  0.0338
16262TIP3   OH270276   5.889   6.303  10.784  0.3474  0.0052  0.1734
16262TIP3    H170277   5.888   6.329  10.692  0.7404 -1.0854 -0.1567
16262TIP3    H270278   5.841   6.372  10.829 -0.2921  0.2961 -0.9213
16263TIP3   OH270279   6.334   6.796  13.324  0.3715  0.5244  0.1386
16263TIP3    H170280   6.319   6.755  13.409 -0.1799 -0.8807 -0.5986
16263TIP3    H270281   6.425   6.825  13.327  1.0342 -1.4443  0.4480
16264TIP3   OH270282   5.802   1.795   2.891  0.3258 -0.0638  0.1029
16264TIP3    H170283   5.803   1.885   2.923  1.3081  0.1546 -0.5210
16264TIP3    H270284   5.894   1.773   2.875  0.2901 -1.7283  1.7247
16265TIP3   OH270285   3.187   6.608   4.079 -0.3321 -0.1577  0.1782
16265TIP3    H170286   3.210   6.517   4.093  0.3471  0.0033  0.1437
16265TIP3    H270287   3.093   6.607   4.060 -1.0148 -0.5850  3.0329
16266TIP3   OH270288   5.484   2.587  11.149  0.0131  0.3636  0.4242
16266TIP3    H170289   5.434   2.525  11.203 -2.0993  1.6296  0.0236
16266TIP3    H270290   5.467   2.560  11.059  0.5444  0.4751  0.2865
16267TIP3   OH270291   1.478   5.583   3.701  0.1896 -0.0073  0.8554
16267TIP3    H170292   1.429   5.545   3.774  2.2387 -3.4039  0.6974
16267TIP3    H270293   1.430   5.556   3.623 -0.4184  1.1134  0.8262
16268TIP3   OH270294   1.613   5.934   1.315 -0.2205  0.2214 -0.3629
16268TIP3    H170295   1.535   5.988   1.329  0.0476  1.1975 -2.1888
16268TIP3    H270296   1.684   5.998   1.302  0.1135 -0.5158 -2.5802
16269TIP3   OH270297   5.355   6.105  12.236 -0.2331  0.0591 -0.1936
16269TIP3    H170298   5.449   6.092  12.220 -0.3790 -0.5617 -0.5653
16269TIP3    H270299   5.330   6.030  12.290 -0.4500  0.3986  0.1817
16270TIP3   OH270300   1.013   2.997   2.626  0.1421  0.0889  0.1944
16270TIP3    H170301   0.948   2.999   2.697 -0.0317 -3.3966  0.3142
16270TIP3    H270302   1.095   2.975   2.669  0.6936  0.9135 -0.3982
16271TIP3   OH270303   1.408   1.213  13.950  0.1888 -0.0472  0.1980
16271TIP3    H170304   1.501   1.190  13.940  0.0576 -0.5667  0.1784
16271TIP3    H270305   1.397   1.290  13.894  0.4669 -0.3394 -0.2672
16272TIP3   OH270306   4.117   3.288  15.951 -0.1400  0.2432  0.0311
16272TIP3    H170307   4.149   3.197  15.944  0.6010  0.3604  1.4812
16272TIP3    H270308   4.047   3.294  15.886  0.1994 -1.1957 -0.5046
16273TIP3   OH270309   2.767   3.470   4.205 -0.0846 -0.1448  0.0818
16273TIP3    H170310   2.693   3.529   4.189 -0.8124 -0.7374  1.1794
16273TIP3    H270311   2.736   3.411   4.273  1.2995 -0.6090  0.3266
16274TIP3   OH270312   2.659   6.361   5.515  0.0819  0.4135 -0.1402
16274TIP3    H170313   2.667   6.389   5.606  0.1979  2.0168 -0.6041
16274TIP3    H270314   2.569   6.381   5.491  0.1137  0.2175 -0.4313
16275TIP3   OH270315   3.528   5.630  16.594 -0.5849 -0.8691 -0.0531
16275TIP3    H170316   3.535   5.625  16.499  2.2091  1.2480 -0.1238
16275TIP3    H270317   3.619   5.638  16.624 -1.4841  1.7370  2.4884
16276TIP3   OH270318   0.532   6.501  12.548 -0.2137  0.0933 -0.2698
16276TIP3    H170319   0.513   6.592  12.571  0.6019  0.2727 -0.2698
16276TIP3    H270320   0.500   6.451  12.622 -0.8614  0.3542 -0.3605
16277TIP3   OH270321   4.049   1.296  13.016  0.0823 -0.2458  0.2984
16277TIP3    H170322   4.075   1.362  12.951  0.1859  0.7795  1.3478
16277TIP3    H270323   4.081   1.213  12.980  0.9105  0.4169 -0.5500
16278TIP3   OH270324   1.181   5.896  14.797  0.2875  0.1791 -0.0298
16278TIP3    H170325   1.210   5.869  14.709  0.6203  0.0790  0.1068
16278TIP3    H270326   1.170   5.991  14.791 -0.1673  0.1122 -0.3115
16279TIP3   OH270327   3.449   6.351   5.189  0.3971 -0.7313 -0.2227
16279TIP3    H170328   3.447   6.446   5.205 -2.8237 -0.7163 -0.0682
16279TIP3    H270329   3.423   6.342   5.098  0.3143 -1.4757 -0.1284
16280TIP3   OH270330   2.218   0.470  11.420 -0.3083 -0.1345 -0.2310
16280TIP3    H170331   2.175   0.546  11.460 -0.7936  0.0095 -1.0091
16280TIP3    H270332   2.247   0.501  11.334  2.1670  0.0306  0.5956
16281TIP3   OH270333   2.833   1.860  16.093  0.3885  0.3723 -0.3891
16281TIP3    H170334   2.774   1.878  16.166  0.3344 -1.2959  0.0366
16281TIP3    H270335   2.776   1.820  16.027  0.7921  0.0594 -0.5471
16282TIP3   OH270336   3.692   6.440  12.697 -0.3034 -0.0790 -0.0176
16282TIP3    H170337   3.741   6.441  12.615  0.8437  0.9803  0.6525
16282TIP3    H270338   3.718   6.358  12.739 -1.0208 -0.7070 -0.7540
16283TIP3   OH270339   5.658   3.207  14.441  0.3458  0.5453 -0.1088
16283TIP3    H170340   5.618   3.275  14.386  0.3484 -0.2674 -1.1459
16283TIP3    H270341   5.584   3.154  14.471  0.5197 -0.3038 -1.1296
16284TIP3   OH270342   0.298   6.720  14.343 -0.3579  0.3494  0.0024
16284TIP3    H170343   0.328   6.811  14.346 -0.1513  0.2731  0.3678
16284TIP3    H270344   0.301   6.696  14.251  2.6860 -0.2924  0.1687
16285TIP3   OH270345   0.669   2.854  14.752 -0.1833  0.5802  0.2135
16285TIP3    H170346   0.726   2.877  14.678 -0.3798  0.3234 -0.0228
16285TIP3    H270347   0.720   2.789  14.802  0.3356  1.4437  0.8339
16286TIP3   OH270348   3.676   2.227   2.913  0.3321 -0.0789 -0.3425
16286TIP3    H170349   3.631   2.306   2.943  1.6399 -0.2815  2.4699
16286TIP3    H270350   3.626   2.198   2.837 -1.9825  1.7453  0.3724
16287TIP3   OH270351   5.740   6.324   4.423 -0.0716 -0.2286  0.6292
16287TIP3    H170352   5.658   6.289   4.459  0.8829 -2.5100  0.7450
16287TIP3    H270353   5.809   6.275   4.466  1.3172  0.3967 -0.7534
16288TIP3   OH270354   1.961   1.608  11.837 -0.2841  0.0986  0.2261
16288TIP3    H170355   1.891   1.661  11.799 -0.4406 -0.8405 -0.8517
16288TIP3    H270356   2.039   1.663  11.832 -0.7218  0.7464  0.4445
16289TIP3   OH270357   4.001   4.263   5.168 -0.3537  0.2290  0.2388
16289TIP3    H170358   3.970   4.198   5.232  0.3642  2.3868  2.9935
16289TIP3    H270359   4.068   4.217   5.117 -0.6779 -1.5195  1.3216
16290TIP3   OH270360   2.184   2.497   4.061 -0.5976 -0.1325  0.4585
16290TIP3    H170361   2.190   2.476   4.154 -0.2073 -0.0704  0.4518
16290TIP3    H270362   2.169   2.413   4.018  0.5737 -0.3643  0.4651
16291TIP3   OH270363   6.114   3.900   1.641 -0.3196 -0.0928  0.4616
16291TIP3    H170364   6.137   3.947   1.561 -0.9190 -0.9519 -0.2439
16291TIP3    H270365   6.172   3.824   1.642  1.1064  0.9534  1.9378
16292TIP3   OH270366   5.177   0.199  14.070 -0.1393  0.1289 -0.1131
16292TIP3    H170367   5.261   0.191  14.024 -0.3686 -0.5755 -0.4242
16292TIP3    H270368   5.165   0.115  14.114 -0.6585  0.2406 -0.0346
16293TIP3   OH270369   6.117   1.650  14.817 -0.0875 -0.4343 -0.5332
16293TIP3    H170370   6.051   1.584  14.840  2.1401 -2.5158  0.4347
16293TIP3    H270371   6.164   1.611  14.743  0.8101  0.4279 -0.4273
16294TIP3   OH270372   6.754   1.367  14.201  0.2876 -0.4559 -0.3266
16294TIP3    H170373   6.745   1.458  14.172  0.9371 -0.8596 -1.9080
16294TIP3    H270374   6.727   1.368  14.293 -2.3870  0.8315 -1.0394
16295TIP3   OH270375   6.363   1.662  14.659  0.4652  0.4203  1.0448
16295TIP3    H170376   6.294   1.707  14.708  0.2847  1.2427  0.0656
16295TIP3    H270377   6.402   1.730  14.604  1.7873 -0.1226  1.2716
16296TIP3   OH270378   3.008   5.940   3.308  0.0018  0.0372 -0.4196
16296TIP3    H170379   3.005   5.860   3.256  0.6154 -0.7038  0.6467
16296TIP3    H270380   3.020   6.010   3.244  0.5332 -0.8306 -1.2866
16297TIP3   OH270381   6.449   1.330  15.609 -0.1989 -0.5051 -0.1110
16297TIP3    H170382   6.380   1.279  15.651  0.3956 -1.6878 -0.5229
16297TIP3    H270383   6.531   1.290  15.639  0.2844  0.2884 -0.3415
16298TIP3   OH270384   4.212   2.734  12.607  0.1814 -0.5840 -0.1541
16298TIP3    H170385   4.260   2.760  12.529  0.1798 -0.4531 -0.1127
16298TIP3    H270386   4.188   2.643  12.592 -0.1961 -0.4327 -0.5011
16299TIP3   OH270387   5.925   2.961  15.595  0.2849 -0.0039 -0.0679
16299TIP3    H170388   5.996   2.908  15.631 -0.3486  0.0474  1.3503
16299TIP3    H270389   5.912   3.031  15.660  0.0833  0.9958 -1.1513
16300TIP3   OH270390   3.246   3.151   0.616  0.5226 -0.0790 -0.3923
16300TIP3    H170391   3.187   3.109   0.554 -0.4299 -0.0855  0.4956
16300TIP3    H270392   3.197   3.225   0.651  0.1395 -1.3507  1.9963
16301TIP3   OH270393   3.545   4.930  13.699 -0.8365 -0.1001  0.2875
16301TIP3    H170394   3.597   4.850  13.706 -0.5251  0.1234  0.5202
16301TIP3    H270395   3.562   4.977  13.781 -0.6150  0.4521 -0.0777
16302TIP3   OH270396   6.011   5.952  13.863 -0.1399 -0.4998  0.1967
16302TIP3    H170397   5.925   5.985  13.838  0.2959 -0.7255 -1.7971
16302TIP3    H270398   6.064   5.962  13.784  0.6248 -3.8765  0.1175
16303TIP3   OH270399   6.836   5.322  13.841  0.2125  0.6193  0.0215
16303TIP3    H170400   6.904   5.384  13.812 -1.0316  1.9490 -0.1813
16303TIP3    H270401   6.755   5.356  13.802 -0.5240 -1.1335 -0.0405
16304TIP3   OH270402   4.854   2.065   0.428 -0.3581 -0.1394 -0.0559
16304TIP3    H170403   4.808   2.052   0.511 -0.9390 -0.7146 -0.4508
16304TIP3    H270404   4.931   2.009   0.434  0.1649  0.6257  0.5062
16305TIP3   OH270405   4.321   4.342  13.899 -0.1571 -0.2727  0.0819
16305TIP3    H170406   4.315   4.438  13.893 -0.3820 -0.2879  0.0582
16305TIP3    H270407   4.239   4.311  13.861  0.4466 -0.5146 -1.0716
16306TIP3   OH270408   2.254   3.378   4.319  0.0308  0.1480 -0.4109
16306TIP3    H170409   2.297   3.334   4.393  1.7410  0.3007 -1.2611
16306TIP3    H270410   2.193   3.313   4.284  0.6061 -0.6040 -0.0419
16307TIP3   OH270411   4.326   2.589  10.980  0.4242  0.4144  0.0620
16307TIP3    H170412   4.252   2.573  10.922  1.9832 -0.9857 -1.6951
16307TIP3    H270413   4.386   2.516  10.963  0.8798 -0.2963  3.7490
16308TIP3   OH270414   2.928   4.944  15.284 -0.0886  0.3455 -0.7615
16308TIP3    H170415   2.918   4.889  15.206 -2.6894  2.5204 -2.1613
16308TIP3    H270416   2.884   5.026  15.260 -1.2877  1.0202  3.1152
16309TIP3   OH270417   4.378   3.121  12.389 -0.5952 -0.1067 -0.5514
16309TIP3    H170418   4.435   3.183  12.343 -2.0339  0.6607 -1.3614
16309TIP3    H270419   4.290   3.144  12.361 -1.3749 -0.8938  1.1080
16310TIP3   OH270420   3.032   2.883   0.816 -0.6371  0.4009 -0.6354
16310TIP3    H170421   3.031   2.798   0.773 -2.5964 -0.4636  0.9710
16310TIP3    H270422   3.114   2.884   0.864  0.3338  0.2908 -2.2106
16311TIP3   OH270423   4.120   6.364   1.535 -0.0622 -0.8947 -0.0946
16311TIP3    H170424   4.095   6.371   1.443 -0.0511 -1.9736 -0.1916
16311TIP3    H270425   4.139   6.454   1.562 -0.7930 -0.4732 -0.9388
16312TIP3   OH270426   4.318   4.595  16.832  0.2273 -0.1025 -0.2491
16312TIP3    H170427   4.249   4.535  16.802 -0.1994  0.0490  0.4198
16312TIP3    H270428   4.400   4.550  16.809 -0.0854 -0.9691  0.2784
16313TIP3   OH270429   5.002   0.903  15.749  0.3400  0.0506 -0.4270
16313TIP3    H170430   4.909   0.927  15.746  0.6324  1.4026  0.3925
16313TIP3    H270431   5.048   0.980  15.716  1.1888 -0.5603 -0.7103
16314TIP3   OH270432   2.317   5.614  11.531 -0.0540  0.5716 -0.1681
16314TIP3    H170433   2.389   5.618  11.594  0.6610 -0.3785 -0.8900
16314TIP3    H270434   2.356   5.578  11.451 -1.1638  0.7602 -0.8291
16315TIP3   OH270435   4.094   3.518   0.085  0.2513  0.1623  0.1316
16315TIP3    H170436   4.188   3.527   0.098  0.4511 -0.7722 -0.5880
16315TIP3    H270437   4.081   3.426   0.062 -0.6303  0.6304 -1.4003
16316TIP3   OH270438   4.140   1.194   4.026 -0.2127 -0.3506 -0.2577
16316TIP3    H170439   4.078   1.253   3.984 -0.1303  2.5776  3.2343
16316TIP3    H270440   4.225   1.219   3.988 -0.5374 -0.5860 -1.1713
16317TIP3   OH270441   6.708   1.863   2.141  0.1151 -0.2361  0.1831
16317TIP3    H170442   6.785   1.920   2.137  0.3367 -0.5602 -0.4412
16317TIP3    H270443   6.738   1.785   2.186  1.2815 -1.9549 -3.1811
16318TIP3   OH270444   2.380   2.891  14.997  0.1477 -0.0271  0.1878
16318TIP3    H170445   2.290   2.862  14.987 -0.1510  0.6264  0.8670
16318TIP3    H270446   2.396   2.948  14.922  0.0752 -0.3357 -0.0621
16319TIP3   OH270447   2.075   6.055   4.920  0.2269 -0.2871 -0.0214
16319TIP3    H170448   1.990   6.095   4.942 -0.5407 -1.6779 -0.3136
16319TIP3    H270449   2.132   6.129   4.901 -0.9699  0.6903  0.0391
16320TIP3   OH270450   3.382   3.788  12.901 -0.1757 -0.1548  0.3748
16320TIP3    H170451   3.401   3.732  12.976 -1.6554 -2.4615 -0.8565
16320TIP3    H270452   3.413   3.875  12.927  0.8017 -1.1944  2.9903
16321TIP3   OH270453   2.855   2.492   0.556 -0.3433 -0.0693  0.3504
16321TIP3    H170454   2.791   2.561   0.541 -0.6865 -0.7517 -1.6391
16321TIP3    H270455   2.809   2.428   0.611 -1.0266 -0.0685 -0.2074
16322TIP3   OH270456   0.453   3.037  16.721  0.7094 -0.1776 -0.1544
16322TIP3    H170457   0.430   2.949  16.693 -2.1577 -0.4807  2.6302
16322TIP3    H270458   0.537   3.027  16.766 -0.6393 -2.0806  2.1884
16323TIP3   OH270459   1.244   0.512  10.658  0.7973  0.0400  0.3194
16323TIP3    H170460   1.254   0.587  10.599  0.1977  0.5628  0.8609
16323TIP3    H270461   1.279   0.438  10.609  2.3902  0.8397  0.1598
16324TIP3   OH270462   4.577   4.611   3.339 -0.5409  0.6993 -0.1170
16324TIP3    H170463   4.495   4.617   3.290 -0.7113  0.2092  0.0984
16324TIP3    H270464   4.643   4.593   3.272 -0.7842 -0.0431 -0.1723
16325TIP3   OH270465   4.363   4.944   1.171 -0.1203 -0.0210 -0.8153
16325TIP3    H170466   4.278   4.954   1.215 -0.3840  1.0036 -1.5078
16325TIP3    H270467   4.401   5.032   1.173  0.1161 -0.0797 -2.0879
16326TIP3   OH270468   6.063   1.497   2.056  0.2738  0.5371  0.4685
16326TIP3    H170469   6.001   1.511   2.128 -0.6702  1.2331 -0.4508
16326TIP3    H270470   6.010   1.507   1.977  1.4715  0.6562 -0.3411
16327TIP3   OH270471   5.681   6.561  16.703 -0.7208  0.5225  0.0851
16327TIP3    H170472   5.718   6.584  16.788 -1.2595  0.6466  0.2926
16327TIP3    H270473   5.587   6.559  16.718 -0.7016 -2.6115  0.2577
16328TIP3   OH270474   1.007   1.849   3.739 -0.5072 -0.2634 -0.3167
16328TIP3    H170475   1.065   1.815   3.808  1.2971  1.0647 -1.1250
16328TIP3    H270476   1.066   1.884   3.673 -2.2178 -0.8791 -2.2706
16329TIP3   OH270477   2.000   1.279  15.783  0.2059  0.2238  0.6409
16329TIP3    H170478   2.069   1.333  15.744 -0.0533 -1.2341 -2.0259
16329TIP3    H270479   1.921   1.333  15.776  0.3182  0.2948 -0.1031
16330TIP3   OH270480   5.264   3.320   4.629  0.8667 -0.5389  0.1523
16330TIP3    H170481   5.248   3.345   4.538  0.2005 -0.7374  0.2112
16330TIP3    H270482   5.350   3.278   4.627  1.0507 -0.1586 -0.3094
16331TIP3   OH270483   0.586   1.247   3.109 -0.6542  0.0060 -0.1912
16331TIP3    H170484   0.662   1.281   3.063 -0.1266  1.9661  1.9304
16331TIP3    H270485   0.511   1.291   3.069 -0.3143  0.8565  0.1025
16332TIP3   OH270486   2.922   2.544  16.302  0.8276 -0.0250  0.1742
16332TIP3    H170487   2.842   2.596  16.297 -0.2914 -1.4509  2.1034
16332TIP3    H270488   2.926   2.499  16.217  0.0465  0.6748 -0.2529
16333TIP3   OH270489   1.600   2.127   4.810 -0.0692 -0.5747  0.4798
16333TIP3    H170490   1.547   2.104   4.734  3.1430 -0.7021 -1.9277
16333TIP3    H270491   1.552   2.091   4.884 -1.8277 -3.3299 -1.7728
16334TIP3   OH270492   4.344   0.451  15.948 -0.4617 -0.2187  0.1064
16334TIP3    H170493   4.286   0.480  15.878 -1.2993 -1.6431  0.1820
16334TIP3    H270494   4.355   0.357  15.934  2.6220  0.1241 -0.4622
16335TIP3   OH270495   6.367   3.149  16.986  0.0023  0.1095  0.0512
16335TIP3    H170496   6.441   3.172  17.041 -0.3899  0.4699  0.4376
16335TIP3    H270497   6.406   3.125  16.902  0.4136  2.9446 -0.6595
16336TIP3   OH270498   1.053   5.331   0.553 -0.1674  0.3160  0.2267
16336TIP3    H170499   0.977   5.386   0.536  0.3035  0.7957 -0.3826
16336TIP3    H270500   1.107   5.339   0.474  0.5831  0.1022  0.7022
16337TIP3   OH270501   3.020   5.257  12.054 -0.7744  0.2964  0.6556
16337TIP3    H170502   2.938   5.227  12.093  0.3297 -0.2234  2.7081
16337TIP3    H270503   3.084   5.254  12.125  0.7315  2.0540 -0.5094
16338TIP3   OH270504   2.829   2.609   3.003 -0.2213 -0.3951  0.2740
16338TIP3    H170505   2.744   2.597   2.959 -0.2401  1.1341 -0.1785
16338TIP3    H270506   2.811   2.676   3.070  0.0908 -1.8229  1.8414
16339TIP3   OH270507   2.733   1.536   5.190 -0.2520 -0.0762  0.1520
16339TIP3    H170508   2.659   1.579   5.233 -0.7025 -1.3504  0.7239
16339TIP3    H270509   2.808   1.556   5.245  0.0241  1.8670 -0.8440
16340TIP3   OH270510   1.449   1.562  13.216  0.1247 -0.1203  0.0059
16340TIP3    H170511   1.439   1.653  13.188 -0.0260  0.5116  1.9927
16340TIP3    H270512   1.541   1.555  13.243 -0.3860  0.1232  1.9689
16341TIP3   OH270513   5.078   0.328   4.763  0.1219  0.0212  0.3911
16341TIP3    H170514   5.153   0.284   4.803  0.8388  1.4391  0.6728
16341TIP3    H270515   5.098   0.421   4.772 -1.6696  0.4253  0.4521
16342TIP3   OH270516   1.719   4.435  12.327  0.0539 -0.1344 -0.2046
16342TIP3    H170517   1.808   4.465  12.309  0.5448  0.2399  2.4404
16342TIP3    H270518   1.664   4.507  12.295  0.8149  0.4370 -0.2768
16343TIP3   OH270519   4.240   5.953   6.959  0.6914 -0.1806  0.2294
16343TIP3    H170520   4.300   5.892   7.001  2.1335  0.8914 -0.2078
16343TIP3    H270521   4.292   5.994   6.889 -0.5451  0.7873 -0.1591
16344TIP3   OH270522   1.229   4.494  14.529  0.2920 -0.2177 -0.4642
16344TIP3    H170523   1.235   4.588  14.544 -1.1027  0.0476 -1.3621
16344TIP3    H270524   1.248   4.483  14.436 -1.0480 -0.6181 -0.7135
16345TIP3   OH270525   4.610   5.860  16.322 -0.2593  0.3776 -0.5465
16345TIP3    H170526   4.686   5.914  16.345 -0.6479  1.0382 -0.7617
16345TIP3    H270527   4.642   5.801  16.253 -0.3058  1.7062 -1.7593
16346TIP3   OH270528   2.376   5.670  12.736  0.0153 -0.6000  0.0300
16346TIP3    H170529   2.472   5.674  12.736  0.0555 -0.0345  2.4436
16346TIP3    H270530   2.353   5.652  12.645  2.3424  0.8830 -0.9552
16347TIP3   OH270531   5.334   4.803   1.436  0.0239  0.4025  0.0652
16347TIP3    H170532   5.325   4.898   1.444  4.5199  0.9736  0.8877
16347TIP3    H270533   5.337   4.772   1.527  1.3694 -0.1110 -0.1443
16348TIP3   OH270534   5.427   2.368  12.247 -0.2369  0.2656  0.0551
16348TIP3    H170535   5.407   2.320  12.328 -1.0376  1.4123  0.5638
16348TIP3    H270536   5.427   2.460  12.273  0.0566  0.6260 -1.1486
16349TIP3   OH270537   2.829   0.500   4.949  0.2266  0.0818 -0.1229
16349TIP3    H170538   2.801   0.411   4.971  0.8880 -0.1158 -0.0622
16349TIP3    H270539   2.748   0.551   4.949  0.1730  0.4440  4.3177
16350TIP3   OH270540   3.183   4.518  12.112 -0.1765  0.0851  0.0876
16350TIP3    H170541   3.200   4.436  12.158  2.1852  0.1515 -0.5182
16350TIP3    H270542   3.097   4.546  12.143 -0.8048 -2.3307  0.7073
16351TIP3   OH270543   3.149   2.751  13.927 -0.0482 -0.1909 -0.4827
16351TIP3    H170544   3.141   2.769  14.021 -0.1220 -0.8035 -0.3707
16351TIP3    H270545   3.103   2.668  13.914  0.8476 -0.6345 -0.8832
16352TIP3   OH270546   0.642   1.034   1.259  0.7165  0.0110  0.4862
16352TIP3    H170547   0.692   0.954   1.280 -0.1425 -1.0829 -1.3671
16352TIP3    H270548   0.576   1.005   1.196  0.0146  2.1088  0.1789
16353TIP3   OH270549   0.401   3.166   4.323  0.2553  0.1506 -0.5004
16353TIP3    H170550   0.449   3.094   4.282  1.5931  0.8721 -0.2669
16353TIP3    H270551   0.315   3.165   4.281  0.4548 -1.1969 -0.9198
16354TIP3   OH270552   3.283   0.625   5.575 -0.0733  0.4408  0.0626
16354TIP3    H170553   3.256   0.688   5.642 -1.6339  2.9697 -2.6935
16354TIP3    H270554   3.368   0.658   5.544 -0.0175  0.0958 -0.1554
16355TIP3   OH270555   3.278   1.773   3.330  0.0722 -0.2008 -0.3940
16355TIP3    H170556   3.210   1.720   3.287  0.0194  0.4725 -1.1601
16355TIP3    H270557   3.268   1.860   3.291  0.8639  0.1002  0.0706
16356TIP3   OH270558   1.986   2.283   4.540 -0.2637 -0.0255 -0.5512
16356TIP3    H170559   2.008   2.376   4.545 -1.2279  0.1946 -0.1319
16356TIP3    H270560   2.065   2.242   4.505  1.3005  0.5084  2.1154
16357TIP3   OH270561   0.181   3.419   6.535 -0.8800 -0.2712 -0.3516
16357TIP3    H170562   0.260   3.404   6.587 -0.4846  0.7644 -0.6338
16357TIP3    H270563   0.136   3.335   6.535  0.6116 -1.1028 -0.8563
16358TIP3   OH270564   6.470   2.737   0.327  0.9516  0.0238  0.3268
16358TIP3    H170565   6.483   2.724   0.421  1.4261 -1.3786  0.0894
16358TIP3    H270566   6.554   2.711   0.287  0.3450 -0.6412 -0.5636
16359TIP3   OH270567   2.758   1.241  13.993 -0.0874 -0.5016 -0.1894
16359TIP3    H170568   2.852   1.257  13.991 -0.3338  1.0675 -1.4949
16359TIP3    H270569   2.735   1.216  13.904 -1.0999  0.6438 -0.2895
16360TIP3   OH270570   0.778   4.059  10.680 -0.0447 -0.2913 -0.1281
16360TIP3    H170571   0.755   4.004  10.755  0.5760  0.3994  0.5845
16360TIP3    H270572   0.718   4.030  10.610 -2.2737  0.6255  1.2951
16361TIP3   OH270573   3.695   3.245   4.092 -0.3227  0.8947 -0.3469
16361TIP3    H170574   3.715   3.338   4.099 -2.7825  1.6527 -2.1606
16361TIP3    H270575   3.605   3.237   4.126 -1.8664  0.0552 -4.1626
16362TIP3   OH270576   1.865   3.498  14.655 -0.0915  0.2227 -0.1799
16362TIP3    H170577   1.885   3.411  14.690 -1.1496  0.0819  0.0858
16362TIP3    H270578   1.845   3.483  14.563  0.2488  0.2619 -0.2624
16363TIP3   OH270579   1.303   1.151   6.131 -0.3227 -0.8025 -0.1398
16363TIP3    H170580   1.229   1.203   6.162  2.0853  2.4308  0.7716
16363TIP3    H270581   1.323   1.091   6.204  0.8252  1.7168  1.7764
16364TIP3   OH270582   0.707   6.536  16.936 -0.0503  0.0106  0.2842
16364TIP3    H170583   0.633   6.593  16.958  0.6800  0.8471  0.6599
16364TIP3    H270584   0.686   6.452  16.977 -2.0481 -0.6536 -1.8319
16365TIP3   OH270585   3.216   0.247  12.149  0.0520 -0.2191 -0.0800
16365TIP3    H170586   3.131   0.209  12.167 -2.0285  4.2093  0.7272
16365TIP3    H270587   3.262   0.243  12.233 -1.3352  1.5681  0.8301
16366TIP3   OH270588   4.796   1.308  16.010 -0.0232  0.3538  0.3398
16366TIP3    H170589   4.739   1.329  15.935 -2.7702  0.1992  2.2445
16366TIP3    H270590   4.797   1.388  16.062  2.4551  0.6956 -0.1080
16367TIP3   OH270591   1.923   0.023  10.613 -0.1427  0.1768  0.0097
16367TIP3    H170592   1.849   0.083  10.615 -1.3468 -1.2767  0.5050
16367TIP3    H270593   1.977   0.049  10.688 -0.5225  0.7840  0.0797
16368TIP3   OH270594   4.022   4.502  14.801 -0.0662 -0.1247 -0.5601
16368TIP3    H170595   3.944   4.468  14.758 -1.3546  0.5176  1.1626
16368TIP3    H270596   4.021   4.596  14.782 -0.8578  0.2337  1.0959
16369TIP3   OH270597   2.604   1.191  12.896  0.9655 -0.0886 -0.4168
16369TIP3    H170598   2.572   1.226  12.813  0.8426 -0.6123 -0.5952
16369TIP3    H270599   2.696   1.220  12.900  0.8315  0.3604 -0.4943
16370TIP3   OH270600   3.057   0.524   0.930  0.0915 -0.1605 -0.4105
16370TIP3    H170601   3.099   0.522   0.844  1.6237 -0.2764  0.3000
16370TIP3    H270602   3.094   0.601   0.973  1.6747 -1.7154  1.2078
16371TIP3   OH270603   2.160   6.623   5.724 -0.5106 -0.1149 -0.3139
16371TIP3    H170604   2.234   6.572   5.693 -0.9859 -0.5345 -0.7796
16371TIP3    H270605   2.188   6.656   5.809  1.6740  2.8471 -1.9982
16372TIP3   OH270606   0.154   1.227  15.207  0.0650 -0.1063  0.1809
16372TIP3    H170607   0.243   1.258  15.191  0.2397 -0.3183  0.7500
16372TIP3    H270608   0.115   1.221  15.119  0.0203  1.7336  0.0392
16373TIP3   OH270609   5.793   3.607  14.312  0.3608  0.1812  0.4914
16373TIP3    H170610   5.812   3.649  14.228  1.4670 -0.3364  0.4691
16373TIP3    H270611   5.777   3.680  14.372  0.2470  0.5740 -0.0130
16374TIP3   OH270612   5.965   5.465   4.045 -0.1081 -0.1301 -0.4995
16374TIP3    H170613   6.000   5.376   4.048  0.4123  0.0986  0.7687
16374TIP3    H270614   6.017   5.513   4.109 -0.5384  1.0376 -1.0072
16375TIP3   OH270615   0.173   4.263  13.158 -0.2334  0.3303 -0.0745
16375TIP3    H170616   0.118   4.292  13.085  1.3915 -0.0466 -1.5222
16375TIP3    H270617   0.215   4.343  13.190  0.0622  0.3223 -0.4385
16376TIP3   OH270618   5.097   2.806   1.505 -1.0554 -0.3191 -0.5205
16376TIP3    H170619   5.164   2.817   1.437 -0.8095  0.5459 -0.1486
16376TIP3    H270620   5.144   2.762   1.576  0.0119  2.9318  0.9668
16377TIP3   OH270621   5.968   1.285  12.383 -0.0675  0.1487 -0.6637
16377TIP3    H170622   6.017   1.324  12.456 -1.4537  0.4419  0.1494
16377TIP3    H270623   5.922   1.211  12.422 -0.5702  0.1086 -1.3139
16378TIP3   OH270624   0.126   3.401  12.140  0.4014 -0.1406 -0.0222
16378TIP3    H170625   0.180   3.480  12.140  1.9128 -1.1290  0.0691
16378TIP3    H270626   0.103   3.388  12.048  0.7141  0.0240 -0.1247
16379TIP3   OH270627   2.527   5.723   6.702 -0.1397 -0.3222  0.1275
16379TIP3    H170628   2.496   5.658   6.765 -1.5473 -1.1483 -1.3540
16379TIP3    H270629   2.448   5.759   6.663  0.6683  1.2536 -0.1200
16380TIP3   OH270630   6.165   3.957  14.989  0.1477  0.3320  0.2199
16380TIP3    H170631   6.196   4.001  14.910 -1.2467  2.5857  0.8100
16380TIP3    H270632   6.073   3.936  14.970 -0.5385  1.9082  1.5635
16381TIP3   OH270633   5.910   3.411  12.356  0.8931 -0.1475  0.8101
16381TIP3    H170634   5.973   3.347  12.391 -0.0406 -1.9746 -0.6595
16381TIP3    H270635   5.828   3.390  12.400  0.7004  0.4465  0.7398
16382TIP3   OH270636   3.929   1.077   1.199  0.3029 -0.7757 -0.0149
16382TIP3    H170637   3.909   1.110   1.286  2.1262  3.2664 -0.8985
16382TIP3    H270638   3.881   1.135   1.140  0.6986 -2.1351 -1.7724
16383TIP3   OH270639   5.309   4.279  16.548 -0.4046 -0.2023  0.0740
16383TIP3    H170640   5.348   4.268  16.461 -0.4904 -0.8049  0.1142
16383TIP3    H270641   5.383   4.272  16.609 -0.4790 -0.6645  0.1070
16384TIP3   OH270642   2.303   3.183   0.608  0.0924  0.2991 -0.0918
16384TIP3    H170643   2.319   3.130   0.686 -1.1942 -0.5970 -0.4023
16384TIP3    H270644   2.327   3.125   0.535  1.3613  1.1542 -0.3817
16385TIP3   OH270645   6.066   1.974   4.463  0.4355  0.4028 -0.2656
16385TIP3    H170646   5.971   1.981   4.476  0.2840 -1.8483  0.2775
16385TIP3    H270647   6.076   1.930   4.379  0.9627 -0.3170  0.1635
16386TIP3   OH270648   6.202   4.305   6.693 -0.2065 -0.2247 -0.0649
16386TIP3    H170649   6.263   4.231   6.700 -0.1925 -0.1112  1.2581
16386TIP3    H270650   6.242   4.363   6.629  1.2423 -0.0295  0.9717
16387TIP3   OH270651   0.282   3.392   1.604  0.0254  0.1519  0.4300
16387TIP3    H170652   0.303   3.400   1.511 -0.8066 -0.7160  0.1443
16387TIP3    H270653   0.366   3.381   1.648  0.3863  0.0250 -0.2931
16388TIP3   OH270654   5.935   2.274   5.831 -0.6184  0.3418  0.3225
16388TIP3    H170655   5.923   2.369   5.828 -0.2762  0.4857  2.2079
16388TIP3    H270656   5.973   2.257   5.918  0.9314 -1.3494 -0.6068
16389TIP3   OH270657   5.779   5.179   2.249 -0.0904 -0.1912 -0.1205
16389TIP3    H170658   5.758   5.122   2.175 -0.0022  0.2523 -0.4910
16389TIP3    H270659   5.843   5.241   2.214  1.4365 -1.1618  0.8356
16390TIP3   OH270660   3.346   5.330   4.452 -0.3740  0.2990 -0.9434
16390TIP3    H170661   3.427   5.307   4.406  0.5175  1.5897 -0.0785
16390TIP3    H270662   3.277   5.311   4.389  0.6490 -0.1767 -1.9614
16391TIP3   OH270663   1.625   1.466  13.466 -0.2629  0.1923 -0.1893
16391TIP3    H170664   1.636   1.430  13.378  0.7020  1.6176 -0.6990
16391TIP3    H270665   1.714   1.487  13.495 -0.7514  2.5768 -0.1723
16392TIP3   OH270666   5.380   6.235  14.065  0.4088 -0.6394  0.7921
16392TIP3    H170667   5.380   6.139  14.066  0.5065 -0.6331  1.7392
16392TIP3    H270668   5.333   6.261  14.144 -3.2249  0.1437 -1.3927
16393TIP3   OH270669   1.659   6.294   4.189 -0.0432 -0.6445  0.3483
16393TIP3    H170670   1.711   6.363   4.231 -0.9381 -0.2761  0.8707
16393TIP3    H270671   1.617   6.338   4.115  0.6170 -1.0159 -0.2593
16394TIP3   OH270672   5.730   4.869  13.399 -0.1172 -0.0538 -0.6586
16394TIP3    H170673   5.643   4.841  13.430 -1.0367 -0.1931 -3.1578
16394TIP3    H270674   5.783   4.871  13.478 -2.3119 -0.2471  0.9354
16395TIP3   OH270675   2.097   2.550   3.300  0.0655  0.3253  0.4743
16395TIP3    H170676   2.056   2.503   3.373 -1.0212  0.1967 -0.2106
16395TIP3    H270677   2.184   2.510   3.292 -0.3246 -0.6067  0.8090
16396TIP3   OH270678   6.147   1.160   3.150 -0.1432 -0.2997  0.3174
16396TIP3    H170679   6.161   1.255   3.152 -1.2910 -0.1093  0.0993
16396TIP3    H270680   6.054   1.149   3.171 -0.2438 -1.3158 -0.5761
16397TIP3   OH270681   1.194   6.116  13.103 -0.2475  0.2987 -0.0602
16397TIP3    H170682   1.172   6.199  13.059  1.8573  0.3618 -1.1045
16397TIP3    H270683   1.142   6.050  13.057 -1.5820  0.9361  0.4693
16398TIP3   OH270684   3.559   3.241  16.082 -0.3002 -0.3275 -0.3339
16398TIP3    H170685   3.471   3.237  16.120 -0.7391  2.3650 -0.8303
16398TIP3    H270686   3.556   3.317  16.023  2.5079  0.2221  0.0832
16399TIP3   OH270687   4.829   5.258  16.949 -0.1855  0.6123 -0.1601
16399TIP3    H170688   4.749   5.278  16.900 -1.0558 -1.3875  0.3375
16399TIP3    H270689   4.895   5.314  16.910 -1.6445  1.7183 -1.1580
16400TIP3   OH270690   0.667   5.748   1.337  0.0245 -0.6690 -0.1946
16400TIP3    H170691   0.680   5.654   1.330 -2.7429 -1.1276 -0.1994
16400TIP3    H270692   0.572   5.760   1.329  0.3748  2.2026 -1.2160
16401TIP3   OH270693   4.592   3.084   1.787  0.2618 -0.0136  0.3071
16401TIP3    H170694   4.528   3.106   1.854 -0.1819 -0.3294  0.0016
16401TIP3    H270695   4.669   3.054   1.835 -0.2086 -0.6635  0.6748
16402TIP3   OH270696   4.486   6.362   1.065  0.0998 -0.3263 -0.4280
16402TIP3    H170697   4.569   6.342   1.022  1.4284  0.3263  1.6687
16402TIP3    H270698   4.473   6.455   1.050  0.2202 -0.2391 -0.0029
16403TIP3   OH270699   6.106   0.090   4.423  0.2519  0.0714 -0.2601
16403TIP3    H170700   6.068   0.169   4.462 -2.5040 -0.5947 -1.3575
16403TIP3    H270701   6.106   0.109   4.329  1.5899 -0.4556 -0.3872
16404TIP3   OH270702   4.760   6.266   2.456  0.0327 -0.2685  0.5926
16404TIP3    H170703   4.778   6.353   2.420  0.0858  0.2506  1.8223
16404TIP3    H270704   4.822   6.208   2.412  0.4151  0.4260  0.2058
16405TIP3   OH270705   1.249   3.994  11.759 -0.5851 -0.2543 -0.4052
16405TIP3    H170706   1.180   4.005  11.694 -0.9901  1.9012  0.3106
16405TIP3    H270707   1.330   4.011  11.711 -0.7662 -0.0479 -0.6372
16406TIP3   OH270708   3.696   5.902  14.803  0.0166 -0.2804  0.0970
16406TIP3    H170709   3.687   5.939  14.715 -0.6448  0.7654  0.5961
16406TIP3    H270710   3.612   5.919  14.845  0.8563  0.6101  1.4591
16407TIP3   OH270711   5.633   2.097  12.565  0.5041 -0.0838 -0.0110
16407TIP3    H170712   5.566   2.041  12.525  0.1482 -0.5924  1.2391
16407TIP3    H270713   5.697   2.113  12.495  0.3371 -1.6282 -0.5448
16408TIP3   OH270714   0.490   1.972   6.238 -0.4637 -0.5191  0.4241
16408TIP3    H170715   0.447   2.051   6.206  1.0105 -0.4049 -1.4472
16408TIP3    H270716   0.489   1.912   6.164 -1.9954 -2.5070  1.9552
16409TIP3   OH270717   4.424   3.076   2.009 -0.5483 -0.1348  0.1716
16409TIP3    H170718   4.465   3.071   2.095  3.3325  0.6120 -1.4240
16409TIP3    H270719   4.389   3.165   2.004  0.0617  0.1397  0.6501
16410TIP3   OH270720   0.548   3.029  10.834  0.1947  0.4805  0.0173
16410TIP3    H170721   0.627   3.077  10.860 -0.2676  0.9511  0.6038
16410TIP3    H270722   0.522   3.070  10.751  0.6724  0.1912 -0.2781
16411TIP3   OH270723   4.736   5.529  16.595  0.4283  0.3427 -0.3439
16411TIP3    H170724   4.684   5.559  16.670  1.7712 -1.7829  1.5824
16411TIP3    H270725   4.800   5.599  16.581 -0.6081  1.3236 -0.3771
16412TIP3   OH270726   1.117   3.206  11.636  0.1988  0.0174 -0.4016
16412TIP3    H170727   1.058   3.261  11.586  0.7062  0.8992 -0.0515
16412TIP3    H270728   1.205   3.236  11.611  0.5875 -2.2316 -2.0311
16413TIP3   OH270729   3.541   0.887   3.467  1.0743  0.6026  0.3001
16413TIP3    H170730   3.454   0.926   3.453  1.2495  0.9013  0.0430
16413TIP3    H270731   3.529   0.831   3.544  0.3378 -0.3609 -0.4932
16414TIP3   OH270732   0.151   5.163   4.756  0.1401  0.0309  0.1887
16414TIP3    H170733   0.243   5.149   4.776  0.2885  0.0382 -0.4807
16414TIP3    H270734   0.131   5.250   4.791  1.5612  2.0681 -3.5555
16415TIP3   OH270735   4.169   1.576   1.659 -0.1116 -0.0219 -0.6421
16415TIP3    H170736   4.260   1.552   1.676  0.0942 -0.6149 -2.3900
16415TIP3    H270737   4.122   1.548   1.737  1.1369 -0.0471  0.1306
16416TIP3   OH270738   2.721   3.225   0.813  0.3401  0.3673  0.3072
16416TIP3    H170739   2.772   3.161   0.763  1.2797  1.0430  0.3623
16416TIP3    H270740   2.726   3.194   0.903  0.6355  0.4099  0.3068
16417TIP3   OH270741   1.674   5.430  11.496  0.2234 -0.2943 -0.2280
16417TIP3    H170742   1.741   5.426  11.564 -0.6652  0.1537  0.7090
16417TIP3    H270743   1.593   5.447  11.544 -0.1883  1.7518 -1.5207
16418TIP3   OH270744   5.089   3.726  16.389 -0.1882  0.7807 -0.0328
16418TIP3    H170745   5.010   3.779  16.382 -0.6126 -0.0601 -3.6219
16418TIP3    H270746   5.076   3.673  16.467 -1.8856  2.5745  0.9852
16419TIP3   OH270747   5.869   3.259   0.115 -0.1250 -0.3415  0.1551
16419TIP3    H170748   5.944   3.258   0.175 -0.0979  1.1512  0.1792
16419TIP3    H270749   5.908   3.270   0.028 -0.3383  1.6663  0.2785
16420TIP3   OH270750   5.411   0.677  11.790 -0.4891 -0.6011 -0.1439
16420TIP3    H170751   5.423   0.721  11.706 -0.1672 -1.6563 -0.6650
16420TIP3    H270752   5.333   0.718  11.827 -0.8522 -0.3635 -1.1303
16421TIP3   OH270753   3.452   6.354   3.937 -0.1621  0.0759 -0.1334
16421TIP3    H170754   3.360   6.369   3.914  0.1187 -0.2768 -1.5894
16421TIP3    H270755   3.448   6.289   4.007 -1.0146 -0.0390 -0.2688
16422TIP3   OH270756   4.655   2.363  11.745  0.1073  0.3963  0.2827
16422TIP3    H170757   4.730   2.304  11.736  0.3801  0.6837  0.6352
16422TIP3    H270758   4.677   2.418  11.820 -1.3272 -0.7984  1.6546
16423TIP3   OH270759   5.657   3.442   0.136  0.5519  0.2592  0.1874
16423TIP3    H170760   5.696   3.529   0.131  0.6174  0.2202  0.0286
16423TIP3    H270761   5.728   3.382   0.115  1.0440  0.0335  2.2958
16424TIP3   OH270762   0.611   3.381  16.522 -0.3014  0.0520 -0.2597
16424TIP3    H170763   0.655   3.347  16.444  2.3433  1.8195  0.3535
16424TIP3    H270764   0.569   3.462  16.493  0.3698  0.5182  0.0566
16425TIP3   OH270765   5.448   3.595  14.096  0.2694  0.2891 -0.3187
16425TIP3    H170766   5.491   3.581  14.012 -2.5407 -0.4950 -1.7636
16425TIP3    H270767   5.405   3.680  14.088  0.5652  0.5384  0.6101
16426TIP3   OH270768   0.939   3.162  12.824 -0.7824 -0.3489 -0.2575
16426TIP3    H170769   1.026   3.189  12.853  0.0524 -1.3406 -1.7312
16426TIP3    H270770   0.908   3.235  12.769 -0.3490 -0.5301 -0.7453
16427TIP3   OH270771   3.653   6.164   2.179 -0.1324 -0.8396  0.3618
16427TIP3    H170772   3.717   6.233   2.194 -0.6109 -0.5941  1.4207
16427TIP3    H270773   3.599   6.196   2.107  1.7249 -1.6492 -1.4940
16428TIP3   OH270774   5.778   6.228  16.058 -0.7973  0.1690 -0.2529
16428TIP3    H170775   5.721   6.291  16.102 -0.8131  0.4638 -0.6835
16428TIP3    H270776   5.804   6.272  15.977 -0.8567 -0.4018 -0.5876
16429TIP3   OH270777   4.636   6.222   3.082  0.1888 -0.3434 -0.7328
16429TIP3    H170778   4.586   6.304   3.083 -0.1874 -0.5501 -1.5253
16429TIP3    H270779   4.707   6.237   3.144  0.2616  0.6767 -1.0292
16430TIP3   OH270780   4.573   2.508   4.354 -0.9562 -0.6939 -0.1443
16430TIP3    H170781   4.657   2.464   4.339 -0.5501  0.3746 -1.1146
16430TIP3    H270782   4.523   2.446   4.407 -0.0745 -1.9500 -0.7278
16431TIP3   OH270783   5.846   4.593  12.031 -0.2975  0.5986 -0.4645
16431TIP3    H170784   5.906   4.545  11.974 -1.6973 -1.1966 -0.4947
16431TIP3    H270785   5.849   4.545  12.114  0.0933  1.9302  0.3358
16432TIP3   OH270786   2.459   3.510  11.513 -0.5638  0.0282 -0.3357
16432TIP3    H170787   2.379   3.537  11.468 -0.5107 -1.7988 -1.6202
16432TIP3    H270788   2.430   3.480  11.599 -0.7561  2.8331  0.6814
16433TIP3   OH270789   3.236   5.092  11.822 -0.0088  0.5002 -0.1261
16433TIP3    H170790   3.273   5.179  11.838 -0.7712  0.8595 -0.2649
16433TIP3    H270791   3.235   5.084  11.727  1.4241 -0.2769 -0.1054
16434TIP3   OH270792   5.852   3.648   0.155 -0.2940 -0.3672  0.6332
16434TIP3    H170793   5.901   3.613   0.229 -0.8346 -0.7794  0.8084
16434TIP3    H270794   5.914   3.704   0.109 -0.5019  1.6586  2.6036
16435TIP3   OH270795   1.078   6.246  12.561  0.4473  0.2688 -0.2245
16435TIP3    H170796   1.150   6.280  12.508 -1.7736  1.8584 -2.3730
16435TIP3    H270797   1.062   6.158  12.526  3.2586 -1.5230  2.4025
16436TIP3   OH270798   5.202   1.183   0.864  0.4106  0.1486 -0.4286
16436TIP3    H170799   5.189   1.088   0.873  1.5341  0.0001 -0.2267
16436TIP3    H270800   5.128   1.222   0.911  0.6590 -0.6354  0.6548
16437TIP3   OH270801   4.389   3.786  16.447  0.5507 -0.8741 -0.7451
16437TIP3    H170802   4.480   3.762  16.432  0.8269 -0.4552  0.1993
16437TIP3    H270803   4.392   3.854  16.514 -0.5380 -1.8289  0.3293
16438TIP3   OH270804   5.979   3.324  15.867 -0.2437 -0.0644  0.0023
16438TIP3    H170805   6.056   3.353  15.819 -0.4994 -0.1868 -0.4989
16438TIP3    H270806   6.006   3.321  15.958  0.7658 -1.4193 -0.3023
16439TIP3   OH270807   0.912   2.363  15.231  0.0822 -0.3956 -0.2347
16439TIP3    H170808   0.835   2.410  15.263  0.0631  0.9279 -2.1184
16439TIP3    H270809   0.950   2.419  15.164  1.1190 -2.2600 -1.3167
16440TIP3   OH270810   0.069   3.421  13.061 -0.1733 -0.4456  0.3979
16440TIP3    H170811   0.024   3.435  13.144 -0.3870  0.4629  0.1371
16440TIP3    H270812   0.104   3.507  13.037  2.7479 -1.2844  1.1716
16441TIP3   OH270813   6.355   3.373   4.916 -0.0264  0.4403  0.9911
16441TIP3    H170814   6.302   3.449   4.941  1.0144  1.1949  0.9610
16441TIP3    H270815   6.342   3.365   4.821  0.9958  1.5132  0.7281
16442TIP3   OH270816   1.115   1.635   4.926  0.1651  0.8030  0.4094
16442TIP3    H170817   1.073   1.689   4.993 -1.6398 -2.3286  2.0765
16442TIP3    H270818   1.046   1.620   4.861  0.5818  0.4593  0.0420
16443TIP3   OH270819   0.810   2.753  11.595 -0.0642  0.4272  0.1178
16443TIP3    H170820   0.865   2.756  11.517  0.9961 -0.7910  0.7893
16443TIP3    H270821   0.743   2.688  11.575  0.5165 -0.2689  0.4017
16444TIP3   OH270822   4.442   5.525  15.897 -0.3920 -0.3403 -0.2868
16444TIP3    H170823   4.477   5.445  15.936 -1.2109 -0.1774  0.8064
16444TIP3    H270824   4.507   5.549  15.830  0.7572 -0.9274  0.5882
16445TIP3   OH270825   5.258   2.257  12.443 -0.1699  0.5842  0.4752
16445TIP3    H170826   5.240   2.344  12.478 -4.0260  0.7842 -1.4671
16445TIP3    H270827   5.190   2.201  12.480  0.7232 -1.0562 -0.2510
16446TIP3   OH270828   3.486   5.920  16.851  0.1439 -0.2364  0.5015
16446TIP3    H170829   3.480   5.995  16.791 -0.3114 -1.2070 -0.6885
16446TIP3    H270830   3.567   5.876  16.826 -0.4680 -1.1127  0.0397
16447TIP3   OH270831   3.753   2.616  14.944  0.2231  0.5160  0.3405
16447TIP3    H170832   3.822   2.592  14.882 -0.9831 -2.5661 -0.0149
16447TIP3    H270833   3.767   2.556  15.018 -0.1016  2.1479  1.7809
16448TIP3   OH270834   5.092   0.062  16.266 -0.0522 -0.2495 -0.1050
16448TIP3    H170835   5.157   0.008  16.221  0.7531 -1.7415  2.5883
16448TIP3    H270836   5.010   0.013  16.258  0.3653 -1.2006  1.0574
16449TIP3   OH270837   6.434   2.750   3.538  0.6609 -0.2518  0.7559
16449TIP3    H170838   6.459   2.660   3.515  1.4072  0.1486 -0.0586
16449TIP3    H270839   6.517   2.797   3.543  0.2051  1.4691 -3.4407
16450TIP3   OH270840   3.087   0.165   5.731 -0.1537  0.1917  0.5712
16450TIP3    H170841   3.133   0.237   5.685  2.1962 -1.3490  0.3263
16450TIP3    H270842   3.141   0.148   5.808  0.4142 -2.4850 -0.3338
16451TIP3   OH270843   4.443   3.886   6.153 -0.5179 -0.2736  0.1065
16451TIP3    H170844   4.439   3.973   6.115 -1.6615  0.2719  1.3821
16451TIP3    H270845   4.535   3.873   6.176 -0.4455  0.8729  0.4968
16452TIP3   OH270846   0.768   2.579   1.965  0.1329 -0.0941  0.2748
16452TIP3    H170847   0.693   2.558   2.020 -2.0583  1.0339 -2.0790
16452TIP3    H270848   0.761   2.673   1.949  1.8287 -0.0401 -0.3326
16453TIP3   OH270849   6.364   1.236  14.935  0.1100  0.4025  0.3601
16453TIP3    H170850   6.304   1.208  14.866 -0.5325  0.3146  0.9444
16453TIP3    H270851   6.327   1.318  14.968  0.0767  0.1351  1.0012
16454TIP3   OH270852   3.472   3.483  14.840 -0.4554  0.0832 -0.1639
16454TIP3    H170853   3.567   3.476  14.842 -0.3365  1.5742  0.3560
16454TIP3    H270854   3.442   3.394  14.824  1.0281 -0.3786 -0.5063
16455TIP3   OH270855   2.890   2.203   0.288  0.8307  0.0075  0.1411
16455TIP3    H170856   2.904   2.289   0.247  0.9793 -0.2583 -0.3665
16455TIP3    H270857   2.968   2.153   0.266 -0.0686 -0.8703 -1.1416
16456TIP3   OH270858   5.089   1.755  15.482  0.5496 -0.3841 -0.1485
16456TIP3    H170859   5.027   1.703  15.532 -0.3506  0.2635 -0.5568
16456TIP3    H270860   5.037   1.795  15.413  1.8444 -1.7407 -2.0253
16457TIP3   OH270861   6.419   3.397  13.858 -0.1103  0.3099  0.3067
16457TIP3    H170862   6.488   3.410  13.793 -0.9614  0.8781 -0.5100
16457TIP3    H270863   6.386   3.309  13.840  1.8488 -0.8832  2.1475
16458TIP3   OH270864   1.484   3.419   2.949 -0.0996 -0.0076  0.0201
16458TIP3    H170865   1.567   3.447   2.988 -0.0536  0.1932 -0.2188
16458TIP3    H270866   1.488   3.323   2.949  0.0091 -0.0031  0.2725
16459TIP3   OH270867   0.514   6.124   0.670  0.2966 -0.5228  0.0667
16459TIP3    H170868   0.514   6.178   0.749  1.8434  0.7304 -0.7388
16459TIP3    H270869   0.526   6.035   0.701  0.3845 -0.1032  1.2728
16460TIP3   OH270870   0.707   5.277   4.258 -0.2934  0.0304 -0.0643
16460TIP3    H170871   0.633   5.228   4.293 -0.4463  0.6962  0.5658
16460TIP3    H270872   0.783   5.241   4.304 -0.2895 -0.2728 -0.3066
16461TIP3   OH270873   6.335   0.972   3.192 -0.0775  0.7433 -0.1008
16461TIP3    H170874   6.279   1.050   3.193 -1.1019  0.0303 -0.3074
16461TIP3    H270875   6.274   0.899   3.196  0.9142 -0.0477  0.9430
16462TIP3   OH270876   5.241   6.177   1.758  0.2616 -0.8492  0.0448
16462TIP3    H170877   5.265   6.154   1.848 -0.9450  1.6253  1.1187
16462TIP3    H270878   5.160   6.127   1.742 -0.0777 -0.5470  0.7473
16463TIP3   OH270879   5.536   0.880   4.165 -0.2547 -0.4984  0.3442
16463TIP3    H170880   5.444   0.907   4.177 -0.6373 -0.6441 -1.8107
16463TIP3    H270881   5.530   0.790   4.134  0.5368 -0.2035 -0.7416
16464TIP3   OH270882   6.145   5.050   5.360  0.3110  0.0898 -0.5289
16464TIP3    H170883   6.137   5.030   5.266 -0.5002 -0.4936 -0.3403
16464TIP3    H270884   6.232   5.018   5.383  0.0756 -0.7874 -0.8363
16465TIP3   OH270885   2.960   2.796  10.636 -0.4477 -0.2084  0.3776
16465TIP3    H170886   2.984   2.710  10.601  1.2738  0.1248  0.6267
16465TIP3    H270887   2.865   2.794  10.643 -0.5654 -1.5393 -1.0545
16466TIP3   OH270888   6.554   3.060  11.394 -0.0420 -0.0175 -0.2449
16466TIP3    H170889   6.550   3.005  11.315  2.1223 -1.2795  0.4433
16466TIP3    H270890   6.508   3.140  11.369  0.7012 -0.3087 -2.8555
16467TIP3   OH270891   4.139   6.040  13.822 -0.2248 -0.9676  0.0690
16467TIP3    H170892   4.146   6.048  13.917  1.0381  2.2407 -0.1577
16467TIP3    H270893   4.229   6.037  13.791 -0.5608  0.0326 -1.0938
16468TIP3   OH270894   4.782   5.751  16.097 -0.3415 -0.6529  0.0808
16468TIP3    H170895   4.872   5.735  16.127  0.1401  0.1142 -0.8836
16468TIP3    H270896   4.776   5.701  16.015 -0.4059  0.1997 -0.4446
16469TIP3   OH270897   0.303   4.130   5.020 -0.3808  0.4710 -0.0756
16469TIP3    H170898   0.395   4.113   4.999 -0.5813 -0.5348 -0.1894
16469TIP3    H270899   0.286   4.217   4.984 -0.5039 -0.8233 -3.5194
16470TIP3   OH270900   5.358   3.372  15.929 -0.4100 -0.5627  0.1273
16470TIP3    H170901   5.331   3.457  15.893 -1.3206  0.9783  4.0088
16470TIP3    H270902   5.293   3.310  15.895 -0.8363  0.5980 -1.3025
16471TIP3   OH270903   5.759   1.147   4.130 -0.3468 -0.0808  0.1791
16471TIP3    H170904   5.697   1.135   4.201 -1.4688 -0.4788 -0.8436
16471TIP3    H270905   5.757   1.065   4.081 -0.1985  0.4637 -0.7748
16472TIP3   OH270906   0.562   0.943  15.942  0.0796  0.6132  0.6601
16472TIP3    H170907   0.474   0.928  15.977  0.0270  0.0108  0.2866
16472TIP3    H270908   0.601   0.855  15.936  0.6903  0.8708  0.7783
16473TIP3   OH270909   0.120   1.628  16.595  0.1428 -0.3871  0.1732
16473TIP3    H170910   0.123   1.696  16.528 -0.4531  1.2964  1.7602
16473TIP3    H270911   0.203   1.637  16.642 -0.6857  0.5246  1.5304
16474TIP3   OH270912   2.739   0.608  16.045 -0.9813 -0.4134 -0.0290
16474TIP3    H170913   2.754   0.694  16.005  2.2753 -1.5635 -1.6076
16474TIP3    H270914   2.680   0.564  15.983 -0.9971 -0.0419 -0.2881
16475TIP3   OH270915   1.613   2.958   0.835 -0.2732 -0.4418  0.6638
16475TIP3    H170916   1.628   2.889   0.900 -1.6365 -1.6571 -0.2734
16475TIP3    H270917   1.579   2.913   0.758  0.7647  1.0338 -0.7399
16476TIP3   OH270918   5.387   2.802  13.009 -0.2017 -1.0682  0.0358
16476TIP3    H170919   5.346   2.743  12.947 -1.5231  0.4904 -0.6278
16476TIP3    H270920   5.410   2.880  12.958 -1.1305  0.1752  1.4177
16477TIP3   OH270921   0.132   0.732  12.605  0.1546 -0.2415  0.0167
16477TIP3    H170922   0.155   0.694  12.690  1.6494  0.4462 -0.0420
16477TIP3    H270923   0.087   0.814  12.627  2.8867  1.3197  0.2542
16478TIP3   OH270924   2.229   1.735   5.682 -0.4486 -0.3678  0.1051
16478TIP3    H170925   2.160   1.777   5.733  0.1435  0.5998  0.1368
16478TIP3    H270926   2.258   1.661   5.735  1.1666  1.4581  1.8931
16479TIP3   OH270927   4.919   2.944  12.251  0.7375 -0.7700 -0.2240
16479TIP3    H170928   4.836   2.908  12.220  0.8897  0.0923 -1.7302
16479TIP3    H270929   4.985   2.883  12.220  0.7634 -0.8121 -0.0870
16480TIP3   OH270930   2.361   3.262  13.950 -0.4164 -0.5059 -0.4821
16480TIP3    H170931   2.425   3.301  14.009  0.4095 -0.8644 -1.1000
16480TIP3    H270932   2.330   3.183  13.996 -1.3386  0.3086  0.3345
16481TIP3   OH270933   0.618   4.501  17.041 -0.1802 -0.5114  0.1137
16481TIP3    H170934   0.637   4.489  17.134 -3.4486 -0.7898  0.8562
16481TIP3    H270935   0.528   4.471  17.031  0.5474 -1.9847 -3.5102
16482TIP3   OH270936   1.931   2.336  14.209  0.5082  0.1474  1.0113
16482TIP3    H170937   1.981   2.385  14.275  0.0162 -0.4545  1.8509
16482TIP3    H270938   1.890   2.404  14.155 -0.8784  0.7100  2.6966
16483TIP3   OH270939   5.598   3.604  14.727 -0.4183 -1.0304 -0.1996
16483TIP3    H170940   5.571   3.624  14.817  1.4286  0.9486 -0.0091
16483TIP3    H270941   5.525   3.634  14.673 -0.4046  0.3647  0.5083
16484TIP3   OH270942   5.747   1.283   4.988 -0.1967  0.1242  0.2951
16484TIP3    H170943   5.781   1.372   4.994  0.0386  0.1388 -0.9042
16484TIP3    H270944   5.811   1.228   5.034  1.8575  0.0674 -2.3705
16485TIP3   OH270945   0.897   4.675   3.102  0.3612  0.0694 -0.6407
16485TIP3    H170946   0.985   4.684   3.067  0.2964  0.1417 -0.7872
16485TIP3    H270947   0.839   4.695   3.028  0.2250  1.0297 -0.2895
16486TIP3   OH270948   6.253   6.664   2.365  0.0296  0.2873 -0.0461
16486TIP3    H170949   6.225   6.609   2.292  0.3616  0.5274 -0.3579
16486TIP3    H270950   6.343   6.688   2.344  0.5434 -0.5873  1.0059
16487TIP3   OH270951   2.501   5.573   2.147  0.1652 -0.2592  0.2125
16487TIP3    H170952   2.447   5.495   2.130 -1.0928  0.5611  0.2881
16487TIP3    H270953   2.542   5.556   2.232 -0.7769 -0.4837  0.6345
16488TIP3   OH270954   1.634   3.137  10.425 -0.2093 -0.2138  0.3085
16488TIP3    H170955   1.717   3.088  10.432 -0.1319 -0.1712 -0.2553
16488TIP3    H270956   1.659   3.222  10.390 -0.6260 -0.6259 -1.0387
16489TIP3   OH270957   3.370   2.772   5.602 -0.0430 -0.3875 -0.4971
16489TIP3    H170958   3.289   2.727   5.627  0.3047 -0.7120  0.0700
16489TIP3    H270959   3.439   2.708   5.619  0.4037  0.1517 -0.2386
16490TIP3   OH270960   4.488   5.944  16.845 -0.6715 -0.1711  0.7235
16490TIP3    H170961   4.531   6.012  16.897 -1.1044  0.0506  0.7963
16490TIP3    H270962   4.477   5.983  16.759  1.5996 -1.1376 -0.0867
16491TIP3   OH270963   6.513   2.750   1.191  0.4734  0.2103 -0.1114
16491TIP3    H170964   6.519   2.825   1.250  1.3478  0.7367 -0.8570
16491TIP3    H270965   6.458   2.781   1.119 -1.9211 -0.9080  1.0775
16492TIP3   OH270966   2.905   0.329   4.153 -0.4196  0.6493  0.3334
16492TIP3    H170967   2.915   0.393   4.224  0.5608 -0.1824  0.9638
16492TIP3    H270968   2.817   0.295   4.164 -0.1083  0.1641  1.4850
16493TIP3   OH270969   2.657   1.069   2.317 -0.2124  0.1688 -0.3329
16493TIP3    H170970   2.730   1.076   2.255 -0.7847  0.5325 -0.9855
16493TIP3    H270971   2.608   1.151   2.304 -1.8379 -0.9083 -1.3498
16494TIP3   OH270972   4.371   3.713   4.963  0.0842  0.0726 -0.2924
16494TIP3    H170973   4.437   3.647   4.987  0.2640 -0.2110 -1.4804
16494TIP3    H270974   4.364   3.769   5.040  0.0511 -1.2334  0.6834
16495TIP3   OH270975   4.239   0.754   6.286  0.4304  0.2166 -0.0014
16495TIP3    H170976   4.199   0.670   6.307 -1.7673  1.2181  0.1078
16495TIP3    H270977   4.333   0.735   6.281  0.1149 -2.0012  1.0938
16496TIP3   OH270978   1.622   3.155  14.408  0.1887  0.1053 -0.2862
16496TIP3    H170979   1.637   3.062  14.424 -2.3785 -0.0902  1.5551
16496TIP3    H270980   1.665   3.199  14.481  1.0486  0.3716 -0.9355
16497TIP3   OH270981   2.655   2.252   2.626  0.4452 -0.1346  0.3725
16497TIP3    H170982   2.564   2.236   2.602 -0.0854  0.3503  1.9038
16497TIP3    H270983   2.701   2.263   2.543 -1.0033  0.1361 -0.4205
16498TIP3   OH270984   6.059   5.539  11.458  0.0000 -0.0389 -0.0500
16498TIP3    H170985   6.061   5.449  11.426  1.6627 -0.2154  0.4748
16498TIP3    H270986   6.033   5.590  11.381  3.6373 -0.4867 -1.7850
16499TIP3   OH270987   1.094   6.005  10.769  0.0575 -0.2234  0.5766
16499TIP3    H170988   1.002   6.026  10.753  0.6040  1.9180 -0.0813
16499TIP3    H270989   1.092   5.920  10.813 -2.1863 -0.5115  0.0356
16500TIP3   OH270990   2.997   5.750   6.118  0.1788  0.0371 -0.4942
16500TIP3    H170991   2.918   5.710   6.082  1.0563 -0.7201 -1.6711
16500TIP3    H270992   3.007   5.711   6.204 -0.4090 -0.2949 -0.5696
16501TIP3   OH270993   2.057   1.249  16.532  0.0532  0.1113 -0.0074
16501TIP3    H170994   1.980   1.250  16.476 -0.4959 -3.5378  0.4206
16501TIP3    H270995   2.025   1.278  16.618 -0.3082  0.6669 -0.3224
16502TIP3   OH270996   1.234   4.533  11.520 -0.5108  0.0906 -0.2623
16502TIP3    H170997   1.310   4.476  11.534 -0.4034 -0.3036 -2.1280
16502TIP3    H270998   1.170   4.504  11.585 -0.7998 -2.8579 -1.6885
16503TIP3   OH270999   6.202   2.542   5.961 -0.1355 -0.4693 -0.5702
16503TIP3    H171000   6.256   2.466   5.984 -1.9714 -1.2157  1.6864
16503TIP3    H271001   6.197   2.593   6.042 -0.7301  0.9132 -1.4429
16504TIP3   OH271002   6.491   2.164   5.590  0.2415 -0.3462  0.0771
16504TIP3    H171003   6.449   2.106   5.654  1.6732 -2.1911 -0.5482
16504TIP3    H271004   6.551   2.217   5.642 -0.7102  0.2599  0.5928
16505TIP3   OH271005   3.929   5.445   5.794 -0.3551 -0.3491  0.3727
16505TIP3    H171006   3.881   5.526   5.775  2.5757  1.3475 -0.5609
16505TIP3    H271007   3.916   5.390   5.717 -1.6310 -0.4192  0.6185
16506TIP3   OH271008   3.751   0.895  13.865  0.3228  0.2442 -0.6427
16506TIP3    H171009   3.813   0.902  13.937 -0.2575 -0.7237 -0.0265
16506TIP3    H271010   3.720   0.805  13.868 -1.2595  0.7496 -0.7974
16507TIP3   OH271011   4.261   2.845   5.653 -0.8123 -0.0717 -0.5010
16507TIP3    H171012   4.215   2.764   5.677  0.7210 -0.3945  1.6142
16507TIP3    H271013   4.312   2.867   5.730  2.2928  0.4757 -2.5192
16508TIP3   OH271014   4.913   5.985   4.377  0.5737 -0.1898  0.2842
16508TIP3    H171015   4.997   5.970   4.333  0.9233  0.0191  0.8662
16508TIP3    H271016   4.883   5.897   4.401  0.9398 -0.2181  0.6420
16509TIP3   OH271017   2.054   2.785  14.196 -0.3817 -0.1927 -0.7491
16509TIP3    H171018   2.146   2.770  14.178 -0.5369 -1.7225 -0.4233
16509TIP3    H271019   2.048   2.878  14.218  1.3045 -0.3571  0.5366
16510TIP3   OH271020   5.264   5.980  15.874 -0.2901  0.2086  0.0033
16510TIP3    H171021   5.295   5.989  15.783 -0.5975 -0.4983 -0.1784
16510TIP3    H271022   5.181   6.027  15.875 -0.5574 -0.2549 -0.2274
16511TIP3   OH271023   0.914   4.506  15.630  0.5830 -0.0823 -0.3721
16511TIP3    H171024   0.886   4.563  15.559 -0.8955 -1.5716 -1.0660
16511TIP3    H271025   1.007   4.522  15.640  0.8782  0.0450 -2.7816
16512TIP3   OH271026   2.285   5.687   1.576 -0.1699 -0.0996 -0.2191
16512TIP3    H171027   2.234   5.610   1.550  0.7745 -0.7381 -0.2199
16512TIP3    H271028   2.273   5.692   1.671  1.4857 -1.5618  0.1230
16513TIP3   OH271029   4.689   5.072   4.642 -0.0464 -0.5082  0.1044
16513TIP3    H171030   4.767   5.109   4.601 -1.0461 -0.4115 -1.8605
16513TIP3    H271031   4.704   4.977   4.641 -0.0853 -0.5160 -0.6221
16514TIP3   OH271032   0.958   0.653   0.117  0.0757  0.4296 -0.0332
16514TIP3    H171033   1.044   0.651   0.074  0.0475  0.2617 -0.0817
16514TIP3    H271034   0.949   0.566   0.156 -0.3894  0.1968 -0.6480
16515TIP3   OH271035   6.065   0.481  11.170  0.3301 -0.1356 -0.2234
16515TIP3    H171036   6.064   0.477  11.265  0.4527  0.0969 -0.2136
16515TIP3    H271037   5.973   0.473  11.145  0.2269  0.5110 -0.0597
16516TIP3   OH271038   0.663   5.429   1.081  0.0331 -0.1412  0.0953
16516TIP3    H171039   0.582   5.478   1.069  0.0206 -0.7391 -3.0529
16516TIP3    H271040   0.732   5.495   1.074 -0.0367 -0.2496 -2.9198
16517TIP3   OH271041   3.603   3.723  15.117  0.3019  0.2091  0.6940
16517TIP3    H171042   3.553   3.720  15.198 -1.6239 -2.6676 -0.4253
16517TIP3    H271043   3.569   3.799  15.070  1.4178  1.8911  2.4443
16518TIP3   OH271044   6.532   5.351   5.495  0.2124 -0.0051  0.0288
16518TIP3    H171045   6.584   5.352   5.575  0.0619  0.7877  0.1188
16518TIP3    H271046   6.544   5.438   5.457  0.5995 -0.4991 -1.0226
16519TIP3   OH271047   3.804   5.678  14.084 -0.0779 -0.2136  0.0579
16519TIP3    H171048   3.753   5.681  14.165  0.3983 -0.8409  0.3874
16519TIP3    H271049   3.792   5.588  14.052 -0.0734 -0.0368 -0.4385
16520TIP3   OH271050   3.660   3.923   2.745 -0.0032 -0.2295  0.1695
16520TIP3    H171051   3.706   3.930   2.828  0.6242  0.4472 -0.2146
16520TIP3    H271052   3.682   3.836   2.712 -1.6754 -1.1937  1.5066
16521TIP3   OH271053   0.367   3.864   1.348 -0.6465 -0.3741  0.4847
16521TIP3    H171054   0.449   3.878   1.396 -1.4479 -0.3712  1.9264
16521TIP3    H271055   0.301   3.855   1.417 -1.3351 -4.0054 -0.4720
16522TIP3   OH271056   2.051   6.507  13.352  0.2521  0.1726  0.0092
16522TIP3    H171057   2.091   6.518  13.265 -1.0594  0.4874 -0.5807
16522TIP3    H271058   2.122   6.475  13.407  1.6621  1.9342 -0.6803
16523TIP3   OH271059   6.492   5.748   1.817  0.4046 -0.3604  0.0191
16523TIP3    H171060   6.407   5.739   1.861  0.2201 -0.3084 -0.3215
16523TIP3    H271061   6.541   5.671   1.844 -0.2249 -1.0710 -0.8158
16524TIP3   OH271062   6.674   2.290   2.426  0.0151  0.5420 -0.2004
16524TIP3    H171063   6.658   2.232   2.352  1.1428  2.0511 -1.7043
16524TIP3    H271064   6.597   2.347   2.429  0.0422  0.5819 -0.2907
16525TIP3   OH271065   3.262   1.148  14.394 -0.0714  0.1994 -0.7324
16525TIP3    H171066   3.294   1.078  14.338 -0.6493 -1.6875  1.1496
16525TIP3    H271067   3.171   1.125  14.413  0.0654  0.7829  0.8590
16526TIP3   OH271068   3.794   2.688   3.445 -0.6629  0.0863 -0.1210
16526TIP3    H171069   3.819   2.605   3.404  0.1213  1.0516 -1.7139
16526TIP3    H271070   3.713   2.713   3.400  1.3208  2.2222 -2.8725
16527TIP3   OH271071   2.536   6.040   5.563  0.0278  0.5578 -0.6066
16527TIP3    H171072   2.534   6.119   5.617  0.9440 -0.0450  0.3591
16527TIP3    H271073   2.511   5.969   5.623 -1.6303  0.1867 -1.6663
16528TIP3   OH271074   0.906   3.899  10.923 -0.0983 -0.3848  0.2523
16528TIP3    H171075   0.859   3.876  11.003  0.2838 -1.7458  0.1264
16528TIP3    H271076   0.966   3.826  10.910  1.2663  0.7856 -0.1923
16529TIP3   OH271077   5.474   3.541  16.687  0.1560 -0.2993  0.1915
16529TIP3    H171078   5.430   3.508  16.609 -0.2594 -2.4619  1.2689
16529TIP3    H271079   5.424   3.504  16.760 -0.2327  2.6695  1.5547
16530TIP3   OH271080   1.988   5.534   5.380  0.7108 -0.7079 -0.6150
16530TIP3    H171081   1.909   5.534   5.326  0.2520  1.7288 -0.0482
16530TIP3    H271082   2.060   5.526   5.317  0.0979 -3.2762 -1.1122
16531TIP3   OH271083   1.449   5.896  16.053  0.0641 -0.1474  0.0457
16531TIP3    H171084   1.467   5.959  15.983 -1.0098 -0.2524 -0.3447
16531TIP3    H271085   1.354   5.886  16.052  0.0961 -0.6490  1.0958
16532TIP3   OH271086   4.418   2.261  14.757  0.0345 -0.4647  0.0162
16532TIP3    H171087   4.374   2.220  14.683  0.9371 -0.7406 -0.3898
16532TIP3    H271088   4.486   2.198  14.783  0.0313 -0.1698  0.7821
16533TIP3   OH271089   6.205   1.542  10.599  0.3816 -1.3090 -0.5618
16533TIP3    H171090   6.190   1.637  10.596 -2.7557 -1.7171 -0.9472
16533TIP3    H271091   6.273   1.526  10.534  0.4811  0.5793 -0.9830
16534TIP3   OH271092   3.345   1.533  12.646 -0.3601 -0.0941 -0.3792
16534TIP3    H171093   3.394   1.486  12.578  0.2218 -1.4942  0.9476
16534TIP3    H271094   3.313   1.464  12.704 -0.8738  1.0682  0.7615
16535TIP3   OH271095   0.149   5.399   5.317  0.0966 -0.0177 -0.0250
16535TIP3    H171096   0.061   5.362   5.317  0.8811 -2.0214 -0.2127
16535TIP3    H271097   0.203   5.334   5.273  1.8136  0.8137  0.7178
16536TIP3   OH271098   1.900   1.445  10.557  0.1030  0.1425 -0.3056
16536TIP3    H171099   1.926   1.354  10.544 -0.1403  0.2174 -1.4739
16536TIP3    H271100   1.970   1.483  10.610  1.0211 -0.3392 -1.1365
16537TIP3   OH271101   6.652   5.268  13.523 -0.2755 -0.4227 -0.5022
16537TIP3    H171102   6.676   5.204  13.457  0.7185  0.0170 -0.5872
16537TIP3    H271103   6.640   5.350  13.475  1.8501  0.2396 -0.0273
16538TIP3   OH271104   2.263   5.307  12.620 -0.3540 -0.7494 -0.3548
16538TIP3    H171105   2.235   5.309  12.528 -1.1704 -3.5665 -0.2787
16538TIP3    H271106   2.210   5.374  12.663 -0.2078  0.3798 -1.8540
16539TIP3   OH271107   3.149   3.546  15.357  0.0678  0.0610  0.6037
16539TIP3    H171108   3.148   3.583  15.269  0.2787 -0.2544  0.4646
16539TIP3    H271109   3.142   3.621  15.416 -2.7083  0.1205  0.3095
16540TIP3   OH271110   5.932   1.560   4.124  0.0539  0.1494  0.1591
16540TIP3    H171111   5.958   1.468   4.111 -0.7842  0.1576 -2.0950
16540TIP3    H271112   5.841   1.563   4.095 -1.5505  0.8422  4.5413
16541TIP3   OH271113   5.817   2.529  12.263  0.3640 -0.3715 -0.5635
16541TIP3    H171114   5.813   2.463  12.194 -0.3867 -0.5933 -0.3159
16541TIP3    H271115   5.729   2.568  12.264  0.1394 -0.8768  0.7549
16542TIP3   OH271116   1.853   1.035   3.367  0.0708 -0.1650  0.1532
16542TIP3    H171117   1.849   1.079   3.282 -1.9918 -1.3997 -0.4662
16542TIP3    H271118   1.847   1.105   3.431 -2.5697  0.6115 -0.8038
16543TIP3   OH271119   6.097   2.099   1.690  0.2297 -0.3230  0.3972
16543TIP3    H171120   6.163   2.147   1.641  0.6530 -0.8638  0.4318
16543TIP3    H271121   6.098   2.139   1.777 -0.2243  0.3539  0.1026
16544TIP3   OH271122   6.746   0.248  16.040  0.2016  0.3839  0.1622
16544TIP3    H171123   6.763   0.222  15.949 -1.5067 -1.0870  0.2046
16544TIP3    H271124   6.679   0.317  16.032 -0.4798 -0.2489  0.3054
16545TIP3   OH271125   4.761   5.024  16.369  0.0358  0.2311 -0.4860
16545TIP3    H171126   4.851   5.057  16.371  0.0232  0.2608 -0.3978
16545TIP3    H271127   4.768   4.938  16.327  0.1963 -0.0523  0.1062
16546TIP3   OH271128   5.432   4.205  14.373 -0.3244  0.1273 -0.0779
16546TIP3    H171129   5.412   4.254  14.453  1.6052  1.2473 -0.2142
16546TIP3    H271130   5.519   4.237  14.347 -1.6184  1.1869 -3.6420
16547TIP3   OH271131   1.791   5.748  13.319 -0.4110  0.0058 -0.3094
16547TIP3    H171132   1.854   5.816  13.341  0.6616 -0.8237 -0.6941
16547TIP3    H271133   1.721   5.758  13.383 -0.1506  1.2871 -0.1976
16548TIP3   OH271134   4.649   4.266   4.724 -0.8378  0.1190  0.6586
16548TIP3    H171135   4.745   4.266   4.717 -0.9417  1.6236 -2.2069
16548TIP3    H271136   4.625   4.175   4.707  0.0736 -0.8664  3.9100
16549TIP3   OH271137   4.271   5.489  14.652  0.4968 -0.5181 -0.4728
16549TIP3    H171138   4.189   5.441  14.667 -0.2623  1.2590  1.4864
16549TIP3    H271139   4.329   5.461  14.723  1.9693 -2.3341 -2.2672
16550TIP3   OH271140   3.276   3.772  15.566 -0.1157 -0.2853  0.0874
16550TIP3    H171141   3.181   3.765  15.557  0.0769 -1.3914 -1.4596
16550TIP3    H271142   3.289   3.810  15.653 -1.9670 -0.0438  0.2968
16551TIP3   OH271143   2.579   3.063   5.495 -0.0579 -0.1477 -0.5507
16551TIP3    H171144   2.554   3.130   5.432 -0.6599 -0.9997 -1.2341
16551TIP3    H271145   2.612   2.991   5.442  0.3784 -0.4878  0.1663
16552TIP3   OH271146   5.868   5.506  10.867 -0.0107 -0.5275  0.0073
16552TIP3    H171147   5.801   5.537  10.806 -0.5995 -1.7896 -0.0228
16552TIP3    H271148   5.869   5.571  10.938 -0.3210  0.1954 -0.6456
16553TIP3   OH271149   5.904   0.897   3.281 -0.4953  0.1192 -0.5633
16553TIP3    H171150   5.908   0.991   3.264  1.2269 -0.0174 -1.1979
16553TIP3    H271151   5.812   0.874   3.269 -0.4904  1.1698 -3.8475
16554TIP3   OH271152   1.821   3.786  11.283  0.0419 -0.5818  0.1554
16554TIP3    H171153   1.732   3.800  11.315  0.5202 -1.5125  2.0234
16554TIP3    H271154   1.843   3.867  11.238  0.5263  2.5210  5.2198
16555TIP3   OH271155   1.904   1.189   4.827 -0.2853 -0.0514 -0.0489
16555TIP3    H171156   1.990   1.158   4.856 -0.6156  0.4555  1.5194
16555TIP3    H271157   1.902   1.168   4.733  1.2903 -0.6380  0.0212
16556TIP3   OH271158   3.258   0.585  15.806 -0.1346  0.1636 -0.1401
16556TIP3    H171159   3.206   0.548  15.735  1.9901 -2.0379 -0.6799
16556TIP3    H271160   3.195   0.598  15.877 -1.7618 -0.5175 -1.3790
16557TIP3   OH271161   2.864   6.046   4.528  0.4022 -0.3560 -0.7700
16557TIP3    H171162   2.794   6.020   4.589  1.5796 -2.8408 -0.3940
16557TIP3    H271163   2.944   6.042   4.580  0.9883  1.8067 -1.3789
16558TIP3   OH271164   4.931   0.749   1.605 -0.4993 -0.4301  0.3796
16558TIP3    H171165   4.845   0.717   1.631 -0.7740  1.5825  2.2706
16558TIP3    H271166   4.929   0.843   1.625  1.3136  0.1777 -1.8452
16559TIP3   OH271167   5.466   2.407  16.228 -0.0859 -0.1111  0.2371
16559TIP3    H171168   5.450   2.480  16.288  1.4264 -1.3931  2.3190
16559TIP3    H271169   5.448   2.329  16.279  1.8008 -1.2791 -0.7683
16560TIP3   OH271170   4.457   5.838  15.700 -0.1910 -0.7459  0.5977
16560TIP3    H171171   4.523   5.874  15.760 -0.1349 -1.8327  1.2125
16560TIP3    H271172   4.373   5.860  15.742 -0.3367  1.7263 -0.7951
16561TIP3   OH271173   4.357   6.788   4.259  0.3077  0.0766 -0.2933
16561TIP3    H171174   4.449   6.803   4.277  0.5555 -0.9318 -0.6760
16561TIP3    H271175   4.356   6.735   4.179 -0.4987 -1.9078  0.9612
16562TIP3   OH271176   5.380   0.112   1.596 -0.0302 -0.5186 -0.5684
16562TIP3    H171177   5.350   0.028   1.562  0.0917 -1.0002  0.4552
16562TIP3    H271178   5.385   0.098   1.691 -0.0255  0.6507 -0.3842
16563TIP3   OH271179   2.074   3.543  12.614 -0.3601  0.4898  0.3924
16563TIP3    H171180   2.163   3.578  12.607 -0.0041  0.0789  2.3947
16563TIP3    H271181   2.022   3.598  12.554  1.4003  0.0203 -1.6773
16564TIP3   OH271182   4.214   1.239   1.554  0.2013 -0.0400 -0.7165
16564TIP3    H171183   4.253   1.245   1.467 -0.3324  2.7404 -0.8590
16564TIP3    H271184   4.263   1.171   1.598  1.7990 -0.1552 -2.5497
16565TIP3   OH271185   2.193   1.262   5.409  0.2661  0.1017  0.2992
16565TIP3    H171186   2.232   1.348   5.423  1.3883 -0.0927 -1.3380
16565TIP3    H271187   2.120   1.279   5.349  1.2166 -0.1907 -0.9875
16566TIP3   OH271188   3.916   1.669   3.179 -0.1845  0.2607  0.4994
16566TIP3    H171189   3.924   1.677   3.084  1.5516  1.9358  0.7373
16566TIP3    H271190   3.844   1.728   3.202 -1.6365 -1.2793  0.1375
16567TIP3   OH271191   5.049   0.940   0.926 -0.1572  0.1740  0.4491
16567TIP3    H171192   4.992   0.867   0.949 -1.0718  0.2483 -1.4212
16567TIP3    H271193   5.067   0.983   1.010 -1.1781 -1.0491  1.3412
16568TIP3   OH271194   2.216   1.656   3.003 -0.3151  0.4901  0.0620
16568TIP3    H171195   2.250   1.744   3.019  1.8678 -0.1950 -0.5124
16568TIP3    H271196   2.275   1.619   2.937 -1.9831 -0.9481 -0.7117
16569TIP3   OH271197   0.171   0.564  12.861  0.2624 -0.3200  0.0466
16569TIP3    H171198   0.129   0.646  12.885  2.2928  0.7015  0.3176
16569TIP3    H271199   0.185   0.519  12.945 -0.7538 -0.9097 -0.0911
16570TIP3   OH271200   3.748   0.885  13.555  0.0357  0.0003 -0.1483
16570TIP3    H171201   3.684   0.813  13.555  1.0914 -0.9790 -0.7983
16570TIP3    H271202   3.731   0.932  13.636 -0.3699 -1.2971  0.5600
16571TIP3   OH271203   2.548   4.823  14.265  0.3373  0.4541 -0.3904
16571TIP3    H171204   2.478   4.799  14.205  0.4387  1.0574 -0.7619
16571TIP3    H271205   2.620   4.850  14.208 -0.2600  3.0385 -0.0286
16572TIP3   OH271206   3.980   0.421  14.323  0.5893  0.2092  0.4054
16572TIP3    H171207   3.964   0.347  14.381  0.4502  1.1837  1.6337
16572TIP3    H271208   3.970   0.384  14.235 -0.9702 -0.9139  1.0062
16573TIP3   OH271209   5.617   0.517  11.525  0.3611 -0.3620 -0.1695
16573TIP3    H171210   5.562   0.441  11.544 -1.0469  0.5640 -0.3558
16573TIP3    H271211   5.582   0.552  11.444  1.9758 -0.3682 -0.9117
16574TIP3   OH271212   3.457   0.480  13.783  0.1319  0.5499 -0.1069
16574TIP3    H171213   3.482   0.412  13.847  1.3920  1.1227  0.0451
16574TIP3    H271214   3.375   0.448  13.745 -1.4248  0.8099  2.7343
16575TIP3   OH271215   2.279   0.708   0.642  0.0161 -0.3531 -0.2837
16575TIP3    H171216   2.218   0.657   0.695 -1.2152  0.1344 -1.2024
16575TIP3    H271217   2.289   0.657   0.562  1.1889 -0.6524  0.0342
16576TIP3   OH271218   3.128   1.787  11.219  0.2519 -0.6186 -0.0838
16576TIP3    H171219   3.111   1.878  11.243  1.2351 -0.3104 -0.4913
16576TIP3    H271220   3.084   1.776  11.135  0.4675 -0.4033 -0.2243
16577TIP3   OH271221   5.853   5.640  12.343  0.2941 -0.3460  0.1695
16577TIP3    H171222   5.875   5.605  12.430  1.4521  0.8036  0.3725
16577TIP3    H271223   5.780   5.586  12.313  0.2817 -1.1677  1.5943
16578TIP3   OH271224   4.420   5.238   1.254  0.1779  0.4041 -0.1234
16578TIP3    H171225   4.430   5.311   1.315 -1.0381 -0.5355  1.2687
16578TIP3    H271226   4.352   5.183   1.293  0.2381 -0.8832 -1.7181
16579TIP3   OH271227   4.239   2.180  14.552  0.2268  0.0914 -0.0072
16579TIP3    H171228   4.241   2.086  14.568  1.0491 -0.1492 -1.3818
16579TIP3    H271229   4.146   2.202  14.545  0.0504 -0.9032 -1.1082
16580TIP3   OH271230   0.294   0.379  16.633  0.5227 -0.4379  0.0963
16580TIP3    H171231   0.217   0.338  16.673  0.6369  0.2247  1.0492
16580TIP3    H271232   0.268   0.471  16.622  0.8419 -0.4147 -0.4637
16581TIP3   OH271233   6.207   0.895  10.205  0.1122 -0.3379  0.1986
16581TIP3    H171234   6.223   0.846  10.286 -0.4859  0.5784  0.8963
16581TIP3    H271235   6.113   0.915  10.206  0.0745 -0.4134 -0.7836
16582TIP3   OH271236   4.353   0.574  13.979  0.0284  0.0619  0.2331
16582TIP3    H171237   4.304   0.496  14.004  1.5300 -1.3050 -0.9035
16582TIP3    H271238   4.316   0.644  14.033 -3.1234 -0.8720 -0.5301
16583TIP3   OH271239   0.573   4.605  11.201 -0.1539  0.2642  0.2160
16583TIP3    H171240   0.584   4.588  11.294  1.2252  0.7919  0.1687
16583TIP3    H271241   0.601   4.524  11.158  1.8711  0.9196  0.1838
16584TIP3   OH271242   0.121   1.717   2.820  0.6527 -0.1888  0.5050
16584TIP3    H171243   0.196   1.765   2.785  1.1622 -0.5209  1.1402
16584TIP3    H271244   0.068   1.784   2.864 -0.2187  0.3169 -1.2264
16585TIP3   OH271245   2.270   4.725  13.525  0.4290 -0.5381 -0.0382
16585TIP3    H171246   2.266   4.720  13.620  0.9671 -1.9133 -0.0522
16585TIP3    H271247   2.202   4.787  13.501 -0.0783 -0.5838  1.2082
16586TIP3   OH271248   1.149   2.522   5.840  0.5185  0.3085 -0.0045
16586TIP3    H171249   1.208   2.491   5.909 -0.1107 -0.8759  0.0275
16586TIP3    H271250   1.075   2.559   5.887  0.6160  0.5759 -0.0550
16587TIP3   OH271251   5.114   3.210   2.799  0.0748  0.6615  0.1142
16587TIP3    H171252   5.072   3.296   2.791  0.1629  0.6637 -0.3326
16587TIP3    H271253   5.195   3.218   2.750  0.1872  0.3876  0.2520
16588TIP3   OH271254   6.773   4.809   3.479 -0.4415  0.3263  0.1779
16588TIP3    H171255   6.838   4.743   3.454 -1.3425 -0.8234  0.7561
16588TIP3    H271256   6.740   4.843   3.396 -0.0376 -0.0161 -0.1301
16589TIP3   OH271257   0.177   5.506  13.755  0.1573  0.2771 -0.2508
16589TIP3    H171258   0.264   5.534  13.728  0.2692 -0.2588 -0.4482
16589TIP3    H271259   0.117   5.559  13.703  0.3664  0.1863 -0.5819
16590TIP3   OH271260   4.478   0.498  12.029 -0.5619  0.4517  0.1139
16590TIP3    H171261   4.560   0.451  12.044  0.8890  3.2082  1.5758
16590TIP3    H271262   4.412   0.429  12.023  1.6243 -1.8152  0.3029
16591TIP3   OH271263   5.531   2.124  13.893 -0.0373 -0.1122 -0.1839
16591TIP3    H171264   5.465   2.065  13.930 -1.6408  0.8941 -1.2819
16591TIP3    H271265   5.574   2.163  13.969  1.4114 -2.9616  0.5789
16592TIP3   OH271266   1.277   0.345   6.308  0.2745  0.0147 -0.7749
16592TIP3    H171267   1.321   0.275   6.355 -0.6541  0.2121  0.4443
16592TIP3    H271268   1.184   0.328   6.321  0.0021  2.1455  0.6677
16593TIP3   OH271269   6.556   3.253   3.507 -0.1205 -0.2234  0.6243
16593TIP3    H171270   6.564   3.251   3.602 -1.5565 -1.1185  0.7490
16593TIP3    H271271   6.472   3.295   3.490 -0.1350 -0.5667 -0.2339
16594TIP3   OH271272   5.342   0.692   3.822 -0.3576 -0.6199 -0.4670
16594TIP3    H171273   5.427   0.674   3.861 -0.9756  1.5520  2.2529
16594TIP3    H271274   5.281   0.689   3.896 -2.2431  0.3362 -1.8927
16595TIP3   OH271275   3.076   1.466  12.357 -0.4453  1.0386 -0.4371
16595TIP3    H171276   3.090   1.373  12.337 -4.5848 -0.4576  2.2236
16595TIP3    H271277   3.113   1.477  12.444 -1.3604  1.3944 -0.0830
16596TIP3   OH271278   4.775   1.667  16.534 -0.0231  0.4044 -0.1120
16596TIP3    H171279   4.851   1.722  16.552  1.2994 -0.7675 -1.7157
16596TIP3    H271280   4.726   1.714  16.466  0.2843  0.3326 -0.3891
16597TIP3   OH271281   2.377   2.055   5.884 -0.2505 -0.4171 -0.5230
16597TIP3    H171282   2.407   1.965   5.879  0.2576 -0.3948  1.3108
16597TIP3    H271283   2.284   2.051   5.859 -1.4983 -2.2697  3.4964
16598TIP3   OH271284   0.695   5.527  16.613  0.1163 -0.3416  0.4292
16598TIP3    H171285   0.706   5.619  16.590  0.0565  0.7252  4.0868
16598TIP3    H271286   0.604   5.507  16.592 -0.0156  0.5854  0.0828
16599TIP3   OH271287   3.724   6.403  14.474 -0.0644  0.0750  0.3470
16599TIP3    H171288   3.776   6.414  14.554  0.2402 -1.5778  0.3990
16599TIP3    H271289   3.681   6.318  14.484 -0.7008  0.2257 -0.8803
16600TIP3   OH271290   4.990   2.041   3.138  0.0592  0.4336  0.6309
16600TIP3    H171291   5.079   2.021   3.109  0.5202  0.2552  2.1036
16600TIP3    H271292   4.942   1.959   3.128 -0.5570  1.0122 -2.1241
16601TIP3   OH271293   2.766   0.006  15.981 -0.0233  0.7501 -0.2205
16601TIP3    H171294   2.727   0.055  15.909  1.4834 -0.7546 -2.1643
16601TIP3    H271295   2.858   0.033  15.982  0.0021  0.6987  1.1308
16602TIP3   OH271296   5.754   1.324  13.722 -0.4334 -0.0511 -0.1594
16602TIP3    H171297   5.763   1.304  13.815 -0.6665  0.0881 -0.1055
16602TIP3    H271298   5.838   1.363  13.698 -0.5285  0.3096  0.0941
16603TIP3   OH271299   3.727   2.699   0.314 -0.6394 -0.3792  0.1862
16603TIP3    H171300   3.658   2.649   0.358  0.1833 -2.9451 -1.2079
16603TIP3    H271301   3.806   2.678   0.362 -0.4422  0.7077  0.3699
16604TIP3   OH271302   4.879   1.942   0.062  0.0929 -0.5576  0.3669
16604TIP3    H171303   4.844   1.898  -0.015  0.9442 -1.5565  0.5271
16604TIP3    H271304   4.843   2.031   0.058 -1.5451 -1.2126 -0.0420
16605TIP3   OH271305   0.849   2.970   4.731  0.1843 -0.1316  0.5410
16605TIP3    H171306   0.919   3.035   4.735 -1.7502  2.1712 -0.2169
16605TIP3    H271307   0.818   2.974   4.640  0.2028 -2.4215  0.3801
16606TIP3   OH271308   4.073   5.790   5.431  0.0229 -0.5424  0.4072
16606TIP3    H171309   4.117   5.769   5.348 -0.5463  1.7353 -0.5461
16606TIP3    H271310   4.132   5.759   5.499  1.3287 -0.8921 -0.8574
16607TIP3   OH271311   2.057   6.263  12.348 -0.1431  0.3220  0.4062
16607TIP3    H171312   2.109   6.192  12.310  1.0896  0.9674  0.8056
16607TIP3    H271313   2.105   6.288  12.427 -3.1645 -1.7107  3.1469
16608TIP3   OH271314   4.825   4.514  14.502  0.3668 -0.1463  1.0949
16608TIP3    H171315   4.841   4.518  14.596 -2.3832  1.0232  1.5897
16608TIP3    H271316   4.815   4.605  14.475  2.2655 -0.3735 -0.6201
16609TIP3   OH271317   5.905   1.789   4.265  0.7168  0.0168  0.0438
16609TIP3    H171318   5.942   1.710   4.225  0.2965  0.5621 -1.4876
16609TIP3    H271319   5.903   1.853   4.193 -0.6049  0.8634  0.8088
16610TIP3   OH271320   4.231   6.662  14.237 -0.4430  0.1186  0.2490
16610TIP3    H171321   4.136   6.671  14.240 -0.7077 -1.6056 -1.3584
16610TIP3    H271322   4.246   6.567  14.238  1.2499  0.3522  0.0754
16611TIP3   OH271323   0.676   5.173  14.511  0.2467  0.2031  0.9873
16611TIP3    H171324   0.590   5.153  14.549 -0.0250 -1.6021 -0.4299
16611TIP3    H271325   0.694   5.263  14.540 -0.6369 -0.4593  3.9394
16612TIP3   OH271326   3.870   2.945   2.065  0.0100 -0.3749 -0.2038
16612TIP3    H171327   3.922   2.887   2.011 -1.7120 -1.2308 -1.0136
16612TIP3    H271328   3.840   3.013   2.005  1.7166  1.2362  0.6602
16613TIP3   OH271329   2.181   1.326  11.071  1.0614 -0.8451  0.6360
16613TIP3    H171330   2.220   1.412  11.057  0.4332 -0.1659  2.6487
16613TIP3    H271331   2.255   1.267  11.084  1.5292 -0.8355 -1.5862
16614TIP3   OH271332   6.668   2.324   2.708 -0.2551  0.4039  0.2129
16614TIP3    H171333   6.744   2.267   2.724 -1.1911 -1.0655 -0.3294
16614TIP3    H271334   6.647   2.310   2.615 -1.2759  0.6625  0.3928
16615TIP3   OH271335   0.102   0.151   0.563 -0.0843 -0.3805 -0.0737
16615TIP3    H171336   0.158   0.130   0.638  0.7837 -0.8502 -0.8332
16615TIP3    H271337   0.163   0.170   0.492 -0.8521 -2.3030 -1.3229
16616TIP3   OH271338   1.647   3.767   2.783 -0.2933  0.1181  0.1013
16616TIP3    H171339   1.707   3.750   2.856  0.1677  1.7771  0.1551
16616TIP3    H271340   1.690   3.729   2.707  0.8331  1.2231  0.1537
16617TIP3   OH271341   0.607   2.189  12.977  0.6782  0.1047  0.0594
16617TIP3    H171342   0.700   2.200  12.995  1.0616 -2.1166 -0.2377
16617TIP3    H271343   0.604   2.125  12.906 -1.0780 -0.0734  0.2549
16618TIP3   OH271344   6.352   6.209  13.486  0.1818  0.0288  0.5363
16618TIP3    H171345   6.258   6.227  13.496 -0.5257 -3.0099  0.3955
16618TIP3    H271346   6.383   6.276  13.426 -2.7737 -0.9241 -2.3802
16619TIP3   OH271347   2.706   5.919   3.286 -0.0633 -0.6084 -0.3863
16619TIP3    H171348   2.704   6.014   3.297 -0.5768 -0.7883  1.2952
16619TIP3    H271349   2.734   5.907   3.195 -0.9784  1.1550 -0.9628
16620TIP3   OH271350   4.921   6.698  16.204 -0.3808 -0.4965 -0.2541
16620TIP3    H171351   4.989   6.662  16.261 -2.3790 -2.0366  1.3106
16620TIP3    H271352   4.903   6.629  16.141 -2.0229 -1.0700  0.7760
16621TIP3   OH271353   2.201   2.770  12.360 -0.0544 -0.1891 -0.1585
16621TIP3    H171354   2.233   2.854  12.393 -0.5928  0.1369 -0.4543
16621TIP3    H271355   2.219   2.708  12.430  0.8047  0.0736 -0.1357
16622TIP3   OH271356   1.743   1.849   4.321  0.0298  0.1920 -0.3582
16622TIP3    H171357   1.805   1.877   4.254  0.5115 -0.1421 -0.0663
16622TIP3    H271358   1.789   1.778   4.367 -0.0137  0.8602  0.7564
16623TIP3   OH271359   3.045   2.881  12.863  0.3004 -0.8316  0.2745
16623TIP3    H171360   2.986   2.908  12.793  1.2864  0.5960 -0.0213
16623TIP3    H271361   3.127   2.860  12.819  0.9965  0.2866  1.0038
16624TIP3   OH271362   1.615   1.983   5.642  0.1356  0.8177  0.1857
16624TIP3    H171363   1.678   1.976   5.714 -1.7910 -1.1217  1.8241
16624TIP3    H271364   1.543   2.035   5.678 -0.9535 -0.3581 -0.2057
16625TIP3   OH271365   6.374   1.360  12.366 -0.0125  0.1931  0.2636
16625TIP3    H171366   6.379   1.268  12.342 -0.6387  0.4580 -0.9451
16625TIP3    H271367   6.374   1.407  12.283  0.2472  1.2851  0.8607
16626TIP3   OH271368   1.161   4.666   0.711 -0.2641 -0.1149 -0.0951
16626TIP3    H171369   1.140   4.758   0.723 -1.1212 -0.1275 -1.3750
16626TIP3    H271370   1.174   4.655   0.617  0.4496 -1.1799  0.1002
16627TIP3   OH271371   1.393   0.441   5.355  0.7605 -0.5850 -0.2587
16627TIP3    H171372   1.319   0.396   5.314  0.4755 -0.3103 -0.0519
16627TIP3    H271373   1.400   0.523   5.305  0.5775 -0.3666  0.0671
16628TIP3   OH271374   5.156   0.596   0.224  0.6135 -0.5440  0.0004
16628TIP3    H171375   5.238   0.630   0.259  0.7964  1.4627 -2.1216
16628TIP3    H271376   5.094   0.604   0.296  1.9716 -0.8567  1.2344
16629TIP3   OH271377   0.754   1.153   5.172 -0.0814  0.5046 -0.4804
16629TIP3    H171378   0.813   1.157   5.097 -0.9240  2.6217 -1.0822
16629TIP3    H271379   0.670   1.184   5.139 -1.8744 -3.1786  0.1530
16630TIP3   OH271380   3.539   4.272   1.408 -0.0782 -0.4115  0.3880
16630TIP3    H171381   3.511   4.246   1.496  2.5941 -1.1635  1.0906
16630TIP3    H271382   3.470   4.332   1.379 -0.8944  0.1422  3.1049
16631TIP3   OH271383   0.378   0.944  17.002  0.3228 -0.1724 -0.4510
16631TIP3    H171384   0.362   0.854  17.032  2.1729 -0.9573 -1.5868
16631TIP3    H271385   0.373   0.938  16.906  0.2665  0.9859 -0.5326
16632TIP3   OH271386   1.809   3.705   3.010  0.2085 -0.0773  0.1351
16632TIP3    H171387   1.832   3.613   3.026 -0.7893 -0.5186 -0.8518
16632TIP3    H271388   1.797   3.742   3.097  1.1418 -0.7396  0.5679
16633TIP3   OH271389   2.866   4.236  13.535 -0.3232 -0.2826 -0.5844
16633TIP3    H171390   2.778   4.236  13.575 -0.1027 -1.6485 -0.0650
16633TIP3    H271391   2.881   4.328  13.514 -2.2311 -0.1179 -1.4824
16634TIP3   OH271392   0.636   4.940  13.824 -0.1817  0.1168 -0.3710
16634TIP3    H171393   0.693   5.009  13.858  0.7246 -0.7243 -0.1144
16634TIP3    H271394   0.566   4.932  13.889  0.5361 -0.2171  0.3815
16635TIP3   OH271395   0.648   5.435   5.217 -0.2347  0.1128  0.5431
16635TIP3    H171396   0.640   5.522   5.178 -1.0485 -0.0159  0.4106
16635TIP3    H271397   0.558   5.405   5.227  0.0537 -1.5273 -1.2307
16636TIP3   OH271398   1.502   0.911   5.396 -0.1666  0.0434 -0.1944
16636TIP3    H171399   1.503   0.958   5.480  0.4865  0.3479 -0.3675
16636TIP3    H271400   1.522   0.978   5.331  0.7515 -0.4600 -0.4482
16637TIP3   OH271401   6.233   2.478   2.098  0.2666 -0.0302 -0.2261
16637TIP3    H171402   6.239   2.388   2.130  1.2199 -0.7174 -2.1802
16637TIP3    H271403   6.176   2.473   2.021 -1.8476  1.5364  1.1172
16638TIP3   OH271404   1.584   5.848   6.731 -0.1375  0.5527 -0.2617
16638TIP3    H171405   1.563   5.845   6.638  0.8620 -1.0525 -0.4697
16638TIP3    H271406   1.628   5.933   6.742 -0.8063  1.0344 -1.0996
16639TIP3   OH271407   6.227   6.171   1.538 -0.1627  0.3519 -0.5851
16639TIP3    H171408   6.250   6.230   1.610 -0.3961  1.3221 -1.2775
16639TIP3    H271409   6.181   6.098   1.580 -0.2828  0.8941  0.2492
16640TIP3   OH271410   4.997   6.811   4.361  0.1034  0.2352  0.2300
16640TIP3    H171411   4.996   6.716   4.347  3.6538  0.0474  0.2439
16640TIP3    H271412   4.971   6.821   4.452 -2.1677 -0.4743 -0.2698
16641TIP3   OH271413   0.110   6.252   3.830  0.3540 -0.5603 -0.5333
16641TIP3    H171414   0.132   6.263   3.922  1.2594  2.8410 -1.0429
16641TIP3    H271415   0.054   6.326   3.809 -2.4682 -2.9006 -2.0867
16642TIP3   OH271416   2.157   3.948   0.837  0.2353 -0.1471  0.5029
16642TIP3    H171417   2.238   3.915   0.798 -0.3124 -0.2334 -0.6128
16642TIP3    H271418   2.185   4.015   0.899  1.1735 -0.4187  0.3821
16643TIP3   OH271419   5.843   1.399  15.412 -0.1284  0.7475 -0.3666
16643TIP3    H171420   5.817   1.311  15.386  0.3069  0.7311 -0.7853
16643TIP3    H271421   5.762   1.443  15.437 -0.1070 -0.4643  2.0713
16644TIP3   OH271422   5.584   4.613   3.357  0.1284 -0.5325 -0.1435
16644TIP3    H171423   5.602   4.593   3.448  2.3444 -0.0829 -0.4234
16644TIP3    H271424   5.558   4.705   3.357  0.0055 -0.5666  0.0340
16645TIP3   OH271425   3.467   3.406  10.793 -0.1037 -0.1209  0.3243
16645TIP3    H171426   3.400   3.347  10.758 -0.7094  1.0741 -0.6031
16645TIP3    H271427   3.511   3.441  10.715  0.5781  0.2851  0.8803
16646TIP3   OH271428   3.754   4.868  11.990  0.3229  0.0289  0.3161
16646TIP3    H171429   3.806   4.834  12.063  2.2189  1.2194 -0.4109
16646TIP3    H271430   3.777   4.961  11.985 -0.9850  0.3277 -0.8126
16647TIP3   OH271431   2.881   4.140  15.921 -0.0082  0.9197 -0.5418
16647TIP3    H171432   2.894   4.058  15.873  0.1904  1.1115 -0.8150
16647TIP3    H271433   2.817   4.117  15.989 -1.5053  1.0259 -1.8537
16648TIP3   OH271434   3.271   4.718  14.022  0.2745  0.1413  0.1843
16648TIP3    H171435   3.188   4.724  13.973  1.8025 -0.1988 -2.6920
16648TIP3    H271436   3.281   4.804  14.063 -0.5640  0.8941 -1.1079
16649TIP3   OH271437   0.101   6.148  15.228  0.1249  0.0868 -1.3245
16649TIP3    H171438   0.082   6.070  15.176  0.0609 -2.0499  1.6647
16649TIP3    H271439   0.196   6.150  15.234  0.0948 -0.2786 -0.6912
16650TIP3   OH271440   5.664   3.057  16.403 -0.2045  0.0342 -0.1863
16650TIP3    H171441   5.620   3.142  16.400 -0.6934 -0.2299 -0.5542
16650TIP3    H271442   5.742   3.068  16.348 -0.8111 -0.0634 -1.0676
16651TIP3   OH271443   2.809   4.815   2.653 -0.2923 -0.0650 -0.2784
16651TIP3    H171444   2.854   4.740   2.616  0.0954  0.5904 -1.1622
16651TIP3    H271445   2.874   4.857   2.709 -1.2389 -1.7572  2.2523
16652TIP3   OH271446   0.324   2.545   4.107 -0.3797  0.3163  0.2229
16652TIP3    H171447   0.297   2.461   4.068 -0.7467  0.1786  0.7694
16652TIP3    H271448   0.242   2.589   4.129 -0.1768  0.4125  0.8007
16653TIP3   OH271449   3.710   2.056   1.874  0.2555 -0.4017  0.0891
16653TIP3    H171450   3.778   1.992   1.852 -0.1864 -0.5323 -0.9549
16653TIP3    H271451   3.693   2.042   1.967  0.1420 -1.8362 -0.1247
16654TIP3   OH271452   6.201   2.225  13.263 -0.6896  0.0740  0.2693
16654TIP3    H171453   6.222   2.307  13.308  1.5041 -0.2727  0.0093
16654TIP3    H271454   6.139   2.250  13.195  0.7434  1.7526 -0.5030
16655TIP3   OH271455   6.830   2.379  15.895  0.0004 -0.0023  0.2280
16655TIP3    H171456   6.815   2.450  15.833 -1.4527 -0.1800  0.3389
16655TIP3    H271457   6.874   2.420  15.969 -1.8540  1.0510  0.7914
16656TIP3   OH271458   1.709   6.016  15.884 -0.2115 -0.1568 -0.0916
16656TIP3    H171459   1.748   5.929  15.898 -2.7936 -1.2591  0.9543
16656TIP3    H271460   1.712   6.058  15.970  0.6515  0.6614 -0.5062
16657TIP3   OH271461   5.508   0.240  11.541  0.7027 -0.2336 -0.5518
16657TIP3    H171462   5.583   0.182  11.541  0.5127 -0.5063 -1.7116
16657TIP3    H271463   5.434   0.184  11.565  0.8138 -0.0256  0.3104
16658TIP3   OH271464   2.299   2.340  11.126 -0.2345 -0.1988 -0.6843
16658TIP3    H171465   2.231   2.373  11.066 -1.5122 -0.9227  0.3190
16658TIP3    H271466   2.250   2.302  11.199  1.2783  1.1383  1.1161
16659TIP3   OH271467   0.482   1.886  15.143 -0.7797 -0.4637  0.2884
16659TIP3    H171468   0.567   1.928  15.162 -0.2657 -0.0235 -2.4347
16659TIP3    H271469   0.419   1.958  15.145 -0.9043 -0.5975  1.2540
16660TIP3   OH271470   1.650   5.087  14.209  0.2614 -0.2250 -1.0642
16660TIP3    H171471   1.680   5.015  14.153  1.4136  0.4260 -1.3207
16660TIP3    H271472   1.729   5.113  14.257 -0.5994 -0.4798  0.5595
16661TIP3   OH271473   2.622   0.385   4.382 -0.5418  0.4804 -0.8225
16661TIP3    H171474   2.663   0.309   4.422  0.2149  1.6148  0.6718
16661TIP3    H271475   2.534   0.388   4.419  0.0513  1.3467  0.6231
16662TIP3   OH271476   6.238   5.150  16.420 -0.5590 -0.0669 -0.2501
16662TIP3    H171477   6.194   5.232  16.445 -1.2163 -0.9712  1.7190
16662TIP3    H271478   6.228   5.146  16.325 -1.1614  1.7724 -0.3077
16663TIP3   OH271479   4.861   3.222   1.009  0.3160  0.0903 -0.2517
16663TIP3    H171480   4.811   3.189   0.934  2.7217 -0.3723 -1.7635
16663TIP3    H271481   4.951   3.228   0.977  1.1313  1.6912  2.0650
16664TIP3   OH271482   4.796   4.837  12.702 -0.2333  0.4646 -0.6079
16664TIP3    H171483   4.719   4.853  12.646  0.2923  1.8490 -0.9830
16664TIP3    H271484   4.843   4.920  12.701  0.9866 -0.2001  0.0726
16665TIP3   OH271485   3.312   0.888   1.334  0.5300  0.1642  0.4321
16665TIP3    H171486   3.284   0.831   1.406 -0.6247 -0.7916 -0.7243
16665TIP3    H271487   3.233   0.937   1.312  1.0041  0.7913  0.1248
16666TIP3   OH271488   0.836   1.784  15.692  0.4222  0.3874 -0.1490
16666TIP3    H171489   0.780   1.827  15.757 -0.4233  0.9975 -1.2341
16666TIP3    H271490   0.922   1.779  15.733 -0.6019 -1.5387  2.0197
16667TIP3   OH271491   4.676   5.725   3.339 -0.7014  1.3622  0.1133
16667TIP3    H171492   4.609   5.696   3.401 -1.1032 -0.4002 -1.0848
16667TIP3    H271493   4.632   5.723   3.254  1.1038 -0.9242 -0.8775
16668TIP3   OH271494   4.788   0.996  11.740 -0.4683 -0.4959 -0.2747
16668TIP3    H171495   4.761   1.017  11.830 -1.7286 -1.3985 -0.4225
16668TIP3    H271496   4.776   1.078  11.692  1.1284  0.2797  0.5367
16669TIP3   OH271497   3.817   5.717  16.651  0.1506 -0.1712 -0.3158
16669TIP3    H171498   3.884   5.650  16.639  2.0456  1.5660 -0.1496
16669TIP3    H271499   3.850   5.792  16.601 -2.2415  0.4407 -1.1070
16670TIP3   OH271500   3.500   4.970   6.145  0.1278 -0.1439 -0.9161
16670TIP3    H171501   3.443   4.892   6.151 -0.1052 -0.0261 -1.5149
16670TIP3    H271502   3.586   4.935   6.122  0.4582 -0.3789  0.6105
16671TIP3   OH271503   0.414   3.929   3.280 -0.2777  0.1014  0.7682
16671TIP3    H171504   0.474   4.004   3.276 -0.5216  0.2977 -2.5488
16671TIP3    H271505   0.453   3.865   3.220 -0.5404 -2.1307  2.8365
16672TIP3   OH271506   1.312   5.604   1.634  0.3928 -0.1579 -0.3916
16672TIP3    H171507   1.348   5.522   1.666  1.3098  0.7590  1.0430
16672TIP3    H271508   1.291   5.587   1.542  0.1223 -2.1095 -0.0134
16673TIP3   OH271509   4.579   3.318  11.970 -0.3079 -0.2422 -0.0134
16673TIP3    H171510   4.609   3.402  11.935 -0.2373 -0.3552 -0.2232
16673TIP3    H271511   4.648   3.256  11.949  0.7162  0.0836  2.1504
16674TIP3   OH271512   1.029   1.397  11.418 -0.0768 -0.7752  0.1624
16674TIP3    H171513   1.115   1.435  11.398 -0.0060 -1.2983 -0.5695
16674TIP3    H271514   0.967   1.455  11.376 -0.0417 -0.7683  0.1196
16675TIP3   OH271515   2.611   5.563   3.275  0.3840 -0.3196 -0.0708
16675TIP3    H171516   2.689   5.590   3.324  0.6286 -1.4627  0.1956
16675TIP3    H271517   2.543   5.623   3.305  1.1951  0.8785 -0.5054
16676TIP3   OH271518   0.217   2.905   1.132 -0.0043 -0.0163  0.4730
16676TIP3    H171519   0.128   2.900   1.166  0.0912  2.2368  1.1747
16676TIP3    H271520   0.230   2.821   1.087 -1.8338 -1.1267  1.8605
16677TIP3   OH271521   4.537   6.740  15.496 -0.3527 -0.3352  0.3147
16677TIP3    H171522   4.491   6.820  15.472 -0.8107 -1.2583 -2.1810
16677TIP3    H271523   4.469   6.683  15.532 -0.5481 -0.5423 -0.3744
16678TIP3   OH271524   4.783   5.019   5.757  0.3302  0.1596 -0.3904
16678TIP3    H171525   4.867   4.975   5.773  0.4030  0.2820 -0.4311
16678TIP3    H271526   4.788   5.099   5.810  1.1620  1.2872 -2.1044
16679TIP3   OH271527   1.295   0.776  14.303  0.3779 -0.4460  0.8705
16679TIP3    H171528   1.368   0.803  14.248  1.4228  0.4018  2.5955
16679TIP3    H271529   1.218   0.790  14.249  1.0141  3.7981  0.7337
16680TIP3   OH271530   6.418   2.274   4.558 -0.5201  0.6478 -0.3915
16680TIP3    H171531   6.506   2.237   4.546 -0.2917  1.0158  0.1210
16680TIP3    H271532   6.371   2.249   4.479 -0.6998 -1.6798  0.3863
16681TIP3   OH271533   0.036   2.020   3.301 -0.4300  0.1915 -0.3311
16681TIP3    H171534   0.094   2.072   3.356 -0.2497 -0.1523 -0.2008
16681TIP3    H271535  -0.020   2.085   3.258 -2.0370  0.3892  1.8821
16682TIP3   OH271536   4.752   5.342   6.173 -0.2203  0.4481  0.1103
16682TIP3    H171537   4.671   5.343   6.224  0.6045 -0.5953  1.5331
16682TIP3    H271538   4.820   5.326   6.238  0.9233 -0.6000 -1.2846
16683TIP3   OH271539   2.413   4.947   3.852  0.0066  1.0727  0.9567
16683TIP3    H171540   2.328   4.977   3.821  0.0961  1.4902  1.1117
16683TIP3    H271541   2.470   5.024   3.847  0.2596  0.9126  1.2818
16684TIP3   OH271542   1.643   1.738  11.496  0.1705 -0.1872  0.0817
16684TIP3    H171543   1.642   1.744  11.401 -0.7479  0.8731  0.1429
16684TIP3    H271544   1.720   1.684  11.516  1.0840  0.6064 -1.1856
16685TIP3   OH271545   4.165   6.076   5.145 -0.2977 -0.1330 -0.0504
16685TIP3    H171546   4.101   6.040   5.207 -0.5658 -1.3940 -1.0120
16685TIP3    H271547   4.120   6.074   5.061  0.3003  0.9163 -0.4153
16686TIP3   OH271548   6.153   1.843  15.698 -0.1881  0.2441 -0.1248
16686TIP3    H171549   6.143   1.855  15.603 -0.4368 -0.1408 -0.1492
16686TIP3    H271550   6.174   1.930  15.731  2.0966  0.0226 -0.8104
16687TIP3   OH271551   3.874   3.139   4.708 -0.4057  0.1665  0.5267
16687TIP3    H171552   3.871   3.124   4.803 -0.6239 -1.4339  0.2834
16687TIP3    H271553   3.791   3.105   4.676 -0.8080  1.6800 -0.1407
16688TIP3   OH271554   1.566   0.660  11.079 -0.1183  0.3394  0.5338
16688TIP3    H171555   1.526   0.668  10.992  0.0490  0.4807  0.4701
16688TIP3    H271556   1.616   0.579  11.075  0.1927  0.5389  0.3773
16689TIP3   OH271557   3.262   4.635   0.585  0.0779 -0.2343  0.0697
16689TIP3    H171558   3.191   4.638   0.521 -1.4767  0.7690  1.7581
16689TIP3    H271559   3.333   4.685   0.545 -0.7312  0.1025 -0.9767
16690TIP3   OH271560   2.333   5.169   6.328  0.0358 -0.3038 -0.2297
16690TIP3    H171561   2.423   5.187   6.302 -0.0645 -1.3781 -1.4370
16690TIP3    H271562   2.325   5.073   6.322 -0.5301 -0.4728  2.1224
16691TIP3   OH271563   4.791   0.342   2.211  0.3583 -1.0426  0.4079
16691TIP3    H171564   4.756   0.297   2.288  0.2497 -1.7064 -0.0167
16691TIP3    H271565   4.810   0.431   2.242 -0.3210 -1.0957  1.0171
16692TIP3   OH271566   1.259   1.259   5.619 -0.0087 -0.2038  0.3708
16692TIP3    H171567   1.219   1.244   5.704 -0.7247 -0.3390  0.0207
16692TIP3    H271568   1.228   1.345   5.592  0.8074  0.1575  0.5679
16693TIP3   OH271569   4.590   6.331   1.888  0.0723  0.5020 -0.1067
16693TIP3    H171570   4.623   6.241   1.894  2.3834  1.1411 -1.8748
16693TIP3    H271571   4.572   6.345   1.795 -0.7560  1.7134  0.2046
16694TIP3   OH271572   0.511   6.642  10.942 -0.4159 -0.1476  0.1740
16694TIP3    H171573   0.518   6.682  11.028  2.7058  0.3207 -0.1912
16694TIP3    H271574   0.477   6.711  10.885 -1.5582 -0.1688  0.8141
16695TIP3   OH271575   3.858   1.349   5.196 -0.5723  0.2319  0.2854
16695TIP3    H171576   3.906   1.272   5.225  0.4792  1.0933  0.8974
16695TIP3    H271577   3.782   1.354   5.253 -0.4832 -0.1832  0.4367
16696TIP3   OH271578   3.182   1.816   2.528  0.7857 -0.1516  0.6856
16696TIP3    H171579   3.201   1.728   2.496  1.4811  0.0757  0.4608
16696TIP3    H271580   3.165   1.867   2.449  0.5537 -0.0434  0.8046
16697TIP3   OH271581   5.055   3.865  12.744  0.1259 -0.0105 -0.2827
16697TIP3    H171582   5.065   3.770  12.742 -2.1700 -0.3240 -0.1995
16697TIP3    H271583   5.010   3.887  12.663 -0.5588  0.8057  0.2894
16698TIP3   OH271584   0.133   2.451  12.864  0.6969  0.3473 -0.2002
16698TIP3    H171585   0.228   2.456  12.875  0.4943  0.9850  1.6951
16698TIP3    H271586   0.101   2.534  12.900 -0.5736  0.2806 -1.1215
16699TIP3   OH271587   6.439   1.491  10.423  0.0499  0.2552 -0.0228
16699TIP3    H171588   6.446   1.432  10.498 -2.6219 -0.2997 -0.1144
16699TIP3    H271589   6.521   1.540  10.423  0.8430 -0.9483  2.2043
16700TIP3   OH271590   1.110   6.233   4.497 -0.0153 -0.2781 -0.0008
16700TIP3    H171591   1.060   6.173   4.442 -0.0947 -1.4263  1.2542
16700TIP3    H271592   1.088   6.206   4.587  0.4571  1.2209  0.6003
16701TIP3   OH271593   3.634   1.111  11.031  0.2495  0.1833 -0.3880
16701TIP3    H171594   3.597   1.181  10.977 -0.6113 -0.7598 -1.0628
16701TIP3    H271595   3.709   1.080  10.981 -0.4725 -0.6052 -1.0021
16702TIP3   OH271596   4.396   3.916   2.503  0.4193  1.6116 -0.3928
16702TIP3    H171597   4.360   3.978   2.566  1.3038  1.9169 -0.1761
16702TIP3    H271598   4.377   3.830   2.542 -2.2636  1.6311 -1.4810
16703TIP3   OH271599   4.945   2.345   4.211 -0.2444 -0.0889 -0.6606
16703TIP3    H171600   4.886   2.399   4.157 -1.6446  0.4980  1.3500
16703TIP3    H271601   5.009   2.408   4.246 -0.4283 -0.1482 -0.2173
16704TIP3   OH271602   6.376   5.991   3.030  0.5973  0.1564  0.2776
16704TIP3    H171603   6.343   5.933   3.098  0.8951 -3.1863 -2.1817
16704TIP3    H271604   6.471   5.981   3.034  0.5919 -0.6531 -1.0070
16705TIP3   OH271605   4.067   5.314  16.058 -0.4163  0.2737  0.4953
16705TIP3    H171606   4.158   5.287  16.069 -0.5802 -1.3434 -1.4705
16705TIP3    H271607   4.070   5.383  15.992 -0.5412  1.0245  1.2566
16706TIP3   OH271608   4.006   2.761   1.628  0.0171 -0.2775 -0.1312
16706TIP3    H171609   4.045   2.682   1.590 -1.0738 -1.1481  0.4698
16706TIP3    H271610   3.980   2.814   1.553  0.1983 -0.7838 -0.5592
16707TIP3   OH271611   3.152   2.948  16.562  0.7455 -0.0444 -0.0178
16707TIP3    H171612   3.185   2.951  16.652  1.0269 -0.6123 -0.0977
16707TIP3    H271613   3.146   3.040  16.535 -0.1699  0.1687  0.8793
16708TIP3   OH271614   5.004   3.485   3.344  0.0422 -0.0821 -0.6160
16708TIP3    H171615   5.058   3.477   3.423 -0.4097  0.1264 -0.2793
16708TIP3    H271616   4.979   3.395   3.322  0.5791 -0.1867 -0.8163
16709TIP3   OH271617   5.127   4.314  10.671 -0.5293 -0.6934  0.4518
16709TIP3    H171618   5.187   4.278  10.737  0.1341  1.1669  0.9462
16709TIP3    H271619   5.164   4.286  10.587 -0.6309 -1.9947  0.8319
16710TIP3   OH271620   3.997   4.467   1.497 -0.5753  0.0067  0.0569
16710TIP3    H171621   4.071   4.445   1.440 -0.6760  1.1790 -0.5646
16710TIP3    H271622   3.920   4.448   1.444 -0.6700  1.1422 -0.2259
16711TIP3   OH271623   0.085   5.493  10.936  0.0948 -0.1230 -0.4138
16711TIP3    H171624   0.074   5.543  10.855 -1.7388 -0.1861 -0.2510
16711TIP3    H271625   0.004   5.442  10.944 -0.3978  0.9046  2.1270
16712TIP3   OH271626   3.410   2.399   4.751  0.3061 -0.1468 -0.0015
16712TIP3    H171627   3.341   2.332   4.751 -1.1791  1.3052  0.5128
16712TIP3    H271628   3.492   2.350   4.749 -0.6649 -2.0326  2.4786
16713TIP3   OH271629   4.565   2.682  14.092 -0.2204  0.3962 -1.0628
16713TIP3    H171630   4.584   2.737  14.168 -0.7040  0.3166 -0.8788
16713TIP3    H271631   4.641   2.624  14.085 -0.6047 -0.2695 -0.0341
16714TIP3   OH271632   2.948   4.849   1.550  0.1191  0.2773 -0.6424
16714TIP3    H171633   2.969   4.874   1.640  0.8567 -1.2252 -0.3710
16714TIP3    H271634   2.888   4.775   1.558  0.4744 -0.1017 -1.3791
16715TIP3   OH271635   4.893   4.747   0.331  0.0216 -0.2708 -0.7261
16715TIP3    H171636   4.943   4.667   0.345 -1.0174 -0.4820  2.7527
16715TIP3    H271637   4.954   4.818   0.350  0.1132 -0.3584 -0.6959
16716TIP3   OH271638   2.837   4.406  14.343 -0.2327 -0.0100 -0.1573
16716TIP3    H171639   2.931   4.393  14.357 -0.0393  2.7069  1.9419
16716TIP3    H271640   2.798   4.391  14.429 -1.2738  1.8695 -0.2550
16717TIP3   OH271641   1.807   0.603   3.264 -0.4950  0.6779  0.5953
16717TIP3    H171642   1.845   0.525   3.305 -1.6053  0.4463  1.2431
16717TIP3    H271643   1.882   0.655   3.236  0.2781 -0.9332 -0.4645
16718TIP3   OH271644   3.236   6.098  13.935 -1.0157  0.0620 -0.2107
16718TIP3    H171645   3.282   6.148  13.868 -0.0826  0.2785  0.5670
16718TIP3    H271646   3.182   6.036  13.886  0.8779 -0.9092 -1.1904
16719TIP3   OH271647   5.341   1.810   3.542 -1.0613 -0.1490  0.4028
16719TIP3    H171648   5.422   1.862   3.541 -0.2372 -1.3161  1.6334
16719TIP3    H271649   5.305   1.826   3.629 -2.4007  0.6665 -0.2755
16720TIP3   OH271650   4.625   2.891  15.188 -0.0154 -0.0082  0.4004
16720TIP3    H171651   4.586   2.975  15.215 -2.1552 -0.8841  0.2056
16720TIP3    H271652   4.590   2.828  15.251 -0.6812 -1.1867 -1.1029
16721TIP3   OH271653   0.951   2.216  13.937  0.1211 -0.3638 -0.6997
16721TIP3    H171654   0.920   2.131  13.907 -0.5425 -0.5665  0.4916
16721TIP3    H271655   0.940   2.274  13.861 -3.3466 -0.3806 -0.3782
16722TIP3   OH271656   3.638   1.986  13.782  0.6797 -0.5788  0.0079
16722TIP3    H171657   3.707   2.018  13.839 -0.7183  3.0272 -0.0532
16722TIP3    H271658   3.642   2.044  13.705 -1.2732 -1.3841 -0.7640
16723TIP3   OH271659   4.229   4.755   5.767  0.1271 -0.3917  0.1232
16723TIP3    H171660   4.259   4.709   5.845 -0.7605 -0.1011  0.6411
16723TIP3    H271661   4.266   4.844   5.775  0.7136 -0.5961 -0.2074
16724TIP3   OH271662   1.234   5.406   2.906 -0.0071 -0.3217 -0.2906
16724TIP3    H171663   1.177   5.483   2.904  0.9540  0.3833 -0.7710
16724TIP3    H271664   1.251   5.391   2.999  0.1325  0.2976 -0.2151
16725TIP3   OH271665   0.003   4.384  12.956 -0.1354  0.4993 -0.1639
16725TIP3    H171666  -0.058   4.311  12.956 -0.3083  0.6296  0.9723
16725TIP3    H271667  -0.024   4.439  13.030 -0.1365  1.8250 -1.1077
16726TIP3   OH271668   3.845   4.872  11.095 -0.3759 -0.2370  0.0834
16726TIP3    H171669   3.860   4.788  11.051  1.5260  0.0457  0.0957
16726TIP3    H271670   3.866   4.855  11.187 -0.4715  0.1174  0.1731
16727TIP3   OH271671   2.572   4.895  13.616 -0.3064 -0.5226  0.0867
16727TIP3    H171672   2.645   4.956  13.611 -0.9686  0.3248  0.4555
16727TIP3    H271673   2.526   4.920  13.696 -2.3347  0.5128 -1.3222
16728TIP3   OH271674   6.414   4.566   0.552  0.2746 -0.7247 -0.1846
16728TIP3    H171675   6.499   4.538   0.585 -0.0660 -1.0144  0.4519
16728TIP3    H271676   6.383   4.630   0.616 -0.5365 -1.5323  0.2589
16729TIP3   OH271677   5.832   4.733   3.637 -0.5372  0.0251  0.5051
16729TIP3    H171678   5.807   4.643   3.657 -1.4936 -0.1115 -1.1737
16729TIP3    H271679   5.869   4.766   3.719  0.3469 -2.0559  1.0051
16730TIP3   OH271680   4.292   1.773  15.519 -0.8852  0.0191  0.2289
16730TIP3    H171681   4.355   1.836  15.553 -0.4190 -1.3109  1.9425
16730TIP3    H271682   4.265   1.722  15.595 -0.8916 -2.1662 -1.1531
16731TIP3   OH271683   1.484   0.569   0.512  0.4493 -0.6033  0.3161
16731TIP3    H171684   1.501   0.646   0.566  0.9110 -0.0232 -0.6394
16731TIP3    H271685   1.571   0.532   0.496  0.4076 -0.2562 -0.7681
16732TIP3   OH271686   0.672   2.898  16.075 -0.1262  0.1404  0.2206
16732TIP3    H171687   0.736   2.911  16.146  1.8150  2.4304 -1.7618
16732TIP3    H271688   0.604   2.963  16.092  0.1149  0.3997  0.1892
16733TIP3   OH271689   2.004   4.445  10.525 -0.5182  0.1747  0.1911
16733TIP3    H171690   2.052   4.418  10.447  0.1326 -0.8613  0.9154
16733TIP3    H271691   1.992   4.539  10.515  1.7461  0.4936  0.0035
16734TIP3   OH271692   1.475   0.058   5.059  0.2826  0.4555 -0.6923
16734TIP3    H171693   1.433  -0.005   5.001  1.2021 -0.6290 -0.2213
16734TIP3    H271694   1.404   0.117   5.086 -0.5592 -0.2535 -1.3015
16735TIP3   OH271695   0.540   4.757   5.441  0.2604 -0.0183 -0.1403
16735TIP3    H171696   0.585   4.805   5.372 -0.3633  0.0803 -0.4868
16735TIP3    H271697   0.563   4.665   5.426 -2.0812 -0.3668 -2.2304
16736TIP3   OH271698   5.501   4.879   3.291  0.5391 -0.0791 -0.0747
16736TIP3    H171699   5.459   4.899   3.375 -2.2414  0.3500 -1.4595
16736TIP3    H271700   5.587   4.921   3.296 -1.0308  3.3365  1.1162
16737TIP3   OH271701   5.261   0.423   5.120 -0.1523 -0.4967  0.2426
16737TIP3    H171702   5.193   0.448   5.058  1.3307  0.6942 -0.9639
16737TIP3    H271703   5.271   0.328   5.109 -0.9973 -0.5393 -0.1813
16738TIP3   OH271704   5.545   0.827  12.989 -0.3043  0.1444  0.2391
16738TIP3    H171705   5.640   0.818  12.977 -0.1445  1.7115  0.0950
16738TIP3    H271706   5.534   0.836  13.084 -0.0847  1.7841  0.1418
16739TIP3   OH271707   3.525   4.804   1.481  0.2389 -0.4348  0.0593
16739TIP3    H171708   3.523   4.790   1.387 -1.0621  2.5904 -0.4873
16739TIP3    H271709   3.615   4.829   1.500 -0.1121  1.8521 -0.9840
16740TIP3   OH271710   4.122   6.337  14.461 -0.3660 -0.5376  0.0531
16740TIP3    H171711   4.091   6.427  14.458 -1.1486 -0.7649  0.9140
16740TIP3    H271712   4.162   6.328  14.547 -1.3491 -1.3301  0.4471
16741TIP3   OH271713   2.254   5.148  13.148  0.8177 -0.2777 -0.5079
16741TIP3    H171714   2.202   5.212  13.197  4.1458  2.4185 -0.1179
16741TIP3    H271715   2.221   5.156  13.058  0.5746  1.4448 -0.3188
16742TIP3   OH271716   4.862   6.143   0.149 -0.5326  0.0410  0.3414
16742TIP3    H171717   4.934   6.083   0.169 -1.7649 -1.0145  1.8524
16742TIP3    H271718   4.903   6.230   0.148  0.6400 -0.4473  1.9172
16743TIP3   OH271719   4.476   4.666  12.756  0.5616  0.8377 -0.4347
16743TIP3    H171720   4.488   4.753  12.795  1.0365  1.2650 -1.4943
16743TIP3    H271721   4.381   4.657  12.747  0.5241  1.3994 -0.6339
16744TIP3   OH271722   5.227   6.708  16.085  0.0728 -0.3373 -0.2564
16744TIP3    H171723   5.162   6.740  16.022  1.5131  0.2170 -1.5518
16744TIP3    H271724   5.298   6.771  16.080  0.8035 -1.0162  0.9735
16745TIP3   OH271725   3.291   2.177  13.023 -0.3942  0.0101  0.7201
16745TIP3    H171726   3.201   2.145  13.026  0.1646 -1.6349  1.0939
16745TIP3    H271727   3.300   2.215  12.936 -1.0608 -1.0892  0.1442
16746TIP3   OH271728   6.151   1.188  16.677 -0.1220 -0.1239  0.3884
16746TIP3    H171729   6.089   1.209  16.747 -0.6872 -0.4262 -0.0198
16746TIP3    H271730   6.182   1.273  16.646  0.2168  0.0132  1.0689
16747TIP3   OH271731   1.888   0.872  13.938 -0.3779 -0.4220 -0.4210
16747TIP3    H171732   1.916   0.914  14.019 -0.8973 -2.3848  0.8760
16747TIP3    H271733   1.960   0.814  13.914 -0.5958 -0.5231 -0.8571
16748TIP3   OH271734   0.563   4.020   2.472 -0.3394 -0.0351  0.4188
16748TIP3    H171735   0.578   4.042   2.380 -2.1782 -1.6026 -0.3161
16748TIP3    H271736   0.472   3.991   2.475  0.5901 -3.2237  2.0663
16749TIP3   OH271737   5.458   0.467  13.561  0.0674  0.6489 -0.3931
16749TIP3    H171738   5.470   0.454  13.655 -4.3707 -0.7129  0.2075
16749TIP3    H271739   5.401   0.543  13.554 -2.8243 -1.4353 -1.5679
16750TIP3   OH271740   0.948   2.133   3.516 -0.2470 -0.0645 -0.6562
16750TIP3    H171741   0.872   2.174   3.475 -1.5466  0.4112  2.0329
16750TIP3    H271742   1.007   2.206   3.536 -0.1065 -0.1641 -0.7043
16751TIP3   OH271743   1.094   3.111  10.788  0.2455 -0.2947  0.2644
16751TIP3    H171744   1.074   3.070  10.703 -1.8044  0.7949  0.1420
16751TIP3    H271745   1.117   3.201  10.766  0.7101 -0.2808  0.8050
16752TIP3   OH271746   5.789   3.932  10.932 -0.5319 -0.1384  0.3705
16752TIP3    H171747   5.765   4.025  10.939 -1.2766 -0.3327  0.4814
16752TIP3    H271748   5.751   3.892  11.010 -0.4916 -0.5941  0.1592
16753TIP3   OH271749   0.923   6.833   4.535 -0.3616 -0.0319 -0.5297
16753TIP3    H171750   0.879   6.857   4.453 -2.1489  0.4107  0.5147
16753TIP3    H271751   0.853   6.821   4.598  0.8375 -2.2809  0.5188
16754TIP3   OH271752   5.072   1.215   2.829  0.3319 -0.0130 -0.0970
16754TIP3    H171753   5.125   1.208   2.908  0.7587 -1.6987 -0.4731
16754TIP3    H271754   5.113   1.284   2.777  1.6824 -0.7200 -0.0088
16755TIP3   OH271755   4.937   3.018  12.515  0.3015  0.0763 -0.6714
16755TIP3    H171756   4.938   2.930  12.554 -0.0002 -0.0146 -0.8577
16755TIP3    H271757   4.971   3.005  12.427  0.1914  0.1331 -0.7224
16756TIP3   OH271758   4.494   4.153  11.971  0.1010  0.4493  0.5576
16756TIP3    H171759   4.436   4.210  11.921 -0.5216 -0.5410  0.1179
16756TIP3    H271760   4.580   4.163  11.930 -0.1537  0.5509  0.0504
16757TIP3   OH271761   4.589   4.911  16.135 -0.4369  0.7110  0.3131
16757TIP3    H171762   4.600   4.827  16.091  0.4942 -0.0562  1.9038
16757TIP3    H271763   4.512   4.950  16.094  0.1100 -0.1279 -1.6405
16758TIP3   OH271764   2.581   4.975   6.293 -0.2623 -0.6470  0.2374
16758TIP3    H171765   2.595   5.068   6.273 -1.6008 -0.4361  0.2026
16758TIP3    H271766   2.595   4.968   6.387  1.1916 -0.6884  0.0363
16759TIP3   OH271767   2.168   3.536   2.722 -0.4582 -0.0492  0.8313
16759TIP3    H171768   2.199   3.592   2.793 -1.9576 -0.2441  1.6682
16759TIP3    H271769   2.243   3.529   2.663  1.0241 -0.3270  2.6573
16760TIP3   OH271770   3.917   0.676   6.036  0.6583 -0.5172 -0.2436
16760TIP3    H171771   3.894   0.732   6.111 -0.3841 -0.9625 -0.2115
16760TIP3    H271772   3.882   0.590   6.060  0.3227 -0.6650 -1.2355
16761TIP3   OH271773   2.834   0.333  14.053  0.4238  0.7070  0.3894
16761TIP3    H171774   2.900   0.317  13.985  0.3359 -2.2252  0.8918
16761TIP3    H271775   2.862   0.281  14.128 -2.0290 -0.0614  0.8815
16762TIP3   OH271776   5.621   3.127  12.418  0.2369 -0.1181  0.6164
16762TIP3    H171777   5.680   3.094  12.485  1.0073  2.2727  1.2360
16762TIP3    H271778   5.677   3.143  12.342  0.0766  0.5153  0.6226
16763TIP3   OH271779   5.579   1.609   4.216 -0.2227  0.1439 -0.1395
16763TIP3    H171780   5.565   1.515   4.227  0.7608  0.0825  0.6961
16763TIP3    H271781   5.635   1.616   4.138  1.1332 -0.1061  0.7700
16764TIP3   OH271782   5.673   3.863  15.279 -0.2632  0.0375  0.2705
16764TIP3    H171783   5.639   3.935  15.332  0.6450 -0.4894  1.6031
16764TIP3    H271784   5.768   3.865  15.294  0.2388  0.7531 -2.4470
16765TIP3   OH271785   2.925   1.115   0.780 -0.2162  0.1449 -0.3047
16765TIP3    H171786   2.944   1.084   0.869  1.4660 -1.0651 -1.0228
16765TIP3    H271787   2.876   1.043   0.741 -0.6736  0.5418 -0.4613
16766TIP3   OH271788   2.334   2.510  11.465 -0.9686 -0.2553 -0.0913
16766TIP3    H171789   2.276   2.499  11.541  0.1252 -1.4470  0.6254
16766TIP3    H271790   2.403   2.445  11.479 -0.2707  0.1087 -1.6810
16767TIP3   OH271791   1.796   2.882  14.151 -0.2426  0.5375 -0.0171
16767TIP3    H171792   1.859   2.944  14.114 -0.4725  0.9006  0.1881
16767TIP3    H271793   1.838   2.797  14.141 -0.7385  0.4827 -2.0741
16768TIP3   OH271794   2.189   3.164  11.329 -0.1807  0.3066  0.3633
16768TIP3    H171795   2.193   3.124  11.242 -1.7073 -0.2582  0.5357
16768TIP3    H271796   2.215   3.255  11.314 -2.3384  0.7581 -1.0652
16769TIP3   OH271797   6.748   6.538  15.638 -0.4226  0.1978 -0.1651
16769TIP3    H171798   6.691   6.535  15.561  0.4824  1.4067 -0.9191
16769TIP3    H271799   6.819   6.477  15.619 -1.9051 -2.1182  1.2229
16770TIP3   OH271800   0.527   0.608   5.532 -0.4523  0.5005 -0.6352
16770TIP3    H171801   0.567   0.658   5.602 -0.7508 -0.1564  0.0213
16770TIP3    H271802   0.477   0.672   5.481 -0.5129  0.9184 -0.0498
16771TIP3   OH271803   0.020   2.056   4.726 -0.3342  0.5206  0.1652
16771TIP3    H171804   0.035   2.117   4.798  1.0778  2.0463 -1.3187
16771TIP3    H271805   0.017   1.970   4.768  0.7021  1.3201  2.0286
16772TIP3   OH271806   0.559   5.801  17.120  0.1128  0.1122  0.3111
16772TIP3    H171807   0.569   5.872  17.057 -0.8977 -0.1686 -0.1902
16772TIP3    H271808   0.492   5.833  17.181 -0.4121 -0.4239  0.0280
16773TIP3   OH271809   4.539   3.109   5.680 -0.1793  0.5967  0.0680
16773TIP3    H171810   4.495   3.025   5.665 -0.5856  0.5689  1.2702
16773TIP3    H271811   4.630   3.086   5.698  0.1259  0.5728 -1.4247
16774TIP3   OH271812   2.234   5.383   1.656 -0.2094  0.4287  0.3273
16774TIP3    H171813   2.159   5.355   1.708 -0.4165 -0.3021 -0.3395
16774TIP3    H271814   2.298   5.312   1.665  0.0134  0.5985  0.1174
16775TIP3   OH271815   3.750   6.809   1.231 -0.3674 -0.0015 -0.5953
16775TIP3    H171816   3.673   6.854   1.265  1.1714  3.2409 -0.9950
16775TIP3    H271817   3.762   6.846   1.143  2.8800  1.4724  0.3123
16776TIP3   OH271818   0.231   3.618  15.564  0.0343 -0.1027  0.2550
16776TIP3    H171819   0.296   3.564  15.519 -1.6835 -1.6528 -0.4985
16776TIP3    H271820   0.159   3.558  15.583 -1.9850  1.8957 -0.6215
16777TIP3   OH271821   6.652   2.633  14.185  0.5606  0.2179 -0.3651
16777TIP3    H171822   6.708   2.676  14.120 -0.3862  1.0245 -0.6774
16777TIP3    H271823   6.708   2.624  14.262  1.8877 -1.2686 -1.4398
16778TIP3   OH271824   6.086   6.084   1.327  0.1313 -0.3118 -0.0968
16778TIP3    H171825   6.140   6.107   1.402 -2.3628  2.8935  0.9147
16778TIP3    H271826   6.058   5.994   1.344  2.3466 -0.8365  1.0181
16779TIP3   OH271827   0.146   6.316  13.416 -0.0962  0.2816  0.4216
16779TIP3    H171828   0.103   6.363  13.344 -1.2855 -1.4694 -0.0753
16779TIP3    H271829   0.222   6.275  13.376 -0.1940  0.1287  0.3924
16780TIP3   OH271830   2.688   3.742   3.256 -0.0317  0.1314 -0.1325
16780TIP3    H171831   2.719   3.833   3.262  1.9530 -0.4928 -0.1937
16780TIP3    H271832   2.765   3.689   3.277 -1.0152 -1.5586 -0.6061
16781TIP3   OH271833   1.258   4.958  14.797  0.2182  0.0517  0.5191
16781TIP3    H171834   1.168   4.981  14.821 -0.6033 -0.3343 -1.8416
16781TIP3    H271835   1.248   4.890  14.731  2.3212 -0.8953  1.0949
16782TIP3   OH271836   0.199   1.590   4.748  0.0731  0.0491  0.4879
16782TIP3    H171837   0.265   1.523   4.765 -0.3882 -0.2732  1.0788
16782TIP3    H271838   0.216   1.619   4.659  0.4017 -0.7166  0.2907
16783TIP3   OH271839   4.472   3.281  12.684  0.5584 -0.2643  0.2730
16783TIP3    H171840   4.519   3.223  12.624  1.9302  1.6229 -0.5735
16783TIP3    H271841   4.535   3.299  12.754  1.1252  2.1019 -0.7447
16784TIP3   OH271842   4.759   1.873   0.914  0.3429  0.3796  0.5837
16784TIP3    H171843   4.829   1.875   0.980  0.5643 -2.2340  0.5651
16784TIP3    H271844   4.682   1.843   0.963 -0.3005  1.4423  0.2385
16785TIP3   OH271845   4.068   5.501   0.488  0.4135 -0.5784  0.2259
16785TIP3    H171846   4.159   5.522   0.467  0.0759  0.4707 -0.2807
16785TIP3    H271847   4.027   5.483   0.403 -0.4415  1.4893  0.1346
16786TIP3   OH271848   2.511   0.865  10.717  0.0253 -0.3178 -0.4093
16786TIP3    H171849   2.604   0.842  10.718  0.4104  0.8948 -2.4141
16786TIP3    H271850   2.509   0.955  10.683 -1.9894 -1.3402 -3.3976
16787TIP3   OH271851   2.983   6.550   4.381 -0.2469 -0.4248  0.7913
16787TIP3    H171852   2.927   6.479   4.413  0.2223 -0.8333  0.7203
16787TIP3    H271853   3.066   6.507   4.360  0.0531  0.1546  0.7803
16788TIP3   OH271854   4.872   0.520   4.342 -0.2356  0.1170 -0.2450
16788TIP3    H171855   4.951   0.466   4.353 -0.2129  0.0237 -0.8465
16788TIP3    H271856   4.814   0.467   4.287 -1.4423 -0.5538  1.5846
16789TIP3   OH271857   3.664   3.705   4.267 -0.0782  0.2806  0.1491
16789TIP3    H171858   3.664   3.801   4.268  0.0581  0.3394 -1.7027
16789TIP3    H271859   3.572   3.681   4.281 -0.0531  0.6497  1.0231
16790TIP3   OH271860   6.074   0.216   5.697  0.6169 -0.2158  0.0697
16790TIP3    H171861   6.042   0.258   5.617  2.2464 -0.3474 -0.6834
16790TIP3    H271862   5.997   0.171   5.732 -0.7452  1.8601 -0.0568
16791TIP3   OH271863   1.697   4.746  15.471  0.2274  0.3423  0.4700
16791TIP3    H171864   1.612   4.774  15.507 -0.3605 -1.2350  0.3719
16791TIP3    H271865   1.759   4.762  15.542  0.1665  2.8352  0.0840
16792TIP3   OH271866   2.203   4.507   5.452  0.1093 -0.1118  0.2950
16792TIP3    H171867   2.190   4.571   5.382  1.4014 -0.7023 -0.5319
16792TIP3    H271868   2.152   4.540   5.525 -0.9656  0.7363 -0.8053
16793TIP3   OH271869   2.354   0.434   1.488 -0.1497 -0.0930  0.1643
16793TIP3    H171870   2.338   0.393   1.573 -1.0107  0.5381  0.3214
16793TIP3    H271871   2.267   0.454   1.454  0.2226  0.6800 -0.3645
16794TIP3   OH271872   6.201   0.703  10.410  0.3125  0.2633 -0.7426
16794TIP3    H171873   6.207   0.616  10.449 -0.8523  0.0062 -1.0856
16794TIP3    H271874   6.118   0.738  10.442  0.2729  0.8360 -1.4285
16795TIP3   OH271875   3.203   5.044   6.307  0.1371 -0.1928  0.2909
16795TIP3    H171876   3.279   5.101   6.292 -0.8914  0.8692 -1.1224
16795TIP3    H271877   3.233   4.957   6.280  0.5375  0.4190 -1.3645
16796TIP3   OH271878   0.268   4.975   0.684 -0.5982  0.2340  0.6248
16796TIP3    H171879   0.324   4.912   0.730 -0.4104  0.0601  0.1652
16796TIP3    H271880   0.215   4.921   0.626 -1.0856  0.4203  0.8877
16797TIP3   OH271881   3.519   2.205   5.434  0.2395  0.0119  0.1252
16797TIP3    H171882   3.598   2.154   5.418 -0.0200 -0.3567  0.0122
16797TIP3    H271883   3.487   2.176   5.519  1.4508  1.7604  1.2390
16798TIP3   OH271884   6.691   1.871  13.150  0.2788 -0.2904 -0.0747
16798TIP3    H171885   6.709   1.894  13.059  0.9147 -1.0236 -0.1472
16798TIP3    H271886   6.718   1.948  13.200  3.7539 -1.2595 -0.1755
16799TIP3   OH271887   5.668   4.795   5.526 -0.1944 -0.7556  0.2064
16799TIP3    H171888   5.634   4.710   5.554  0.0622 -0.6707  0.7853
16799TIP3    H271889   5.745   4.775   5.474  0.3041 -0.8530  0.9697
16800TIP3   OH271890   5.304   6.302  13.385 -0.4030 -0.2392  0.2718
16800TIP3    H171891   5.350   6.282  13.466  0.5030  1.2550  0.1722
16800TIP3    H271892   5.263   6.387  13.401  0.9294  0.7647 -1.2402
16801TIP3   OH271893   3.280   3.220  16.106  0.2106  0.4746 -0.6889
16801TIP3    H171894   3.228   3.296  16.134  0.9447  1.5869 -2.1786
16801TIP3    H271895   3.215   3.157  16.076 -0.4488  0.2335  1.0920
16802TIP3   OH271896   0.000   5.211   5.676 -0.6344  0.2389  0.0131
16802TIP3    H171897   0.074   5.246   5.626 -3.3236  4.4927 -1.4865
16802TIP3    H271898  -0.025   5.132   5.630  1.7398 -0.2862 -0.5294
16803TIP3   OH271899   6.630   5.106   2.881  0.3181 -0.0357 -0.2392
16803TIP3    H171900   6.645   5.096   2.975  0.5484  1.8426 -0.0211
16803TIP3    H271901   6.544   5.067   2.866  0.5720 -0.9651  0.6160
16804TIP3   OH271902   4.629   0.551   0.544  0.9663 -0.1702  0.4115
16804TIP3    H171903   4.662   0.601   0.469  0.3331 -1.8242 -1.0157
16804TIP3    H271904   4.578   0.615   0.594  0.4942  0.7239 -1.1432
16805TIP3   OH271905   5.058   2.525   4.622 -0.4676  0.4733 -0.2207
16805TIP3    H171906   4.973   2.481   4.629 -0.4469  0.5994  1.3229
16805TIP3    H271907   5.118   2.467   4.670 -0.1143  1.3848  0.4624
16806TIP3   OH271908   5.633   5.466   0.092  0.0216 -0.7320 -0.2289
16806TIP3    H171909   5.719   5.508   0.102  0.8549 -2.5709  0.7735
16806TIP3    H271910   5.650   5.388   0.040 -1.0092 -1.2257  0.1526
16807TIP3   OH271911   4.104   3.001  14.540  0.5597 -0.1069 -0.1931
16807TIP3    H171912   4.017   3.039  14.548  0.1897 -1.2384  1.6777
16807TIP3    H271913   4.096   2.936  14.471 -0.7563 -1.8416  1.5028
16808TIP3   OH271914   5.270   2.688  15.726  0.4489 -0.1133  0.3821
16808TIP3    H171915   5.201   2.650  15.780  1.7982 -2.0890  0.8445
16808TIP3    H271916   5.224   2.718  15.647 -0.9978 -0.8857  0.8816
16809TIP3   OH271917   4.601   1.696   0.070  0.5452  0.6891  0.3062
16809TIP3    H171918   4.692   1.703   0.098  0.4216 -0.9517  1.2722
16809TIP3    H271919   4.570   1.787   0.067  2.1809  1.2764 -0.0308
16810TIP3   OH271920   6.658   5.480  13.310  0.2869  0.8727 -0.1030
16810TIP3    H171921   6.738   5.471  13.258  1.3293  1.7615  1.2853
16810TIP3    H271922   6.642   5.574  13.314 -0.1972  0.7697  0.5665
16811TIP3   OH271923   1.943   5.181   4.168 -0.5318 -0.1923 -0.1398
16811TIP3    H171924   1.886   5.188   4.245 -0.8983  0.9384 -0.4853
16811TIP3    H271925   1.894   5.225   4.099  0.3231 -0.1231 -0.7125
16812TIP3   OH271926   4.151   1.813  14.109 -0.1597  0.1706 -0.0221
16812TIP3    H171927   4.116   1.850  14.190  0.9761  0.8562  0.1672
16812TIP3    H271928   4.076   1.768  14.070 -0.2372 -2.1046  2.4808
16813TIP3   OH271929   6.518   1.205   5.074 -0.5677 -0.0456 -1.0858
16813TIP3    H171930   6.462   1.135   5.040  0.4675 -0.7699 -1.3701
16813TIP3    H271931   6.587   1.213   5.008  1.1686 -1.0711  0.5015
16814TIP3   OH271932   0.819   3.256  13.476 -0.1687 -0.7103  0.0179
16814TIP3    H171933   0.899   3.214  13.509 -0.3492 -0.9183  0.1977
16814TIP3    H271934   0.759   3.256  13.551 -1.7667 -4.0789 -1.0757
16815TIP3   OH271935   5.703   4.147   0.716 -0.3932  0.1147  0.7626
16815TIP3    H171936   5.754   4.226   0.737 -0.0690  0.2283 -0.3958
16815TIP3    H271937   5.644   4.175   0.646 -1.7650 -0.1369  1.7745
16816TIP3   OH271938   4.565   4.661  16.025  0.4494  0.3209 -0.2287
16816TIP3    H171939   4.599   4.573  16.035 -1.0917 -0.3654 -0.6434
16816TIP3    H271940   4.583   4.684  15.934  0.8092  0.4237 -0.1327
16817TIP3   OH271941   5.139   3.508   5.116  0.0794  0.0933 -0.6449
16817TIP3    H171942   5.223   3.541   5.149  0.7098 -0.7333 -1.3669
16817TIP3    H271943   5.155   3.493   5.022 -1.2461  1.0786 -1.0592
16818TIP3   OH271944   3.642   0.753  11.454 -0.0728  0.4044  0.6583
16818TIP3    H171945   3.648   0.832  11.399 -0.9557  0.3630  0.4920
16818TIP3    H271946   3.731   0.740  11.485  0.4248  0.5233 -0.6411
16819TIP3   OH271947   4.693   2.832   1.551 -0.0053 -0.0050  0.5546
16819TIP3    H171948   4.753   2.758   1.549  0.9824  0.7784 -0.7342
16819TIP3    H271949   4.647   2.827   1.468  0.4157  1.0690  0.2398
16820TIP3   OH271950   2.590   3.399  15.766  0.5726 -0.3834  0.2105
16820TIP3    H171951   2.522   3.407  15.699 -0.6376 -0.0376  1.4146
16820TIP3    H271952   2.670   3.429  15.723 -0.1311 -0.3080 -1.1080
16821TIP3   OH271953   4.836   4.191   6.057 -0.0036 -0.8309  0.1643
16821TIP3    H171954   4.897   4.205   5.985  1.5184 -0.3337  1.4973
16821TIP3    H271955   4.858   4.104   6.091 -1.8814 -1.8384 -0.9868
16822TIP3   OH271956   6.310   5.733  11.233 -0.2255  0.3308 -0.0650
16822TIP3    H171957   6.263   5.816  11.225  1.1803  1.0621 -1.4066
16822TIP3    H271958   6.308   5.695  11.146  1.7523  0.5025 -0.2506
16823TIP3   OH271959   1.694   3.227   0.634 -0.3504 -0.2285 -0.0924
16823TIP3    H171960   1.700   3.135   0.610 -0.7764 -1.0167  2.5559
16823TIP3    H271961   1.660   3.270   0.555 -0.6969 -2.4024 -1.2027
16824TIP3   OH271962   0.331   2.107  10.081  0.2112 -0.2436  0.0745
16824TIP3    H171963   0.298   2.027  10.120  1.6978 -0.7959  0.2679
16824TIP3    H271964   0.425   2.091  10.069  0.4614  1.3098 -0.2622
16825TIP3   OH271965   4.337   3.151  14.958 -0.6933  0.0710  0.0199
16825TIP3    H171966   4.300   3.070  14.924  1.5266 -1.2541  0.5875
16825TIP3    H271967   4.379   3.191  14.882  1.0447 -1.0130  0.3663
16826TIP3   OH271968   1.855   6.141  11.038 -0.1493 -0.7454  0.0904
16826TIP3    H171969   1.818   6.142  11.126 -2.2140  0.2356 -0.7052
16826TIP3    H271970   1.838   6.053  11.005  1.7717 -1.5329  1.0535
16827TIP3   OH271971   4.862   4.441   3.761  0.2524  0.1032 -0.4328
16827TIP3    H171972   4.943   4.412   3.719  0.1640  1.2015 -1.4181
16827TIP3    H271973   4.795   4.435   3.693 -0.6643 -1.3574  0.5309
16828TIP3   OH271974   0.845   4.639  15.398 -0.3068 -0.6054 -0.2590
16828TIP3    H171975   0.825   4.732  15.408 -1.0360 -0.9463  2.3612
16828TIP3    H271976   0.923   4.637  15.342  1.0739  1.7594  1.3809
16829TIP3   OH271977   5.629   4.356  15.483  0.1319 -0.0176 -0.3311
16829TIP3    H171978   5.586   4.274  15.509 -0.7538  0.2441 -0.9573
16829TIP3    H271979   5.723   4.337  15.492 -0.0858 -0.5585  1.1625
16830TIP3   OH271980   6.281   4.456  17.024 -0.1838 -0.4829  0.0376
16830TIP3    H171981   6.242   4.409  16.950  0.3337 -3.1850  1.3721
16830TIP3    H271982   6.229   4.430  17.100 -0.9050  2.4956  0.6879
16831TIP3   OH271983   6.418   3.910   5.481 -0.2205 -0.0093  0.1020
16831TIP3    H171984   6.460   3.967   5.417  1.9135 -0.3880  1.0664
16831TIP3    H271985   6.447   3.943   5.566  0.0791 -1.7379  0.7302
16832TIP3   OH271986   1.292   2.872  14.678 -0.3498 -0.1135 -0.6863
16832TIP3    H171987   1.379   2.850  14.646 -0.6089  0.2604 -1.6971
16832TIP3    H271988   1.267   2.950  14.629 -1.3663 -0.3904 -0.6451
16833TIP3   OH271989   4.880   1.579   2.681  0.6651 -0.4123  0.3802
16833TIP3    H171990   4.868   1.673   2.698  2.0132 -0.5493  2.5602
16833TIP3    H271991   4.846   1.536   2.760  2.8575 -1.5344  0.7805
16834TIP3   OH271992   3.253   0.903  15.543  0.3933 -0.3411  0.1612
16834TIP3    H171993   3.197   0.953  15.602  0.9298 -0.1334  0.4991
16834TIP3    H271994   3.292   0.968  15.484 -1.4225 -0.6998 -1.5544
16835TIP3   OH271995   5.956   1.157   5.517 -0.3882  0.1698 -0.4736
16835TIP3    H171996   5.972   1.098   5.443 -1.2186  0.2354 -0.7133
16835TIP3    H271997   5.894   1.221   5.484 -0.2671  0.5873  0.0899
16836TIP3   OH271998   0.007   3.476   2.376  0.3458 -0.8933 -0.3399
16836TIP3    H171999  -0.058   3.473   2.446 -2.6402  4.1888 -2.3124
16836TIP3    H272000   0.090   3.497   2.420 -1.0306  0.2649  1.8783
16837TIP3   OH272001   6.228   0.442   5.345  0.2248  0.5371 -0.0855
16837TIP3    H172002   6.148   0.414   5.390  0.2802  1.9055  0.9435
16837TIP3    H272003   6.255   0.521   5.392  1.4710  0.8312 -1.2381
16838TIP3   OH272004   3.931   4.303  11.808 -0.1532 -0.4045  1.1212
16838TIP3    H172005   3.899   4.213  11.816 -1.0453 -0.1033  1.0689
16838TIP3    H272006   3.877   4.353  11.870  0.4113  0.0768  1.2311
16839TIP3   OH272007   2.129   2.849  11.743  0.4349 -0.2082 -0.0096
16839TIP3    H172008   2.176   2.924  11.779 -2.1234  1.5619 -0.1362
16839TIP3    H272009   2.114   2.792  11.818  0.1450  0.6632  0.6024
16840TIP3   OH272010   2.944   1.156   5.171  0.1400 -0.2560  0.3818
16840TIP3    H172011   2.968   1.068   5.143  0.8590 -0.0804  0.4298
16840TIP3    H272012   2.889   1.190   5.101 -0.3846 -0.8478  0.4998
16841TIP3   OH272013   2.017   4.398   4.368 -0.2993  0.0970  0.1162
16841TIP3    H172014   1.957   4.447   4.311 -1.6397 -0.7788  0.7335
16841TIP3    H272015   2.101   4.401   4.321 -1.4649 -1.0593 -2.2433
16842TIP3   OH272016   1.354   6.458  11.290 -0.0050  0.1853  0.1743
16842TIP3    H172017   1.415   6.531  11.282 -0.9831  1.3737  2.5575
16842TIP3    H272018   1.286   6.477  11.226 -0.1070  1.2521  0.5776
16843TIP3   OH272019   5.326   4.349  12.190 -0.1174  0.1303  0.3674
16843TIP3    H172020   5.337   4.440  12.165  1.2308 -0.1515 -0.1860
16843TIP3    H272021   5.395   4.333  12.254  0.3326 -0.7483 -0.3040
16844TIP3   OH272022   5.012   5.180  16.213 -0.0279 -0.0465  0.3869
16844TIP3    H172023   4.967   5.149  16.134  0.2264 -2.6972  1.1850
16844TIP3    H272024   5.008   5.275  16.207  0.6783 -0.1119 -3.2078
16845TIP3   OH272025   5.567   2.260   4.148 -0.5879 -0.1834  0.3088
16845TIP3    H172026   5.641   2.268   4.088 -0.4044  1.8711  0.7308
16845TIP3    H272027   5.491   2.283   4.095 -0.8729 -1.6316  0.0498
16846TIP3   OH272028   4.264   5.134   2.072 -0.0828 -0.3122  0.3468
16846TIP3    H172029   4.186   5.091   2.036 -0.8693  0.8000  0.6648
16846TIP3    H272030   4.305   5.067   2.127  1.1826 -2.0905 -2.5515
16847TIP3   OH272031   2.811   1.596   6.240 -0.0484  0.1553 -0.3126
16847TIP3    H172032   2.747   1.626   6.304  1.0821  1.1054  0.4142
16847TIP3    H272033   2.888   1.651   6.255  1.5557 -2.0027 -0.0137
16848TIP3   OH272034   1.297   3.425  12.164  0.4779  0.9520  0.6117
16848TIP3    H172035   1.346   3.426  12.082  1.2867  0.5046  1.0789
16848TIP3    H272036   1.343   3.362  12.219 -1.8237 -1.1479  0.3305
16849TIP3   OH272037   1.176   3.111  13.843  0.9525 -0.0029 -0.1693
16849TIP3    H172038   1.270   3.092  13.837  1.3769  0.4599  3.1278
16849TIP3    H272039   1.164   3.144  13.932 -2.5260 -0.9400 -0.1654
16850TIP3   OH272040   1.578   5.395   5.541  0.2797 -0.6337  0.1121
16850TIP3    H172041   1.507   5.435   5.592 -1.1750 -1.5946 -1.0698
16850TIP3    H272042   1.616   5.468   5.492 -1.4629 -0.4150 -1.0034
16851TIP3   OH272043   5.786   0.200   0.637  0.1273  0.2722  0.5198
16851TIP3    H172044   5.799   0.227   0.546 -1.1156  0.8790  0.4904
16851TIP3    H272045   5.768   0.106   0.632 -1.1653  0.5274 -0.0190
16852TIP3   OH272046   0.959   1.938   2.833  0.0480 -0.3688 -0.1709
16852TIP3    H172047   0.868   1.912   2.850  0.3613 -1.1932  0.3404
16852TIP3    H272048   0.989   1.972   2.917 -0.0399  0.7273 -0.5679
16853TIP3   OH272049   3.783   1.959  15.010  0.2627 -0.4724 -0.2176
16853TIP3    H172050   3.708   2.004  15.048  1.7204  0.4447  1.7193
16853TIP3    H272051   3.852   2.025  15.007  2.0222 -2.1146  1.3154
16854TIP3   OH272052   3.537   2.492  10.992  0.1984 -0.3417 -0.0890
16854TIP3    H172053   3.583   2.573  11.014  1.0522 -1.1766  1.3217
16854TIP3    H272054   3.574   2.466  10.908  0.4413  0.3595 -0.2074
16855TIP3   OH272055   5.710   6.088   1.945  0.6936 -0.0343 -0.3940
16855TIP3    H172056   5.620   6.115   1.965  0.9418  0.0140  0.7819
16855TIP3    H272057   5.739   6.044   2.025  0.8229 -2.4493 -1.6923
16856TIP3   OH272058   0.799   4.854  12.592 -0.0523  0.4366 -0.6007
16856TIP3    H172059   0.725   4.881  12.538 -2.0877 -1.2821  1.1555
16856TIP3    H272060   0.762   4.845  12.680  2.0190 -1.4054  0.1638
16857TIP3   OH272061   4.626   3.844   3.333  0.7292  0.3332  0.4854
16857TIP3    H172062   4.626   3.923   3.279  1.5505  1.7038  2.3619
16857TIP3    H272063   4.666   3.777   3.278  0.5831  1.3841 -0.9507
16858TIP3   OH272064   4.714   3.442   3.781  0.4130  0.0910 -0.2066
16858TIP3    H172065   4.721   3.517   3.723 -0.7105  0.8914  0.6487
16858TIP3    H272066   4.665   3.377   3.731  1.3622 -0.0780 -0.9374
16859TIP3   OH272067   4.247   3.116   3.116 -0.0787 -0.0240  0.2413
16859TIP3    H172068   4.262   3.202   3.078  0.4340 -0.8321 -1.5173
16859TIP3    H272069   4.238   3.058   3.041  0.2131 -1.6117  1.3687
16860TIP3   OH272070   5.434   5.324   5.120 -0.4042  0.7975  0.4184
16860TIP3    H172071   5.477   5.363   5.196  2.8869 -1.6918  0.0756
16860TIP3    H272072   5.483   5.358   5.045 -0.3960 -0.5027 -0.1937
16861TIP3   OH272073   4.630   5.942   2.426 -0.1133 -0.6198  0.8842
16861TIP3    H172074   4.718   5.926   2.393 -0.4158 -1.4380  0.4666
16861TIP3    H272075   4.592   5.855   2.438 -0.6059 -0.3022  1.7847
16862TIP3   OH272076   2.155   5.625   2.363  0.4433  0.6070  0.6347
16862TIP3    H172077   2.164   5.605   2.457  0.8613 -0.3301  0.4105
16862TIP3    H272078   2.139   5.719   2.360  0.3326  0.6344  1.6571
16863TIP3   OH272079   5.047   4.183  14.383  0.7948 -0.5310  0.1683
16863TIP3    H172080   5.020   4.246  14.317 -1.7443 -2.3070 -0.6366
16863TIP3    H272081   4.979   4.186  14.450  1.1706 -1.6336  0.6357
16864TIP3   OH272082   5.326   4.242  10.843 -0.1203  0.2446 -0.3154
16864TIP3    H172083   5.287   4.156  10.827  0.5326 -0.1957  0.3778
16864TIP3    H272084   5.330   4.249  10.939  0.2404  0.8502 -0.3695
16865TIP3   OH272085   6.757   4.943  12.854  0.0392 -0.1817  0.1914
16865TIP3    H172086   6.684   4.882  12.848 -1.9442  2.1424 -1.5169
16865TIP3    H272087   6.775   4.951  12.948 -0.5838 -2.2251  0.5242
16866TIP3   OH272088   5.361   3.834  14.019  0.8649  0.1420 -0.2391
16866TIP3    H172089   5.343   3.852  13.926  0.6040  0.1433 -0.1898
16866TIP3    H272090   5.320   3.906  14.066  1.3679  0.3685 -0.1452
16867TIP3   OH272091   3.804   4.724   5.184 -0.2097 -0.1535 -0.3115
16867TIP3    H172092   3.726   4.778   5.195  0.6639  1.0041  0.5008
16867TIP3    H272093   3.803   4.699   5.091 -1.5371 -0.1801 -0.3069
16868TIP3   OH272094   3.115   6.694  13.870 -0.4064 -0.1954 -0.4638
16868TIP3    H172095   3.179   6.624  13.856 -0.9920 -0.8205 -0.0504
16868TIP3    H272096   3.130   6.755  13.797  1.0075 -0.0571 -0.0806
16869TIP3   OH272097   1.081   5.173   3.088  0.2371  0.5460  0.4540
16869TIP3    H172098   1.023   5.103   3.118 -0.1470  0.3863 -0.6064
16869TIP3    H272099   1.136   5.132   3.021  2.4243  0.3849  2.2112
16870TIP3   OH272100   6.151   2.627   0.862  0.2672 -0.2129 -0.7767
16870TIP3    H172101   6.121   2.658   0.948  0.8586  1.4387 -1.1202
16870TIP3    H272102   6.125   2.535   0.859 -0.3707 -0.1244  0.8918
16871TIP3   OH272103   5.481   5.912   3.331 -0.4268 -0.1317  0.0788
16871TIP3    H172104   5.453   5.922   3.240 -0.2407  0.2806  0.0654
16871TIP3    H272105   5.513   5.999   3.356 -0.5918 -0.2112  0.5753
16872TIP3   OH272106   6.614   4.802  15.346 -0.6728 -0.1438  0.2150
16872TIP3    H172107   6.528   4.843  15.343 -1.1993 -1.1885 -2.8823
16872TIP3    H272108   6.646   4.807  15.256  1.7083 -1.4312  0.9038
16873TIP3   OH272109   0.262   6.780  16.574  0.6928  0.3932 -0.1755
16873TIP3    H172110   0.265   6.749  16.483  1.7709 -0.8171  0.2450
16873TIP3    H272111   0.169   6.799  16.590  0.1896 -1.2691 -0.9246
16874TIP3   OH272112   2.959   5.681   4.619  0.0020 -0.0575 -0.6123
16874TIP3    H172113   2.928   5.625   4.690 -0.9354  0.2687 -0.7551
16874TIP3    H272114   3.055   5.672   4.621  0.1602  1.4202  1.9323
16875TIP3   OH272115   2.350   0.238  16.397 -0.0431 -0.0697  0.3221
16875TIP3    H172116   2.258   0.213  16.389 -0.0359 -0.9245  2.3878
16875TIP3    H272117   2.395   0.182  16.334 -0.5592 -2.2424  1.7836
16876TIP3   OH272118   0.794   1.134  12.302  0.7859  0.4658 -0.3090
16876TIP3    H172119   0.832   1.159  12.386 -2.0328  3.5245  0.2539
16876TIP3    H272120   0.818   1.204  12.242 -2.1677  1.5374 -0.3916
16877TIP3   OH272121   5.840   6.366  14.278 -0.5621 -0.4502 -0.2735
16877TIP3    H172122   5.793   6.339  14.356 -0.4918 -1.1314 -0.4605
16877TIP3    H272123   5.873   6.453  14.299 -0.6303 -0.5850  0.4212
16878TIP3   OH272124   5.969   0.931  11.608  0.1863  0.1524 -0.1284
16878TIP3    H172125   5.901   0.987  11.568 -1.4923 -1.9413 -0.4062
16878TIP3    H272126   5.921   0.875  11.668  1.5456 -1.9475 -0.9029
16879TIP3   OH272127   1.914   1.123  11.684  0.2476  0.2524  0.1168
16879TIP3    H172128   1.933   1.079  11.767  2.0350 -0.1009 -0.4271
16879TIP3    H272129   1.909   1.216  11.707 -0.4120  0.0595  0.7896
16880TIP3   OH272130   2.017   3.278  16.492 -0.0298  0.2222  0.1723
16880TIP3    H172131   2.037   3.320  16.576 -1.2832 -0.8778  1.0712
16880TIP3    H272132   2.019   3.349  16.429  4.1265  0.6450  0.4850
16881TIP3   OH272133   0.928   3.094  10.515  1.0227 -0.0440  0.4066
16881TIP3    H172134   0.868   3.118  10.444 -1.2508  1.5263  2.6591
16881TIP3    H272135   1.014   3.122  10.485 -0.0806  1.9827 -1.1383
16882TIP3   OH272136   4.439   3.618  13.402  0.3204  0.0557 -0.0692
16882TIP3    H172137   4.505   3.656  13.344 -0.4022 -0.9297 -1.6068
16882TIP3    H272138   4.407   3.691  13.454  0.5007  1.1303 -1.4126
16883TIP3   OH272139   4.761   5.717  13.759 -0.3580  0.2399  0.0616
16883TIP3    H172140   4.734   5.633  13.721  0.7167  0.4203 -1.1731
16883TIP3    H272141   4.715   5.721  13.843 -0.2161 -1.7238  0.2935
16884TIP3   OH272142   6.089   5.192   4.649  0.3331 -0.5780  0.2806
16884TIP3    H172143   6.118   5.262   4.708 -2.8995 -0.3811  1.8398
16884TIP3    H272144   6.155   5.123   4.660  1.1122  0.3979  2.2860
16885TIP3   OH272145   6.693   1.462  12.572 -0.0910  0.1301  0.0064
16885TIP3    H172146   6.666   1.537  12.519  0.2392  0.6147  0.5086
16885TIP3    H272147   6.783   1.483  12.599 -0.6737  0.4869  1.7885
16886TIP3   OH272148   5.663   0.855  11.109  0.0729  0.1404 -0.6714
16886TIP3    H172149   5.734   0.912  11.138 -0.7690  0.7793  0.2109
16886TIP3    H272150   5.705   0.788  11.056  1.4209  0.1011  0.4135
16887TIP3   OH272151   6.249   1.441  13.633 -0.8496  0.1580 -0.1473
16887TIP3    H172152   6.281   1.520  13.591  2.2170  1.1926  3.5597
16887TIP3    H272153   6.311   1.373  13.608 -0.0826  0.3648  1.0785
16888TIP3   OH272154   3.411   0.102  14.508  0.0961 -0.7440 -0.2081
16888TIP3    H172155   3.449   0.183  14.542 -2.9990  0.4236  0.7909
16888TIP3    H272156   3.352   0.130  14.438  0.1899 -2.3561 -0.9913
16889TIP3   OH272157   0.983   3.666  13.955 -0.0988 -0.0932 -0.1088
16889TIP3    H172158   0.929   3.647  14.032 -0.7423  0.4279 -0.4180
16889TIP3    H272159   1.029   3.747  13.978  2.1066 -1.5401  0.9330
16890TIP3   OH272160   5.228   2.941   4.020  0.0232 -0.6089 -0.5274
16890TIP3    H172161   5.135   2.942   3.998 -0.8451  1.1985  2.6699
16890TIP3    H272162   5.255   2.850   4.005 -1.8915 -0.9226 -2.6126
16891TIP3   OH272163   5.749   6.219  11.072  0.0564  0.4610  0.6120
16891TIP3    H172164   5.670   6.262  11.039  0.1330  2.5278  2.8213
16891TIP3    H272165   5.804   6.207  10.994 -2.1020 -0.4456 -0.8674
16892TIP3   OH272166   4.070   5.726   3.484  0.6067 -0.5306  0.1102
16892TIP3    H172167   4.054   5.636   3.459 -0.6797 -0.6425  1.2040
16892TIP3    H272168   4.142   5.721   3.547  1.8990 -0.5423 -1.3044
16893TIP3   OH272169   1.936   5.406   1.153 -0.0336 -0.1659  0.3824
16893TIP3    H172170   2.006   5.407   1.218 -0.6460 -0.9968  1.0848
16893TIP3    H272171   1.859   5.441   1.199 -0.2015  0.3037 -0.2377
16894TIP3   OH272172   0.507   2.957   4.206  0.1076  0.2398 -0.0210
16894TIP3    H172173   0.526   2.954   4.112  0.0839 -0.5340 -0.0078
16894TIP3    H272174   0.551   2.880   4.242 -0.9921 -0.2164  0.3924
16895TIP3   OH272175   0.147   2.775   1.845 -0.0925  0.0745  0.4440
16895TIP3    H172176   0.103   2.692   1.864  1.7633 -1.0911 -0.0024
16895TIP3    H272177   0.170   2.810   1.931 -0.1180 -0.3293  0.6198
16896TIP3   OH272178   3.422   0.761  15.353  0.1652 -0.4418  0.4139
16896TIP3    H172179   3.438   0.671  15.379 -0.2872 -0.9826 -1.0765
16896TIP3    H272180   3.336   0.782  15.390 -0.3561 -1.1133 -0.3706
16897TIP3   OH272181   0.124   3.913   3.703 -0.5104 -0.2336  0.3939
16897TIP3    H172182   0.214   3.903   3.673 -0.0303  0.2445  1.6091
16897TIP3    H272183   0.105   3.831   3.749 -0.4403 -0.0600  0.7397
16898TIP3   OH272184   5.739   4.862  11.199  0.4838 -0.4588  0.2344
16898TIP3    H172185   5.790   4.837  11.122  0.4453  0.3172 -0.0543
16898TIP3    H272186   5.805   4.882  11.266  0.6174  1.2691 -0.3646
16899TIP3   OH272187   1.639   1.853  10.690 -0.7512 -0.1075  0.1540
16899TIP3    H172188   1.647   1.777  10.633 -0.0065  0.0861 -0.0032
16899TIP3    H272189   1.691   1.921  10.648 -2.6073  0.9865 -0.5079
16900TIP3   OH272190   5.252   6.154   4.005  0.0782 -0.1243  0.6251
16900TIP3    H172191   5.290   6.090   3.945 -0.9116 -0.8472  0.7465
16900TIP3    H272192   5.263   6.238   3.960 -2.2975 -0.8204 -1.4904
16901TIP3   OH272193   6.139   3.895   4.076  0.0555 -0.0041 -0.2217
16901TIP3    H172194   6.084   3.929   4.005  2.0301  1.1293 -1.2953
16901TIP3    H272195   6.158   3.972   4.130 -0.1162 -0.5539  0.6506
16902TIP3   OH272196   5.040   1.629   0.457  0.3075  0.1081 -0.1371
16902TIP3    H172197   4.998   1.615   0.541  1.2315 -0.3468  0.2656
16902TIP3    H272198   5.035   1.724   0.443 -2.1570 -0.0561 -0.8299
16903TIP3   OH272199   2.396   4.033   2.692 -0.1508 -0.2718 -0.1143
16903TIP3    H172200   2.465   4.067   2.635 -1.1063  1.1581 -0.4534
16903TIP3    H272201   2.431   3.950   2.725  2.0947  0.8195  0.4063
16904TIP3   OH272202   3.761   0.082  14.275 -0.8080  0.6747 -0.1278
16904TIP3    H172203   3.681   0.065  14.325 -1.6283  0.2089 -1.5210
16904TIP3    H272204   3.741   0.049  14.187  0.9176  0.5761 -0.5165
16905TIP3   OH272205   0.074   4.657  12.517  0.2871  0.3162  0.0893
16905TIP3    H172206   0.163   4.691  12.512  0.2888  0.1815 -1.5228
16905TIP3    H272207   0.060   4.637  12.609  1.1237  2.4309  0.7439
16906TIP3   OH272208   1.491   5.113   4.159  0.3304  0.7829 -0.3527
16906TIP3    H172209   1.502   5.156   4.074 -0.3389 -0.2551 -0.9838
16906TIP3    H272210   1.510   5.182   4.223  0.6531  1.6359 -1.3300
16907TIP3   OH272211   5.220   1.448   0.815  0.1768  0.4846 -0.2722
16907TIP3    H172212   5.296   1.477   0.866  0.4382 -0.2299 -0.2396
16907TIP3    H272213   5.217   1.353   0.828  0.0182  0.3392 -1.2686
16908TIP3   OH272214   0.774   0.014  13.738  0.6973  0.0695  0.1383
16908TIP3    H172215   0.869   0.003  13.738  0.7611  0.5910 -0.3821
16908TIP3    H272216   0.761   0.108  13.753  0.3179  0.3214 -1.5764
16909TIP3   OH272217   4.581   0.090  16.967 -1.0714  0.3395 -0.1878
16909TIP3    H172218   4.592   0.024  16.899 -1.9269 -0.1236  0.1109
16909TIP3    H272219   4.572   0.041  17.049 -1.2674  0.8350  0.0991
16910TIP3   OH272220   5.005   3.874   4.776 -0.5504  0.0133 -0.1500
16910TIP3    H172221   5.029   3.784   4.752 -0.3518 -0.0697  0.3635
16910TIP3    H272222   5.080   3.927   4.747 -0.7791  0.0488 -0.6861
16911TIP3   OH272223   2.706   0.601  16.563 -0.6011 -0.3520 -0.2512
16911TIP3    H172224   2.773   0.601  16.494 -0.9570  1.2099 -0.6384
16911TIP3    H272225   2.703   0.510  16.594  2.0614 -0.3916  0.1476
16912TIP3   OH272226   2.966   5.048  16.285  0.2850  0.7447 -0.1715
16912TIP3    H172227   3.013   5.043  16.368 -0.0224 -1.0480 -0.0564
16912TIP3    H272228   2.898   4.981  16.292 -2.1034  2.9751 -0.4804
16913TIP3   OH272229   3.501   3.854   3.691  0.2919  0.0069 -0.3464
16913TIP3    H172230   3.550   3.889   3.617 -1.2046  2.7248 -0.1613
16913TIP3    H272231   3.412   3.889   3.680  0.0951  0.8297  2.8903
16914TIP3   OH272232   2.411   0.320  13.545 -0.4012 -0.0014  0.0667
16914TIP3    H172233   2.345   0.253  13.567  0.0746 -0.7460 -0.7101
16914TIP3    H272234   2.407   0.382  13.618  0.2297 -1.7073  1.6287
16915TIP3   OH272235   6.491   1.727  13.802  0.0259  0.1049 -0.6080
16915TIP3    H172236   6.433   1.686  13.867  0.7281 -1.5490 -0.9615
16915TIP3    H272237   6.533   1.653  13.758  2.8286  1.2323 -0.0129
16916TIP3   OH272238   1.989   5.527   2.873  0.2707  0.6402 -0.1573
16916TIP3    H172239   1.964   5.547   2.783  1.3139  0.4821 -0.4968
16916TIP3    H272240   2.002   5.612   2.914 -0.8172  0.7218  0.0284
16917TIP3   OH272241   0.768   4.046   3.954  0.6829 -0.2118  0.3101
16917TIP3    H172242   0.826   3.993   3.900 -0.7299 -1.6885  0.1791
16917TIP3    H272243   0.682   4.004   3.947  0.3690 -0.3984  3.5945
16918TIP3   OH272244   6.114   4.053  15.467  0.2246 -0.7405 -0.2865
16918TIP3    H172245   6.199   4.093  15.484 -0.3513  0.3810  0.0065
16918TIP3    H272246   6.087   4.088  15.383 -0.4454 -0.2071  0.1382
16919TIP3   OH272247   5.013   5.327  15.198  0.0727 -0.5222 -0.4579
16919TIP3    H172248   5.048   5.239  15.213 -1.6330 -1.0942  0.5304
16919TIP3    H272249   5.046   5.379  15.271  0.8199 -0.4080 -0.8668
16920TIP3   OH272250   5.010   4.689   2.440  0.0991  0.0211 -0.7387
16920TIP3    H172251   5.069   4.756   2.404 -0.0366 -0.2891 -1.5497
16920TIP3    H272252   4.962   4.656   2.365 -0.5899 -0.2551 -0.1848
16921TIP3   OH272253   0.452   1.979   5.115 -0.0691 -0.0390 -0.0130
16921TIP3    H172254   0.517   2.005   5.050 -0.8199 -1.6449 -1.5041
16921TIP3    H272255   0.368   1.985   5.069 -0.8120  0.3876  1.3429
16922TIP3   OH272256   4.076   3.686  14.058  0.5961  0.4839  0.0519
16922TIP3    H172257   4.025   3.716  13.982 -0.2082 -0.4103  0.2072
16922TIP3    H272258   4.117   3.605  14.028  0.1078  0.0177  0.6336
16923TIP3   OH272259   1.226   4.018   2.153  0.3800 -0.4055  0.1372
16923TIP3    H172260   1.190   4.044   2.239 -0.0121  1.0511 -0.4309
16923TIP3    H272261   1.149   3.992   2.102  0.3949  0.3707 -0.2989
16924TIP3   OH272262   2.154   2.075  10.343  0.2926  0.3235  0.1672
16924TIP3    H172263   2.125   2.147  10.399 -0.2717 -0.1041  0.4300
16924TIP3    H272264   2.101   2.083  10.264 -0.7270 -0.5768  0.7289
16925TIP3   OH272265   1.446   2.985  16.856  0.3556 -0.7080  0.2906
16925TIP3    H172266   1.524   2.956  16.808 -0.3948 -0.4241 -1.1524
16925TIP3    H272267   1.453   2.941  16.941  1.6864 -1.2978 -0.0922
16926TIP3   OH272268   4.121   4.750   2.531 -0.0770  0.0253 -0.0417
16926TIP3    H172269   4.184   4.804   2.483  1.6418 -0.7741  1.2185
16926TIP3    H272270   4.140   4.768   2.624 -2.5253  0.6535  0.4145
16927TIP3   OH272271   0.967   6.188   3.173 -0.5230 -0.0005  0.5123
16927TIP3    H172272   1.027   6.123   3.209 -0.1722  0.4519  0.7542
16927TIP3    H272273   0.902   6.201   3.243 -0.0102  0.6587  0.8781
16928TIP3   OH272274   5.789   6.378  11.655 -0.2801  0.2427  0.0084
16928TIP3    H172275   5.823   6.290  11.673  0.6456 -0.0674 -2.8529
16928TIP3    H272276   5.718   6.363  11.593 -0.4174  1.5133 -0.1483
16929TIP3   OH272277   1.214   2.195  15.159  0.0081 -0.3074 -0.2643
16929TIP3    H172278   1.167   2.116  15.187  0.0825 -0.9452 -1.8666
16929TIP3    H272279   1.306   2.168  15.156  0.2044  0.2400  0.4756
16930TIP3   OH272280   1.025   4.466   3.943  0.3328 -0.0189 -0.1284
16930TIP3    H172281   0.948   4.411   3.955  1.1398 -1.0506  0.4217
16930TIP3    H272282   1.096   4.405   3.928  1.5755  0.7480  2.1525
16931TIP3   OH272283   0.601   2.925   2.512  0.1217  0.4625  0.4044
16931TIP3    H172284   0.648   3.003   2.544 -0.9598  1.9423 -1.3770
16931TIP3    H272285   0.657   2.852   2.536  1.5566  1.8429  1.5256
16932TIP3   OH272286   2.736   4.829  11.257 -0.1579 -0.2132  0.2539
16932TIP3    H172287   2.763   4.796  11.343 -1.2519 -0.5144  0.5000
16932TIP3    H272288   2.698   4.915  11.275 -0.1095 -0.1434  0.0240
16933TIP3   OH272289   5.166   2.124  14.823 -0.1895 -0.2491 -0.1533
16933TIP3    H172290   5.156   2.170  14.906 -0.4328  0.1179 -0.3836
16933TIP3    H272291   5.234   2.059  14.840 -2.4939 -2.4530  1.2910
16934TIP3   OH272292   5.858   3.612  11.345 -0.0934  0.3307 -0.3516
16934TIP3    H172293   5.922   3.660  11.399  1.7597 -0.7803 -1.4329
16934TIP3    H272294   5.909   3.540  11.307 -2.2892 -1.2737 -0.4268
16935TIP3   OH272295   0.499   6.344   1.116 -0.7960  0.3726  0.9439
16935TIP3    H172296   0.583   6.390   1.124  0.7826 -2.3751  1.7352
16935TIP3    H272297   0.515   6.260   1.160 -3.6530 -0.6849  0.1319
16936TIP3   OH272298   4.598   4.249   6.227  0.3897  0.3868 -0.1992
16936TIP3    H172299   4.599   4.170   6.282 -1.2933 -0.0802 -0.8012
16936TIP3    H272300   4.661   4.229   6.157 -0.3208 -0.6172 -0.5795
16937TIP3   OH272301   6.473   2.066  15.684  0.0584  0.6125  0.6793
16937TIP3    H172302   6.497   2.074  15.591 -1.3737  0.5941  0.2802
16937TIP3    H272303   6.545   2.109  15.731  1.8265 -1.1141 -0.2830
16938TIP3   OH272304   4.273   1.453  14.589  0.2978  0.1787 -0.5250
16938TIP3    H172305   4.270   1.516  14.661  1.1232  1.1055 -1.2554
16938TIP3    H272306   4.212   1.384  14.614  2.9584 -1.2430  2.5968
16939TIP3   OH272307   6.728   1.568   3.090  0.4363 -0.1752 -0.1382
16939TIP3    H172308   6.799   1.614   3.135  1.1093 -0.7248 -0.6290
16939TIP3    H272309   6.666   1.638   3.067  1.3391  0.4717 -0.6814
16940TIP3   OH272310   1.831   5.417   3.530  0.4007  0.7659 -0.0166
16940TIP3    H172311   1.814   5.501   3.488  0.5337  0.4009 -0.8381
16940TIP3    H272312   1.762   5.360   3.496  1.2260  0.1467 -0.7215
16941TIP3   OH272313   2.998   1.858   3.111 -0.4774  0.2506  0.4895
16941TIP3    H172314   3.063   1.796   3.076 -1.8527 -0.9500 -0.0458
16941TIP3    H272315   3.009   1.937   3.058  1.6752  0.7085  1.5293
16942TIP3   OH272316   3.928   1.036   5.630 -0.6322 -0.1345 -0.2740
16942TIP3    H172317   3.886   0.998   5.708 -0.6720  0.3711 -0.0409
16942TIP3    H272318   4.013   1.067   5.662 -0.7112  0.2070 -0.3999
16943TIP3   OH272319   5.660   5.953  15.407 -0.0608 -0.7492  0.0104
16943TIP3    H172320   5.701   6.003  15.477 -1.9667  0.9443  0.0270
16943TIP3    H272321   5.644   5.867  15.445  2.6067 -1.2064  0.2450
16944TIP3   OH272322   1.732   0.270   0.264  0.4107  0.1973 -0.5409
16944TIP3    H172323   1.681   0.192   0.287  0.9697 -0.1474 -0.4530
16944TIP3    H272324   1.705   0.291   0.175 -0.4490  0.4744 -0.2305
16945TIP3   OH272325   1.593   0.129  14.836  0.1655 -0.5322 -0.2728
16945TIP3    H172326   1.557   0.052  14.793 -1.4152  0.5429 -0.9864
16945TIP3    H272327   1.674   0.148  14.789  0.3312 -1.4727 -0.3775
16946TIP3   OH272328   0.789   0.209  11.752  0.0409 -0.1913  0.2805
16946TIP3    H172329   0.813   0.295  11.788 -0.2318  0.7060 -1.5428
16946TIP3    H272330   0.857   0.191  11.686  0.6844 -1.9070  1.3395
16947TIP3   OH272331   2.370   5.923   2.429  0.0621  0.0626 -0.2208
16947TIP3    H172332   2.328   5.995   2.383 -0.1705 -0.2910 -0.5739
16947TIP3    H272333   2.378   5.854   2.362 -0.2015 -0.4241  0.2442
16948TIP3   OH272334   4.868   6.655   4.082 -0.3031  0.3319 -0.6740
16948TIP3    H172335   4.822   6.726   4.125  0.3327 -0.9256  2.3239
16948TIP3    H272336   4.798   6.599   4.047 -0.8713  1.0375 -0.6833
16949TIP3   OH272337   0.411   5.644  12.669  0.3253 -0.1886 -0.1128
16949TIP3    H172338   0.398   5.646  12.574  0.2614  1.6642 -0.1097
16949TIP3    H272339   0.486   5.587  12.682  0.6980 -0.0103 -1.3354
16950TIP3   OH272340   5.224   0.128  14.448 -0.6166 -0.3374  0.6183
16950TIP3    H172341   5.182   0.059  14.500  1.5140 -3.3045 -1.2648
16950TIP3    H272342   5.213   0.100  14.357  0.9207  1.4448 -0.1898
16951TIP3   OH272343   0.915   3.439   2.486 -0.0283  0.2442 -0.0618
16951TIP3    H172344   0.865   3.488   2.551  0.1394 -0.5387  0.6631
16951TIP3    H272345   0.991   3.494   2.468  0.0132  0.3891  0.5363
16952TIP3   OH272346   2.055   5.653  11.552 -0.0685  0.3428 -1.1908
16952TIP3    H172347   2.017   5.732  11.513 -0.5997  0.0709 -1.2303
16952TIP3    H272348   2.150   5.667  11.546 -0.1549  1.1848 -0.7602
16953TIP3   OH272349   1.869   3.119  17.134 -0.5564  0.9170  0.1341
16953TIP3    H172350   1.955   3.159  17.118 -0.4286  1.0252  1.0536
16953TIP3    H272351   1.875   3.033  17.091 -0.2225  1.1897 -0.3674
16954TIP3   OH272352   3.524   0.127   4.760 -0.5841 -0.6935 -0.1290
16954TIP3    H172353   3.469   0.139   4.838  1.0285 -1.1694  1.1207
16954TIP3    H272354   3.563   0.212   4.744  2.4943 -1.4841  2.3009
16955TIP3   OH272355   5.981   0.393  13.095  0.6560  0.1141  0.2188
16955TIP3    H172356   5.896   0.425  13.064  0.1493  0.2238  1.6595
16955TIP3    H272357   6.042   0.412  13.023 -0.0577  2.2908  0.1337
16956TIP3   OH272358   5.099   0.823  12.304 -0.1736  0.5384 -0.1597
16956TIP3    H172359   5.152   0.903  12.307  0.1777  0.3469 -0.8569
16956TIP3    H272360   5.095   0.793  12.395 -0.9011  1.7244  0.2144
16957TIP3   OH272361   1.314   1.695   5.739 -0.2914  0.0931  0.2130
16957TIP3    H172362   1.351   1.699   5.827  0.5013  2.5255 -0.1705
16957TIP3    H272363   1.386   1.669   5.683  0.2888  2.3475 -0.1851
16958TIP3   OH272364   6.829   2.744   0.593  0.0384 -0.1887  0.0997
16958TIP3    H172365   6.823   2.816   0.656 -0.5139  0.7796 -1.0355
16958TIP3    H272366   6.835   2.786   0.508  1.7412 -1.4777 -0.4575
16959TIP3   OH272367   0.665   0.489   0.431 -0.6382  0.1697  0.2468
16959TIP3    H172368   0.660   0.577   0.393  1.1274  0.3307  0.3076
16959TIP3    H272369   0.708   0.502   0.515 -0.6918 -0.7210  0.4197
16960TIP3   OH272370   4.648   1.260  14.346 -0.0835 -0.2975 -0.3349
16960TIP3    H172371   4.557   1.240  14.324 -0.1624 -0.4853  0.1514
16960TIP3    H272372   4.644   1.343  14.393 -0.0842 -0.6366  0.2810
16961TIP3   OH272373   4.770   2.273  14.961 -0.0908  0.4311  0.1148
16961TIP3    H172374   4.741   2.224  15.039 -0.7429 -1.2026 -1.0935
16961TIP3    H272375   4.865   2.283  14.973  0.0335 -0.9771  0.5273
16962TIP3   OH272376   2.695   0.943   5.172  0.4506  0.3062 -0.3020
16962TIP3    H172377   2.701   1.036   5.196 -0.5671  0.3773 -0.2964
16962TIP3    H272378   2.727   0.896   5.250  0.0033  0.6189  0.0726
16963TIP3   OH272379   3.680   0.853   3.042 -0.3225 -0.2657  0.1746
16963TIP3    H172380   3.758   0.889   3.085  1.0689 -2.7426 -0.0401
16963TIP3    H272381   3.606   0.895   3.086  1.1010  1.9424  0.6104
16964TIP3   OH272382   1.615   4.007  11.535 -0.7380 -0.2540 -0.2383
16964TIP3    H172383   1.679   4.061  11.488 -0.0772  0.3054  1.2492
16964TIP3    H272384   1.640   4.015  11.627 -2.4840 -0.6519  0.3050
16965TIP3   OH272385   1.965   5.912   1.466 -0.1344  0.0457 -0.1378
16965TIP3    H172386   2.060   5.915   1.456 -0.0795  0.8961  0.5307
16965TIP3    H272387   1.931   5.952   1.386  0.0483 -0.4647 -0.4805
16966TIP3   OH272388   4.435   0.149   5.489  0.2756 -0.4887  0.2055
16966TIP3    H172389   4.429   0.205   5.412 -0.5280 -0.3133  0.3767
16966TIP3    H272390   4.396   0.202   5.559 -0.2343 -1.1436  0.4330
16967TIP3   OH272391   0.357   3.107  11.775 -0.0672 -0.5348 -0.0675
16967TIP3    H172392   0.320   3.134  11.859  0.6794 -0.1042  0.1304
16967TIP3    H272393   0.406   3.184  11.745  0.5467 -1.0463 -0.3914
16968TIP3   OH272394   2.323   6.537  16.436  0.5579  0.3495  0.5533
16968TIP3    H172395   2.257   6.552  16.503 -1.0493  0.8478 -1.0716
16968TIP3    H272396   2.381   6.471  16.475 -1.5800 -1.0269  1.5967
16969TIP3   OH272397   3.897   2.414  12.986  0.6505  0.4679 -0.2819
16969TIP3    H172398   3.869   2.388  12.898  0.6333  0.7450 -0.3606
16969TIP3    H272399   3.942   2.498  12.972  0.3504  0.6773  0.0199
16970TIP3   OH272400   3.655   1.955   5.093  0.3005  0.2535 -0.3538
16970TIP3    H172401   3.639   1.882   5.153 -0.4676  0.3409 -0.4488
16970TIP3    H272402   3.673   2.030   5.150 -1.1744  0.5122 -0.2024
16971TIP3   OH272403   3.887   6.542  15.229 -0.4106 -0.5654  0.3204
16971TIP3    H172404   3.836   6.522  15.150 -2.2088  2.1092  0.6704
16971TIP3    H272405   3.970   6.576  15.195 -1.3410  1.0021 -0.5025
16972TIP3   OH272406   1.352   0.981  13.017 -0.0971  0.2713  0.3844
16972TIP3    H172407   1.272   0.928  13.025 -0.0146  0.1028  0.1156
16972TIP3    H272408   1.343   1.024  12.932 -0.3853  1.0610  0.8104
16973TIP3   OH272409   4.887   4.856   2.834 -0.1476 -0.4406  0.5838
16973TIP3    H172410   4.916   4.924   2.895 -0.5123 -0.2073  0.4969
16973TIP3    H272411   4.964   4.837   2.781  0.9541 -2.3561  2.6605
16974TIP3   OH272412   0.614   5.926   2.044 -0.3569 -0.1325 -0.3921
16974TIP3    H172413   0.569   5.930   2.129  0.6920  1.3064  0.1283
16974TIP3    H272414   0.564   5.984   1.988  0.1265  0.5176 -0.1601
16975TIP3   OH272415   4.943   0.311  16.434  0.1236  0.0719  0.2250
16975TIP3    H172416   5.037   0.324  16.435  0.3132 -1.1329 -0.2541
16975TIP3    H272417   4.918   0.312  16.526  0.3054  2.1565  0.3090
16976TIP3   OH272418   0.329   2.126  15.253  0.0559 -0.2903 -0.1769
16976TIP3    H172419   0.264   2.174  15.304 -2.3964 -2.2860 -1.2441
16976TIP3    H272420   0.359   2.056  15.312  2.3844  1.3980  0.7906
16977TIP3   OH272421   0.632   1.917  16.106  0.3799  0.3393 -0.0145
16977TIP3    H172422   0.643   1.908  16.201 -0.2771  1.0413  0.1392
16977TIP3    H272423   0.543   1.886  16.089  0.5035  0.1888 -0.4045
16978TIP3   OH272424   0.315   1.342   0.327 -0.0116  0.2572  0.7310
16978TIP3    H172425   0.250   1.405   0.293 -0.2319 -0.4776 -0.2516
16978TIP3    H272426   0.311   1.269   0.266 -0.5299 -1.2084  2.4385
16979TIP3   OH272427   0.522   5.953  11.321  0.1682  0.3518  0.4472
16979TIP3    H172428   0.612   5.984  11.318 -0.5229  2.7288  1.7478
16979TIP3    H272429   0.477   6.015  11.378 -2.3949 -0.5224 -0.4743
16980TIP3   OH272430   5.074   5.998   3.552  0.5512 -0.2403 -0.4180
16980TIP3    H172431   5.063   6.069   3.616  2.2959  0.5010 -0.8524
16980TIP3    H272432   4.993   5.948   3.556 -0.1264  0.9036  1.0028
16981TIP3   OH272433   0.476   0.306  15.807 -0.3502 -0.6617 -0.1217
16981TIP3    H172434   0.463   0.330  15.716 -0.3434 -1.2295 -0.2784
16981TIP3    H272435   0.501   0.213  15.804 -1.3760 -0.9822  0.5139
16982TIP3   OH272436   4.072   1.593  10.885 -0.3383 -0.0083 -0.1330
16982TIP3    H172437   4.162   1.618  10.905 -0.4696  0.5583 -0.2334
16982TIP3    H272438   4.050   1.642  10.806 -0.4440 -0.8196 -0.6275
16983TIP3   OH272439   2.691   6.185  11.047 -0.7688 -0.0204  0.0365
16983TIP3    H172440   2.611   6.151  11.006 -2.0753  2.1466  0.6414
16983TIP3    H272441   2.708   6.268  11.003 -0.2710  0.7257  1.5652
16984TIP3   OH272442   1.391   5.061   1.259  0.7533 -0.0626 -0.4712
16984TIP3    H172443   1.432   5.033   1.178 -0.2163 -1.1148 -0.6231
16984TIP3    H272444   1.328   4.992   1.280  0.1716  0.7380  0.5716
16985TIP3   OH272445   1.099   4.379  12.470  0.0117  0.5197 -0.1600
16985TIP3    H172446   1.004   4.388  12.478 -0.1745 -1.6301  0.5491
16985TIP3    H272447   1.113   4.370  12.375 -0.9311 -2.6159 -0.0968
16986TIP3   OH272448   5.247   2.058  11.447 -0.2213 -0.6587  0.2131
16986TIP3    H172449   5.281   1.986  11.394 -2.3280  0.0066 -2.2378
16986TIP3    H272450   5.322   2.115  11.461  0.3177 -0.4188 -2.9394
16987TIP3   OH272451   3.833   3.342  13.271  0.9599  0.1179  0.0658
16987TIP3    H172452   3.789   3.369  13.351 -1.3686  0.7414 -1.3275
16987TIP3    H272453   3.868   3.423  13.234  0.9886  0.0231 -0.1204
16988TIP3   OH272454   4.098   2.650  14.568  0.1347  0.0189  0.5761
16988TIP3    H172455   4.092   2.691  14.482  1.2556  1.1577  1.0006
16988TIP3    H272456   4.153   2.573  14.553 -0.8188 -0.5808  0.0363
16989TIP3   OH272457   3.948   3.006   0.559  0.4465 -0.0380  0.0234
16989TIP3    H172458   3.864   2.972   0.530  0.6255  1.2778 -2.3587
16989TIP3    H272459   3.987   3.044   0.480  2.6979  0.5745  1.3202
16990TIP3   OH272460   1.091   4.893   5.417  0.0011  0.3691  0.0520
16990TIP3    H172461   1.097   4.918   5.325  1.9535  0.1275  0.0849
16990TIP3    H272462   1.087   4.976   5.464 -0.2467  0.5037 -0.2043
16991TIP3   OH272463   6.137   1.420   3.195  0.0187 -0.0848 -0.2672
16991TIP3    H172464   6.132   1.512   3.169  0.0748 -0.2506 -0.8802
16991TIP3    H272465   6.117   1.420   3.289 -4.1186  0.1383 -0.9613
16992TIP3   OH272466   3.943   1.752  16.294 -0.1313 -0.0508  0.6729
16992TIP3    H172467   3.973   1.748  16.203 -0.8156  1.5851  0.3323
16992TIP3    H272468   3.907   1.666  16.311 -0.8828 -0.0988 -0.9516
16993TIP3   OH272469   6.470   5.118  15.050  0.0920 -0.0883  0.0490
16993TIP3    H172470   6.401   5.178  15.022  0.8888  0.6044 -0.4667
16993TIP3    H272471   6.432   5.070  15.124 -1.1834 -0.2139 -0.6667
16994TIP3   OH272472   1.050   4.394  13.479 -0.3611  0.6530  0.0181
16994TIP3    H172473   0.972   4.426  13.434 -1.5763 -0.2024  1.4136
16994TIP3    H272474   1.050   4.441  13.562  0.6586  0.6879  0.0042
16995TIP3   OH272475   3.334   3.342  15.563  0.8288  0.6792  0.0859
16995TIP3    H172476   3.405   3.279  15.574 -0.6467 -0.8689  1.2572
16995TIP3    H272477   3.316   3.343  15.469  2.2428  0.9377 -0.1948
16996TIP3   OH272478   6.665   2.175   3.095 -0.1330 -0.1794 -0.0486
16996TIP3    H172479   6.756   2.184   3.066  0.4159 -0.6900  1.3946
16996TIP3    H272480   6.613   2.217   3.027  1.2976  1.5621 -0.1241
16997TIP3   OH272481   1.607   6.769  14.639 -0.3515  0.2692 -0.0537
16997TIP3    H172482   1.658   6.737  14.714 -0.6821 -0.1117  0.0089
16997TIP3    H272483   1.673   6.803  14.579  0.2538 -2.6764 -1.2023
16998TIP3   OH272484   2.684   0.529  14.547 -0.7053  0.0320 -0.1822
16998TIP3    H172485   2.748   0.580  14.497  0.0311 -0.7457 -0.0678
16998TIP3    H272486   2.609   0.520  14.489 -0.0266 -0.5090 -1.0053
16999TIP3   OH272487   1.365   4.956   6.265  0.6366 -0.0349  0.5285
16999TIP3    H172488   1.386   5.041   6.226 -0.4165 -0.7762 -1.7959
16999TIP3    H272489   1.379   4.893   6.195 -2.1985 -1.3506  0.9802
17000TIP3   OH272490   0.276   4.020  15.077 -0.1666  0.4466 -0.3708
17000TIP3    H172491   0.219   4.012  15.153 -0.0446  0.1673 -0.3081
17000TIP3    H272492   0.359   4.054  15.113  0.2603 -0.7220 -0.2024
17001TIP3   OH272493   3.277   4.747  11.994  0.5227  0.0302  0.0035
17001TIP3    H172494   3.220   4.753  11.917  1.2224  0.4494 -0.4981
17001TIP3    H272495   3.253   4.664  12.035  0.0422 -0.1349 -0.5919
17002TIP3   OH272496   0.960   3.654   4.021  0.2529  0.2692 -0.2195
17002TIP3    H172497   0.936   3.578   3.968 -0.7931  0.4439 -0.0196
17002TIP3    H272498   1.047   3.679   3.989  0.7662 -1.2073 -0.0538
17003TIP3   OH272499   2.338   1.018  11.492  0.3487 -0.7115 -0.1572
17003TIP3    H172500   2.367   0.958  11.424  2.5397  0.9521 -0.8191
17003TIP3    H272501   2.288   1.086  11.446 -0.1053 -0.7594  0.2450
17004TIP3   OH272502   5.670   0.972  13.440  0.3351 -0.0269 -0.2169
17004TIP3    H172503   5.666   1.066  13.457  1.2085  0.1339 -0.8522
17004TIP3    H272504   5.747   0.942  13.488 -0.3716 -0.5709  0.6106
17005TIP3   OH272505   6.342   5.450  12.815  0.2527  0.0546 -0.1861
17005TIP3    H172506   6.344   5.354  12.822  0.5561 -0.0373 -1.2609
17005TIP3    H272507   6.290   5.466  12.736  1.9632  0.6814 -1.2348
17006TIP3   OH272508   0.861   1.036   0.553  0.0780 -0.5055 -0.6000
17006TIP3    H172509   0.913   1.010   0.629 -1.6412  0.9463  1.1745
17006TIP3    H272510   0.896   1.121   0.527  0.7993 -1.0941 -1.5991
17007TIP3   OH272511   6.089   0.838   2.478 -0.8204 -0.0104  0.6391
17007TIP3    H172512   6.093   0.746   2.504  0.2112 -1.1173 -2.8749
17007TIP3    H272513   6.005   0.846   2.433 -0.3382  0.3828 -0.2188
17008TIP3   OH272514   1.940   6.531   2.953  0.0155 -0.2191  0.3728
17008TIP3    H172515   2.019   6.486   2.984 -0.6561 -1.3090  0.5416
17008TIP3    H272516   1.868   6.478   2.985 -0.7415 -0.8933 -2.2185
17009TIP3   OH272517   5.441   3.369   1.391  0.8293 -0.0842  0.3832
17009TIP3    H172518   5.387   3.333   1.462  1.2363  0.5409  1.0321
17009TIP3    H272519   5.452   3.296   1.330 -2.7006  0.3861 -1.0128
17010TIP3   OH272520   2.893   0.244  12.724 -0.8871  0.0521  0.3259
17010TIP3    H172521   2.970   0.276  12.677 -1.2680  0.1283 -0.2530
17010TIP3    H272522   2.865   0.167  12.674 -1.4073  0.2449  0.3172
17011TIP3   OH272523   3.940   0.864  14.088  0.1442  0.1077  0.0745
17011TIP3    H172524   3.985   0.795  14.040  2.9060  1.4644  0.4944
17011TIP3    H272525   3.938   0.834  14.178 -0.3820 -0.2300 -0.0480
17012TIP3   OH272526   3.164   4.865  16.948 -0.1221 -0.3483  0.1428
17012TIP3    H172527   3.232   4.801  16.971 -0.4082 -1.6014 -2.2201
17012TIP3    H272528   3.206   4.921  16.882 -1.0368 -0.4528 -0.5382
17013TIP3   OH272529   4.872   1.694  15.618  0.1104  0.8051 -0.1000
17013TIP3    H172530   4.800   1.739  15.574  0.4041  0.9049 -0.4889
17013TIP3    H272531   4.857   1.601  15.599  0.6707  0.9025 -1.1000
17014TIP3   OH272532   0.882   2.238   0.297  0.6519 -0.1819  0.6873
17014TIP3    H172533   0.789   2.229   0.280  0.1071  1.5000  2.3494
17014TIP3    H272534   0.925   2.199   0.221 -1.3901 -0.9432 -0.1385
17015TIP3   OH272535   4.640   4.949   5.240 -0.5620 -0.0332  0.1835
17015TIP3    H172536   4.697   4.937   5.316 -0.6755 -3.0865 -0.0655
17015TIP3    H272537   4.566   4.999   5.272  1.3877  2.5668  0.9338
17016TIP3   OH272538   3.380   1.315  15.066  0.5175 -0.1138  0.2483
17016TIP3    H172539   3.438   1.247  15.030  3.4742  2.6334 -0.6168
17016TIP3    H272540   3.314   1.329  14.999  0.9486 -0.8811 -0.3533
17017TIP3   OH272541   2.346   5.435  16.733  0.0295 -0.2822 -0.6636
17017TIP3    H172542   2.369   5.350  16.771 -0.1125 -0.1448 -0.2663
17017TIP3    H272543   2.327   5.416  16.641 -2.6563 -1.1378 -0.0134
17018TIP3   OH272544   6.547   4.548   4.525  0.4814  0.1928  0.1260
17018TIP3    H172545   6.532   4.564   4.618  0.3975  1.3409 -0.0656
17018TIP3    H272546   6.546   4.453   4.516 -0.2826  0.0856  1.1724
17019TIP3   OH272547   4.653   1.155   2.357 -0.8242  0.3028  0.0189
17019TIP3    H172548   4.651   1.217   2.429  2.7259 -0.0325  0.6057
17019TIP3    H272549   4.679   1.208   2.281 -1.0560  0.0644 -0.2301
17020TIP3   OH272550   0.848   1.605   5.580 -0.4805 -0.3027  0.0925
17020TIP3    H172551   0.779   1.548   5.613  1.1647 -2.3180  0.2557
17020TIP3    H272552   0.924   1.585   5.635  0.5718  0.9451 -0.8449
17021TIP3   OH272553   3.974   6.797  15.661  0.2589 -0.2159  0.3262
17021TIP3    H172554   3.921   6.737  15.713 -0.6451 -0.4578 -0.8403
17021TIP3    H272555   3.998   6.748  15.583 -0.3147  0.8518 -0.5479
17022TIP3   OH272556   5.428   2.408   0.144 -0.2493  0.1735  0.4885
17022TIP3    H172557   5.354   2.436   0.198 -2.6711 -2.4080 -1.1922
17022TIP3    H272558   5.427   2.467   0.069 -0.3213  0.4504  0.7079
17023TIP3   OH272559   2.836   1.458   1.563 -0.0732  0.1296 -0.3912
17023TIP3    H172560   2.915   1.510   1.573 -0.1611  0.0398  0.8437
17023TIP3    H272561   2.781   1.508   1.503  1.4592 -0.4638 -2.3952
17024TIP3   OH272562   5.146   2.501   0.192 -0.1442  0.0033 -0.5796
17024TIP3    H172563   5.185   2.576   0.237  0.1284 -0.7811  0.5402
17024TIP3    H272564   5.090   2.460   0.259 -0.0223 -0.9832 -1.0645
17025TIP3   OH272565   4.168   5.141  13.920 -0.1357  0.3332  0.4269
17025TIP3    H172566   4.197   5.232  13.914  3.2729 -0.7049 -0.8113
17025TIP3    H272567   4.206   5.109  14.002  0.5687 -0.5207 -0.2125
17026TIP3   OH272568   4.309   4.074   4.026 -0.1644 -0.3839 -0.5353
17026TIP3    H172569   4.234   4.077   4.085 -0.5873 -2.1238 -0.9282
17026TIP3    H272570   4.273   4.098   3.940  0.3699  1.7343 -0.2411
17027TIP3   OH272571   6.759   6.721  14.489  0.0436  0.0726  0.3865
17027TIP3    H172572   6.813   6.795  14.460 -1.1191  1.3312  1.2935
17027TIP3    H272573   6.682   6.762  14.528 -0.3131 -1.6228  1.5667
17028TIP3   OH272574   5.561   0.120  15.548 -0.2814  0.3469 -0.6345
17028TIP3    H172575   5.608   0.039  15.567 -2.7540 -0.5703  2.4360
17028TIP3    H272576   5.499   0.097  15.479 -1.0924 -0.4981  0.3472
17029TIP3   OH272577   0.666   4.986   4.352  0.2253 -0.3139  0.2198
17029TIP3    H172578   0.600   4.920   4.330  0.7294 -0.7169 -0.0955
17029TIP3    H272579   0.750   4.942   4.341  0.5432 -0.2393  1.9867
17030TIP3   OH272580   6.354   6.603   3.493  0.7677 -0.2899 -0.0208
17030TIP3    H172581   6.429   6.555   3.457  0.3665 -0.2891 -0.8798
17030TIP3    H272582   6.320   6.546   3.562 -0.4098 -1.8346 -1.7960
17031TIP3   OH272583   0.378   3.900  11.468 -0.1945  0.2040 -0.2779
17031TIP3    H172584   0.316   3.901  11.395  0.4526  1.2686 -0.8513
17031TIP3    H272585   0.376   3.990  11.502  0.1898 -0.0476  0.4264
17032TIP3   OH272586   6.243   4.310  16.770 -0.3688 -0.3322 -0.8189
17032TIP3    H172587   6.241   4.214  16.763  0.8287 -0.2983 -1.8745
17032TIP3    H272588   6.216   4.341  16.684 -0.3211  0.2838 -0.6192
17033TIP3   OH272589   1.991   2.330  17.097 -0.3197 -0.1598 -0.1640
17033TIP3    H172590   2.037   2.412  17.119 -0.6023 -0.2158  0.6666
17033TIP3    H272591   1.999   2.323  17.002 -1.1265  1.3345 -0.3672
17034TIP3   OH272592   6.355   6.436   2.959  0.3994  0.1517 -0.2544
17034TIP3    H172593   6.310   6.359   2.926  0.3185 -0.2745  0.8107
17034TIP3    H272594   6.406   6.405   3.034  0.7775  1.0306 -0.1256
17035TIP3   OH272595   0.080   2.924  12.180 -0.2501  0.6060 -0.3025
17035TIP3    H172596   0.147   2.968  12.232  1.1029 -1.1733 -0.4553
17035TIP3    H272597   0.020   2.888  12.244  1.2437 -1.3156  0.1146
17036TIP3   OH272598   5.718   0.236   5.082 -0.4236 -0.2425  0.4609
17036TIP3    H172599   5.685   0.288   5.156 -0.8053  1.7349 -1.0127
17036TIP3    H272600   5.812   0.232   5.096 -0.5685 -0.5359  1.4417
17037TIP3   OH272601   1.745   5.756   1.501  0.1972  0.3461 -0.0443
17037TIP3    H172602   1.709   5.806   1.428  1.9198  0.0836 -1.1389
17037TIP3    H272603   1.828   5.799   1.521  0.8079 -0.9232  0.2574
17038TIP3   OH272604   6.010   4.376  11.421  0.2766 -0.0197 -0.1627
17038TIP3    H172605   5.933   4.332  11.456  0.6920 -0.0041  0.7937
17038TIP3    H272606   6.035   4.323  11.345  0.2796 -0.9641  0.4780
17039TIP3   OH272607   2.445   1.154  10.892 -0.2508 -0.3117  0.0573
17039TIP3    H172608   2.449   1.230  10.834  0.7540 -0.6156 -0.3169
17039TIP3    H272609   2.469   1.187  10.978 -0.3109 -0.1127 -0.0036
17040TIP3   OH272610   3.340   2.762  12.128  0.1814  0.1409 -0.3386
17040TIP3    H172611   3.259   2.767  12.179 -0.1916 -0.3942 -0.8696
17040TIP3    H272612   3.354   2.668  12.114  0.2440  0.2893 -1.2828
17041TIP3   OH272613   3.088   6.110   5.161  0.4334  0.2374  0.5393
17041TIP3    H172614   3.160   6.066   5.206  0.4756  0.0478  0.2900
17041TIP3    H272615   3.102   6.090   5.068 -1.3718 -1.9882  0.6531
17042TIP3   OH272616   2.813   0.226  16.469 -0.2792 -0.2652 -0.3967
17042TIP3    H172617   2.855   0.206  16.553  0.5826  1.1299 -0.4553
17042TIP3    H272618   2.753   0.153  16.454  0.1154 -0.9289  1.0527
17043TIP3   OH272619   1.118   0.670   5.435  0.4667 -0.3644  0.8534
17043TIP3    H172620   1.047   0.695   5.376  0.6590  0.7947  1.0847
17043TIP3    H272621   1.191   0.651   5.377 -0.0403 -1.6409  0.6101
17044TIP3   OH272622   5.712   2.849   5.121  1.2493  0.0701 -0.0802
17044TIP3    H172623   5.735   2.801   5.200  0.2850 -2.7078 -1.3507
17044TIP3    H272624   5.723   2.785   5.050  1.1556  2.1545 -2.0909
17045TIP3   OH272625   4.369   0.937   5.908  0.2425  0.2903  0.1691
17045TIP3    H172626   4.432   0.938   5.980 -0.2012 -0.2403  0.5783
17045TIP3    H272627   4.299   0.880   5.939  1.4693 -2.6473 -1.8658
17046TIP3   OH272628   4.044   1.399  15.353  0.2476 -0.1436  0.1406
17046TIP3    H172629   3.966   1.412  15.298  0.0973  1.5875  0.7100
17046TIP3    H272630   4.026   1.449  15.432  0.6772 -2.1930  1.6064
17047TIP3   OH272631   3.846   0.863   5.846  0.5752  0.5164  0.6915
17047TIP3    H172632   3.858   0.798   5.915 -2.2427  0.5360  1.3108
17047TIP3    H272633   3.837   0.946   5.892 -1.5575  0.4985  0.4037
17048TIP3   OH272634   5.052   1.343  16.769 -0.5922  0.4319  0.6006
17048TIP3    H172635   5.025   1.303  16.851 -0.9044  0.5776  0.5688
17048TIP3    H272636   5.028   1.436  16.778 -0.7566  0.4203  0.2903
17049TIP3   OH272637   1.703   6.247   2.793  0.0168 -0.6977  0.2773
17049TIP3    H172638   1.619   6.276   2.758  0.9205  0.2358 -1.2504
17049TIP3    H272639   1.718   6.162   2.752  0.6699  0.0050 -1.0172
17050TIP3   OH272640   3.068   3.212  13.935 -0.0061 -0.1866  0.3708
17050TIP3    H172641   3.146   3.263  13.956 -0.0672  0.3269 -0.5822
17050TIP3    H272642   3.097   3.151  13.867 -0.0136 -1.2227  1.2712
17051TIP3   OH272643   1.454   2.946  11.168  0.3197 -0.0502 -0.4145
17051TIP3    H172644   1.538   2.969  11.127  0.3868 -0.2940 -0.4139
17051TIP3    H272645   1.389   2.973  11.103  0.4649 -1.3858 -1.1522
17052TIP3   OH272646   4.740   2.995  16.459  0.4636 -0.0227 -0.2713
17052TIP3    H172647   4.759   2.957  16.373 -0.6893 -2.9096  0.6122
17052TIP3    H272648   4.646   2.980  16.472  0.2616  1.8502  0.8627
17053TIP3   OH272649   1.907   3.291  11.915  0.5179  0.1866 -0.2006
17053TIP3    H172650   1.882   3.199  11.923  1.2322 -0.2241 -2.2184
17053TIP3    H272651   1.826   3.337  11.896  0.1968 -0.0358  0.5793
17054TIP3   OH272652   3.418   2.172  10.609 -0.2027 -0.5182  0.1317
17054TIP3    H172653   3.373   2.092  10.583 -0.5048  0.0070 -1.0027
17054TIP3    H272654   3.422   2.167  10.705 -1.4458 -1.2155  0.1619
17055TIP3   OH272655   5.007   1.806  15.855 -0.1304 -0.5666 -0.1523
17055TIP3    H172656   4.993   1.769  15.768  0.8804  0.1062 -0.6267
17055TIP3    H272657   5.023   1.899  15.839 -1.6422 -0.0919  0.9274
17056TIP3   OH272658   0.194   4.487   5.451  0.4941 -0.8356  0.5457
17056TIP3    H172659   0.103   4.511   5.437  0.5826 -0.8491 -0.1149
17056TIP3    H272660   0.191   4.412   5.511  0.0969 -0.5978  0.8228
17057TIP3   OH272661   2.860   4.174   0.462  0.3229 -0.4380 -0.4923
17057TIP3    H172662   2.850   4.258   0.418  0.8225 -0.4752 -0.6874
17057TIP3    H272663   2.937   4.186   0.519 -0.4743 -0.2978  0.5952
17058TIP3   OH272664   1.026   3.122  16.297 -0.0924  0.0482 -0.3212
17058TIP3    H172665   1.089   3.131  16.225  1.7910 -0.9605  1.0877
17058TIP3    H272666   1.005   3.212  16.322 -0.1822  0.4078 -1.6200
17059TIP3   OH272667   2.847   0.748   1.143 -1.2085  0.4035 -0.4306
17059TIP3    H172668   2.832   0.801   1.222 -0.9913  1.8211 -1.3095
17059TIP3    H272669   2.943   0.743   1.136 -1.1559 -2.3931  1.0902
17060TIP3   OH272670   4.087   1.274  14.659 -0.2478 -0.3362 -0.0569
17060TIP3    H172671   4.118   1.185  14.639 -0.0161 -0.4257  0.6798
17060TIP3    H272672   4.110   1.287  14.751  0.4323  0.7869 -0.3709
17061TIP3   OH272673   0.192   0.151  15.534 -0.1699 -0.1329  0.5428
17061TIP3    H172674   0.156   0.182  15.617  0.0318  0.3913  0.4362
17061TIP3    H272675   0.191   0.227  15.477  0.6407 -0.2246  0.3865
17062TIP3   OH272676   3.283   6.543   4.656 -0.0814  0.0320  0.1239
17062TIP3    H172677   3.325   6.458   4.642 -1.5949 -0.4047 -2.3521
17062TIP3    H272678   3.355   6.606   4.655  0.8382 -1.0068 -0.5130
17063TIP3   OH272679   0.977   5.841   1.267  0.2914 -0.0636  0.8739
17063TIP3    H172680   1.006   5.762   1.312 -0.3374  0.2302  1.8239
17063TIP3    H272681   0.893   5.862   1.307  0.2952  0.9029  0.4118
17064TIP3   OH272682   4.395   5.479  11.379  0.0073 -0.2830 -0.7325
17064TIP3    H172683   4.484   5.472  11.416 -0.4986 -1.8301  0.2874
17064TIP3    H272684   4.409   5.480  11.284  1.1759  0.8438 -0.5803
17065TIP3   OH272685   5.475   6.128   3.601  0.7334  0.3811 -0.4458
17065TIP3    H172686   5.548   6.071   3.623  2.1287  2.4047  0.4546
17065TIP3    H272687   5.421   6.129   3.680 -1.4122 -2.5443 -1.6861
17066TIP3   OH272688   1.992   6.295  12.710 -0.0287 -0.1701  0.4924
17066TIP3    H172689   1.952   6.246  12.782  1.1881  0.6480  1.7975
17066TIP3    H272690   1.940   6.375  12.703 -0.9218 -0.8086 -0.4278
17067TIP3   OH272691   0.656   2.983   1.526  0.2820 -0.7223 -0.3348
17067TIP3    H172692   0.576   2.932   1.543  1.0676 -1.1461  2.7707
17067TIP3    H272693   0.650   3.057   1.588  2.1266 -0.5952 -0.2758
17068TIP3   OH272694   3.801   5.590   3.731  0.2475  0.2367  0.1994
17068TIP3    H172695   3.826   5.682   3.730 -1.7244  0.8086  0.4906
17068TIP3    H272696   3.776   5.572   3.640  3.3371 -0.8708 -0.5533
17069TIP3   OH272697   0.583   2.394  12.570  0.5044  0.0414 -0.4908
17069TIP3    H172698   0.581   2.316  12.515 -0.3626 -0.5613  0.3555
17069TIP3    H272699   0.665   2.387  12.618 -0.3605 -1.3144  0.8800
17070TIP3   OH272700   1.758   0.277  16.318 -0.4567 -0.2280 -0.1666
17070TIP3    H172701   1.722   0.258  16.231  0.7573 -2.3723 -0.2655
17070TIP3    H272702   1.814   0.353  16.305  0.0005 -0.7405 -1.3548
17071TIP3   OH272703   1.732   2.489  12.705 -0.6370  0.4801 -0.3573
17071TIP3    H172704   1.786   2.556  12.663 -1.4825  0.7623 -1.0090
17071TIP3    H272705   1.762   2.406  12.666 -0.7903  0.6554 -0.8627
17072TIP3   OH272706   0.369   6.714  12.530  0.8878 -0.0347 -0.2115
17072TIP3    H172707   0.402   6.803  12.518  0.5806 -0.0836 -1.5007
17072TIP3    H272708   0.350   6.683  12.442  1.7805 -1.6905  0.1418
17073TIP3   OH272709   4.376   5.292  16.432 -0.5653  0.1863 -0.3274
17073TIP3    H172710   4.456   5.281  16.484 -0.8260 -0.2953 -0.0170
17073TIP3    H272711   4.379   5.219  16.369 -1.2414 -0.4135  0.3258
17074TIP3   OH272712   5.585   1.174   4.671 -0.4227  0.5000  0.1780
17074TIP3    H172713   5.579   1.162   4.766  0.0575  0.8919  0.2607
17074TIP3    H272714   5.515   1.237   4.650 -1.6705 -0.8898  0.0141
17075TIP3   OH272715   3.676   2.378   0.772 -0.0522  0.4085 -0.3301
17075TIP3    H172716   3.663   2.441   0.701 -1.9151 -1.3524 -1.6470
17075TIP3    H272717   3.762   2.340   0.755  0.1354  1.0269 -0.7961
17076TIP3   OH272718   4.120   0.810   5.365  0.1323  0.0308  0.5794
17076TIP3    H172719   4.082   0.895   5.344  1.2514  0.0975 -1.4083
17076TIP3    H272720   4.206   0.830   5.402 -0.2332 -0.2177  1.6013
17077TIP3   OH272721   4.546   4.447  16.766 -0.4287 -0.4217  0.6661
17077TIP3    H172722   4.636   4.481  16.758 -0.5364 -0.3965 -0.7108
17077TIP3    H272723   4.551   4.382  16.835  0.9503 -1.3341 -0.2402
17078TIP3   OH272724   0.568   1.511  16.221 -0.7213 -0.4305  0.1396
17078TIP3    H172725   0.648   1.458  16.219  0.5253  1.2315  2.0654
17078TIP3    H272726   0.567   1.555  16.136 -1.2884 -2.6933 -1.1275
17079TIP3   OH272727   4.053   5.677  13.932  0.3650 -0.6153 -0.2231
17079TIP3    H172728   4.125   5.618  13.953  0.0550 -0.8144  0.3167
17079TIP3    H272729   3.979   5.642  13.981 -0.5394 -1.3838 -2.0420
17080TIP3   OH272730   3.438   3.861  16.397 -0.3646 -0.5335  0.3332
17080TIP3    H172731   3.376   3.789  16.387 -0.3847 -0.4680 -0.0354
17080TIP3    H272732   3.477   3.847  16.483 -0.2028 -1.1208  0.1749
17081TIP3   OH272733   3.323   5.260  14.368  0.2072  0.0330 -0.4164
17081TIP3    H172734   3.366   5.305  14.295 -0.7155  0.7021 -0.5640
17081TIP3    H272735   3.231   5.256  14.343 -0.1577  0.4777  0.8061
17082TIP3   OH272736   4.617   4.012   3.083  0.3260 -0.0222 -0.0070
17082TIP3    H172737   4.585   4.102   3.092  0.3870  0.0463 -0.4549
17082TIP3    H272738   4.543   3.964   3.047  0.2053 -0.2117  0.4869
17083TIP3   OH272739   6.213   3.216  14.072 -0.1864 -0.2304  0.1055
17083TIP3    H172740   6.224   3.152  14.002  1.1039  0.3927 -0.3015
17083TIP3    H272741   6.291   3.205  14.127 -0.7884 -0.1632  0.9920
17084TIP3   OH272742   0.991   5.619  14.320 -0.2016 -0.6679 -0.1762
17084TIP3    H172743   0.968   5.699  14.272  1.8269  1.1748  1.6380
17084TIP3    H272744   1.046   5.570  14.259  2.2508  1.5736 -0.0078
17085TIP3   OH272745   1.611   1.065  12.489 -0.1879  0.1927  0.4549
17085TIP3    H172746   1.658   0.997  12.441 -2.2984 -1.9499  1.2193
17085TIP3    H272747   1.660   1.075  12.570 -0.2386 -1.0420  0.6681
17086TIP3   OH272748   5.631   5.103  16.695 -0.1017  0.1071  0.2792
17086TIP3    H172749   5.623   5.014  16.660  1.2401  0.1198 -0.1195
17086TIP3    H272750   5.541   5.131  16.710 -0.7772 -0.0384 -2.8429
17087TIP3   OH272751   5.316   4.775  12.678  0.1698 -0.4499 -0.0003
17087TIP3    H172752   5.374   4.848  12.699  0.8132 -1.0970  0.5084
17087TIP3    H272753   5.302   4.730  12.761 -0.1171 -0.9818 -0.3303
17088TIP3   OH272754   4.285   4.104  11.756 -0.0239  0.2956  0.1278
17088TIP3    H172755   4.300   4.079  11.665 -1.9351 -2.5362  0.4641
17088TIP3    H272756   4.306   4.025  11.806 -2.0581  0.7078  1.7902
17089TIP3   OH272757   2.103   2.540   5.084  0.0690 -0.4220 -0.1948
17089TIP3    H172758   2.023   2.511   5.127  0.2389  0.7247  0.9650
17089TIP3    H272759   2.077   2.618   5.035  0.4216 -0.1670  0.0183
17090TIP3   OH272760   0.340   0.777  16.048 -0.1874  0.3978  0.3542
17090TIP3    H172761   0.353   0.820  16.133 -0.2503  0.1424  0.4946
17090TIP3    H272762   0.339   0.684  16.069 -0.3792  0.3414  0.0930
17091TIP3   OH272763   6.676   5.579   3.443  0.3977 -0.0871 -0.4299
17091TIP3    H172764   6.675   5.609   3.352  0.2577  0.5823 -0.2126
17091TIP3    H272765   6.688   5.659   3.494 -0.9282 -0.2804  0.2162
17092TIP3   OH272766   0.630   2.412  15.698  0.7180  0.1402 -0.0537
17092TIP3    H172767   0.570   2.486  15.687  1.1147  0.8671  2.1473
17092TIP3    H272768   0.711   2.440  15.654  0.2388  0.1476 -0.9572
17093TIP3   OH272769   5.815   2.994   0.159 -0.0743 -0.7317  0.0076
17093TIP3    H172770   5.908   3.004   0.138 -0.3698 -0.8728 -1.4471
17093TIP3    H272771   5.774   3.075   0.130 -0.4834 -0.8505  0.2282
17094TIP3   OH272772   2.662   0.913   5.904  0.6260 -0.6822 -0.0629
17094TIP3    H172773   2.599   0.879   5.967 -0.9453  1.0560 -0.5945
17094TIP3    H272774   2.718   0.971   5.955  1.4425 -1.7517  0.2938
17095TIP3   OH272775   5.748   5.556   4.774 -0.2085 -0.9436 -0.5801
17095TIP3    H172776   5.766   5.481   4.717  1.5548 -0.6117 -0.5098
17095TIP3    H272777   5.689   5.521   4.841 -0.2279 -2.0155 -1.1313
17096TIP3   OH272778   2.672   3.272   1.604  0.1235  0.1272 -0.5724
17096TIP3    H172779   2.670   3.176   1.611  1.6802 -0.0230 -1.6331
17096TIP3    H272780   2.692   3.289   1.512  3.4487  1.3291  0.2175
17097TIP3   OH272781   5.150   4.549   0.966  0.2766 -0.0152 -0.1425
17097TIP3    H172782   5.093   4.477   0.993  0.1170 -0.1314 -0.7772
17097TIP3    H272783   5.095   4.626   0.968 -0.6267 -0.4438 -2.9945
17098TIP3   OH272784   2.107   3.985  11.396  0.1034 -0.3107  0.3191
17098TIP3    H172785   2.014   4.006  11.404 -0.1384 -0.7978 -0.9888
17098TIP3    H272786   2.147   4.024  11.474 -1.3053 -0.8266  1.3482
17099TIP3   OH272787   4.136   2.757  16.547  0.3279 -0.1017 -0.3763
17099TIP3    H172788   4.084   2.796  16.477 -0.9360 -0.9614  0.0561
17099TIP3    H272789   4.180   2.682  16.505 -2.0336 -1.8848  0.1418
17100TIP3   OH272790   0.765   0.464   2.838  0.2049  0.3392  0.4491
17100TIP3    H172791   0.795   0.434   2.924 -0.3413  0.3437  0.6419
17100TIP3    H272792   0.806   0.550   2.827  3.5323 -1.2443 -1.0108
17101TIP3   OH272793   6.149   3.768   1.082  0.2087 -0.1108 -0.1314
17101TIP3    H172794   6.204   3.720   1.143 -0.8612 -0.1525  0.8366
17101TIP3    H272795   6.072   3.793   1.134 -1.0571 -0.7474 -1.6326
17102TIP3   OH272796   5.217   2.950   2.598 -0.0009 -0.4315  0.0798
17102TIP3    H172797   5.178   2.938   2.685  0.9040  1.3598  0.7810
17102TIP3    H272798   5.310   2.966   2.615  0.5642 -1.9241 -1.3698
17103TIP3   OH272799   1.763   0.534   1.577 -0.2718  0.7989  0.3684
17103TIP3    H172800   1.782   0.627   1.589 -0.3218  0.8723 -0.0927
17103TIP3    H272801   1.734   0.528   1.486 -2.8487  0.7516  1.1201
17104TIP3   OH272802   6.817   1.063   2.521  0.4270 -0.0216 -0.6797
17104TIP3    H172803   6.754   1.063   2.450 -0.4437  1.0240  0.0627
17104TIP3    H272804   6.808   0.977   2.562 -2.6872  1.0432  1.2189
17105TIP3   OH272805   6.131   2.005  14.303  0.1495  0.0043  0.2889
17105TIP3    H172806   6.128   1.942  14.231 -0.3834 -0.4463  0.6980
17105TIP3    H272807   6.058   2.064  14.286 -1.5295 -1.5446  1.7354
17106TIP3   OH272808   3.801   4.149  12.163 -0.0775 -0.4134  0.0849
17106TIP3    H172809   3.779   4.082  12.099  0.7091 -2.4453  1.8051
17106TIP3    H272810   3.722   4.203  12.170 -0.4112 -0.5598 -2.0191
17107TIP3   OH272811   3.920   4.415   3.070  0.4329  0.8217 -0.0144
17107TIP3    H172812   3.920   4.460   2.986 -0.0638 -0.7380 -0.8912
17107TIP3    H272813   3.865   4.338   3.056  1.5832 -0.2999  1.2939
17108TIP3   OH272814   3.564   3.043   2.589  0.3402  0.1142  0.3444
17108TIP3    H172815   3.557   2.950   2.609 -2.5825  0.0182 -0.6388
17108TIP3    H272816   3.603   3.082   2.667 -1.2776 -1.5359  2.0890
17109TIP3   OH272817   5.546   3.077  12.853  0.4773 -0.9312  0.1534
17109TIP3    H172818   5.574   3.166  12.834  3.2443 -2.0964 -1.7852
17109TIP3    H272819   5.528   3.077  12.947 -1.0526  1.9534 -0.0357
17110TIP3   OH272820   5.857   4.864  12.139 -0.1473 -0.3567 -0.1581
17110TIP3    H172821   5.831   4.788  12.088 -1.0404  0.5500 -1.1098
17110TIP3    H272822   5.790   4.930  12.120  0.2164  0.4426  1.1806
17111TIP3   OH272823   3.144   4.855  12.478 -0.0433 -0.2884  0.4189
17111TIP3    H172824   3.201   4.794  12.432 -0.5389 -1.1212  0.8911
17111TIP3    H272825   3.138   4.931  12.419  1.3190 -0.2958  0.2419
17112TIP3   OH272826   2.308   2.703   6.059 -0.2547 -0.2255 -0.0532
17112TIP3    H172827   2.395   2.718   6.095 -0.2636 -1.1424  0.3656
17112TIP3    H272828   2.248   2.732   6.129 -0.2713 -1.7189  0.5906
17113TIP3   OH272829   5.845   0.874  11.874 -0.3116 -0.3782  0.4902
17113TIP3    H172830   5.794   0.814  11.928 -1.1222 -0.5915 -0.5018
17113TIP3    H272831   5.936   0.848  11.889 -0.6421 -1.7750  0.1864
17114TIP3   OH272832   5.826   3.438  16.892  0.4712 -0.6311 -0.4546
17114TIP3    H172833   5.801   3.483  16.812  0.8168  0.9276  0.2695
17114TIP3    H272834   5.811   3.502  16.961 -0.2669 -2.0852  0.8053
17115TIP3   OH272835   0.476   0.378   1.927 -0.6779  0.1325  0.7505
17115TIP3    H172836   0.485   0.400   1.834 -2.0452 -1.0501  0.3053
17115TIP3    H272837   0.402   0.318   1.930 -1.1847  0.7988  2.7198
17116TIP3   OH272838   2.244   5.491   5.257 -0.3790  0.1484  0.2197
17116TIP3    H172839   2.330   5.533   5.253  0.8206 -2.2461 -0.5916
17116TIP3    H272840   2.218   5.481   5.165 -2.0104  1.6389  0.4499
17117TIP3   OH272841   4.196   4.158  15.660  0.0288  0.4154  0.0260
17117TIP3    H172842   4.223   4.169  15.751  0.0171  0.4896  0.0209
17117TIP3    H272843   4.218   4.241  15.618 -0.2626  0.4975  0.0360
17118TIP3   OH272844   2.004   0.029   2.597  0.3893 -0.0917 -0.6922
17118TIP3    H172845   2.064   0.092   2.637 -2.8701  1.5375  2.2281
17118TIP3    H272846   1.949   0.082   2.539 -0.3581 -0.8343 -0.6803
17119TIP3   OH272847   0.694   5.815   3.554 -1.0801 -0.4667 -0.3800
17119TIP3    H172848   0.650   5.738   3.518 -0.8951 -1.9393  2.2492
17119TIP3    H272849   0.716   5.790   3.644  1.0464  1.8776 -0.1353
17120TIP3   OH272850   3.226   3.020  12.303  0.2593  0.1617 -0.0184
17120TIP3    H172851   3.304   2.968  12.284  0.1146  0.5439 -1.8440
17120TIP3    H272852   3.256   3.111  12.303 -0.1110  0.2904 -0.3805
17121TIP3   OH272853   2.183   5.909   3.622 -0.5005 -1.0988 -0.3101
17121TIP3    H172854   2.175   5.977   3.555 -1.0348 -0.6210  0.2183
17121TIP3    H272855   2.222   5.955   3.697  2.5512 -2.1761 -1.0627
17122TIP3   OH272856   6.280   5.942  13.332 -0.1293  0.0883 -0.0497
17122TIP3    H172857   6.334   5.959  13.256 -1.7131  1.4890 -0.9250
17122TIP3    H272858   6.336   5.963  13.407  0.5778  1.4060 -0.9156
17123TIP3   OH272859   4.015   1.578   2.122  0.3928 -0.7711  0.2097
17123TIP3    H172860   3.931   1.623   2.131  1.0685  0.2004  2.1730
17123TIP3    H272861   4.075   1.646   2.090  0.9726 -0.7744  1.2614
17124TIP3   OH272862   6.345   3.338   5.937  0.4393  0.4531  0.0283
17124TIP3    H172863   6.425   3.287   5.922  0.9240  1.3367 -0.4516
17124TIP3    H272864   6.306   3.348   5.850  0.1091  0.5185  0.1823
17125TIP3   OH272865   2.439   0.523  14.423 -0.3181  0.0947  0.0672
17125TIP3    H172866   2.381   0.459  14.382 -1.9609  1.0876  0.7226
17125TIP3    H272867   2.385   0.564  14.491  1.2305  0.9480  0.8319
17126TIP3   OH272868   4.569   0.564  17.129 -0.7621  0.4654 -0.2754
17126TIP3    H172869   4.511   0.510  17.182  1.6833 -0.8967  1.2083
17126TIP3    H272870   4.561   0.652  17.166  0.1426 -0.2678  1.7946
17127TIP3   OH272871   5.396   2.931   0.229 -0.0779  0.0654  0.0317
17127TIP3    H172872   5.479   2.882   0.236 -0.1848 -0.6174 -2.4276
17127TIP3    H272873   5.412   3.012   0.276  1.6207 -0.5308  0.5625
17128TIP3   OH272874   3.069   2.935   1.306  0.1125  0.3991  0.5911
17128TIP3    H172875   2.990   2.974   1.267  0.6013 -0.1176 -0.9700
17128TIP3    H272876   3.038   2.897   1.388 -1.4282 -0.3855 -0.3013
17129TIP3   OH272877   2.994   1.904   6.433 -0.2217 -0.2022  0.1059
17129TIP3    H172878   3.000   1.829   6.374 -0.5091  1.4579 -2.1370
17129TIP3    H272879   3.084   1.936   6.440 -0.3084  0.0651 -0.0286
17130TIP3   OH272880   0.711   3.087  13.183 -0.2116  0.3377 -0.4072
17130TIP3    H172881   0.801   3.110  13.161 -0.3635  0.4337 -0.9221
17130TIP3    H272882   0.713   3.074  13.278  1.1156 -3.0217 -0.7447
17131TIP3   OH272883   1.788   3.575  11.061  0.0185  0.3348  0.0402
17131TIP3    H172884   1.816   3.652  11.012 -3.2438  0.9630 -1.0516
17131TIP3    H272885   1.716   3.606  11.116  0.6473 -1.3249  1.9465
17132TIP3   OH272886   0.677   2.655   2.848 -0.4790 -0.4126 -0.9199
17132TIP3    H172887   0.628   2.575   2.868  0.3291 -1.1524 -1.8229
17132TIP3    H272888   0.750   2.626   2.793  1.1401  0.6112  0.5659
17133TIP3   OH272889   1.110   3.943  12.004 -0.4757  0.4943 -0.5295
17133TIP3    H172890   1.160   3.958  11.924  0.2935  0.0559 -0.1428
17133TIP3    H272891   1.069   3.857  11.992  1.4030 -0.5936  0.4039
17134TIP3   OH272892   1.398   2.675   5.218  0.3337 -0.1083  0.1431
17134TIP3    H172893   1.430   2.714   5.137 -0.1953 -1.8847 -0.9823
17134TIP3    H272894   1.303   2.666   5.205  0.3724 -1.2889  0.5572
17135TIP3   OH272895   0.542   5.000  16.083  0.1349  0.1229  0.0962
17135TIP3    H172896   0.593   5.064  16.033 -0.1483  0.7278  0.5716
17135TIP3    H272897   0.488   5.053  16.142 -0.7045 -0.5209 -0.0709
17136TIP3   OH272898   1.650   0.870  14.514  0.1073  0.2640  0.1047
17136TIP3    H172899   1.560   0.852  14.543  0.7717 -0.1120  2.0784
17136TIP3    H272900   1.644   0.874  14.418 -1.9893  0.1787  0.1899
17137TIP3   OH272901   0.151   4.017   5.220  0.1998  0.2652  0.4186
17137TIP3    H172902   0.098   4.093   5.243  0.4739  0.0852  1.7412
17137TIP3    H272903   0.215   4.050   5.156 -0.6714  0.7671 -0.2107
17138TIP3   OH272904   4.792   3.663  12.464  0.0798  0.2533  0.0581
17138TIP3    H172905   4.809   3.578  12.503  1.0599  0.2424 -0.3590
17138TIP3    H272906   4.703   3.686  12.492  0.7444  0.2617  2.2966
17139TIP3   OH272907   2.854   5.770  11.808  0.1551  0.4059  0.0435
17139TIP3    H172908   2.883   5.680  11.794 -0.2969  0.3544 -0.6038
17139TIP3    H272909   2.876   5.788  11.900  1.4084  0.0819 -0.1685
17140TIP3   OH272910   6.671   3.377   2.615 -0.3286  0.2572  0.2735
17140TIP3    H172911   6.669   3.288   2.580 -1.1029  0.9976 -1.7417
17140TIP3    H272912   6.593   3.383   2.670 -0.2269 -0.3285  0.4836
17141TIP3   OH272913   5.598   4.760  14.678  0.0890  0.0256  0.3056
17141TIP3    H172914   5.685   4.773  14.715  0.6289 -2.6963  0.1852
17141TIP3    H272915   5.541   4.817  14.729  1.9629  2.2541  0.0601
17142TIP3   OH272916   0.333   0.512  16.145 -0.2480  0.1718 -0.1561
17142TIP3    H172917   0.394   0.459  16.195  0.5239  0.6278 -0.6044
17142TIP3    H272918   0.247   0.473  16.163  0.3291 -1.4452 -0.7266
17143TIP3   OH272919   5.105   4.038   5.609  0.5985 -0.4618 -0.4078
17143TIP3    H172920   5.099   3.973   5.538 -1.1614  0.6648 -1.3492
17143TIP3    H272921   5.132   3.987   5.685 -0.4689 -2.2793 -1.1751
17144TIP3   OH272922   4.535   3.209   5.190  0.2039 -0.0592  0.3039
17144TIP3    H172923   4.611   3.259   5.162 -0.5825  0.9646 -0.0662
17144TIP3    H272924   4.549   3.121   5.153  0.2321  0.6676 -1.5188
17145TIP3   OH272925   6.404   3.919   1.102  0.2004 -0.2653  0.2843
17145TIP3    H172926   6.378   4.009   1.121  0.9146  0.0116 -0.0248
17145TIP3    H272927   6.322   3.875   1.079 -0.4026 -0.1248  2.0331
17146TIP3   OH272928   2.628   1.415  13.367  0.2400 -0.4183  0.6863
17146TIP3    H172929   2.587   1.421  13.281  0.7425  0.8113  0.5232
17146TIP3    H272930   2.631   1.321  13.385 -0.9274 -0.6285 -0.1169
17147TIP3   OH272931   1.368   3.303   3.401 -0.0288  0.0189 -0.0346
17147TIP3    H172932   1.281   3.329   3.430 -0.6872 -0.9191 -1.0639
17147TIP3    H272933   1.414   3.279   3.481 -0.6861  0.6000  0.5339
17148TIP3   OH272934   5.193   5.262   4.490 -0.0482 -0.1063  0.8798
17148TIP3    H172935   5.288   5.255   4.480 -0.2254 -0.1243 -1.2703
17148TIP3    H272936   5.157   5.205   4.422 -1.6047  0.4442  1.1949
17149TIP3   OH272937   4.520   1.572  16.974  0.5003  0.1821  0.2919
17149TIP3    H172938   4.577   1.573  16.897 -0.6535  1.3817 -0.6020
17149TIP3    H272939   4.571   1.616  17.042  1.2139 -0.1282 -0.0306
17150TIP3   OH272940   3.562   3.032   5.248  0.1681  0.8320  0.0473
17150TIP3    H172941   3.570   2.978   5.170  0.0823  0.8133  0.0522
17150TIP3    H272942   3.483   3.000   5.292 -0.2775  1.4141 -0.3088
17151TIP3   OH272943   1.213   5.324  14.826  0.5889 -0.0431  0.5999
17151TIP3    H172944   1.169   5.386  14.768  1.3491  0.2969  0.3812
17151TIP3    H272945   1.153   5.249  14.830 -0.1121  0.4975  0.4870
17152TIP3   OH272946   0.002   4.828  11.445  0.4489  0.1994 -0.7742
17152TIP3    H172947   0.051   4.767  11.389 -0.9728 -0.1984 -1.6313
17152TIP3    H272948  -0.079   4.845  11.397  0.6398  2.5039 -0.3763
17153TIP3   OH272949   5.684   6.642  13.264 -0.2053  0.0407  0.1444
17153TIP3    H172950   5.652   6.554  13.281 -0.9498  0.4839  1.1160
17153TIP3    H272951   5.605   6.696  13.257  0.2694  0.8404  0.7994
17154TIP3   OH272952   5.827   6.657  12.093  0.1529 -0.1672  0.2385
17154TIP3    H172953   5.748   6.679  12.044  0.5470 -0.0867 -0.3654
17154TIP3    H272954   5.797   6.651  12.184 -0.3613  0.8604  0.1546
17155TIP3   OH272955   0.149   2.537  13.840 -0.4957  0.2515 -0.4398
17155TIP3    H172956   0.242   2.518  13.852 -0.5748 -1.0080 -1.6363
17155TIP3    H272957   0.148   2.622  13.796  0.0852  0.3043 -0.3609
17156TIP3   OH272958   2.699   2.356  14.281 -0.3135  0.2062 -0.3060
17156TIP3    H172959   2.738   2.337  14.367  1.5653 -0.2821 -1.2013
17156TIP3    H272960   2.622   2.409  14.301 -0.1179 -0.1736  1.6981
17157TIP3   OH272961   3.887   2.605   3.828  0.2768 -0.0659  0.1744
17157TIP3    H172962   3.836   2.608   3.747 -1.4909 -0.8193  1.2117
17157TIP3    H272963   3.830   2.562   3.891  1.4643  0.8572  1.9572
17158TIP3   OH272964   0.590   1.508  16.652  0.5570 -0.8963  0.1023
17158TIP3    H172965   0.613   1.601  16.659 -1.8852 -0.1381 -0.8359
17158TIP3    H272966   0.669   1.462  16.679  1.7317  1.4443  0.9822
17159TIP3   OH272967   3.405   5.854  14.678 -0.1218  0.4528  0.5520
17159TIP3    H172968   3.407   5.929  14.619 -2.2039  0.1258 -0.0058
17159TIP3    H272969   3.345   5.880  14.747  0.4781 -0.0789  1.2910
17160TIP3   OH272970   6.682   4.515  12.432  0.2926  0.4612  0.0019
17160TIP3    H172971   6.747   4.586  12.436  0.5231  0.4556 -2.2982
17160TIP3    H272972   6.603   4.553  12.472  0.9291  1.3923  0.4108
17161TIP3   OH272973   0.465   1.190  17.094 -0.0392 -0.3489 -0.5065
17161TIP3    H172974   0.420   1.212  17.175  0.5625 -0.1231 -0.2269
17161TIP3    H272975   0.441   1.099  17.077  1.0584 -0.9161  0.7682
17162TIP3   OH272976   6.453   5.558   6.084  0.0195  0.2145 -1.0697
17162TIP3    H172977   6.526   5.498   6.067  0.3658  0.1987  0.3402
17162TIP3    H272978   6.397   5.510   6.145  0.1301  1.1730 -0.1950
17163TIP3   OH272979   3.246   2.935   3.429  0.1854 -0.0230  0.3053
17163TIP3    H172980   3.267   2.897   3.514  0.3526 -0.3346  0.1249
17163TIP3    H272981   3.158   2.903   3.410  0.6205 -0.9463 -0.1955
17164TIP3   OH272982   4.467   0.757  11.950  0.5083 -0.1520  0.1492
17164TIP3    H172983   4.545   0.737  11.900 -0.4193  1.1313 -1.9356
17164TIP3    H272984   4.441   0.673  11.988  1.0360 -1.2980 -1.8842
17165TIP3   OH272985   5.706   4.590   5.313  0.0402  0.1147 -0.5038
17165TIP3    H172986   5.662   4.614   5.231 -2.0158  0.4593  0.6419
17165TIP3    H272987   5.676   4.501   5.331  0.7051 -0.0630 -0.2561
17166TIP3   OH272988   5.256   5.083   2.322  0.4165 -0.4281 -0.3506
17166TIP3    H172989   5.221   5.082   2.233 -0.0354 -0.5925 -0.1710
17166TIP3    H272990   5.350   5.068   2.310  0.3516 -0.5002 -0.7967
17167TIP3   OH272991   2.454   4.997  14.723 -0.2384  0.2461 -0.1499
17167TIP3    H172992   2.378   4.988  14.780 -0.7073 -0.3098 -0.8404
17167TIP3    H272993   2.425   4.963  14.639  0.2897  1.4961 -0.8631
17168TIP3   OH272994   1.862   0.245   2.431 -0.4482 -0.5259  0.4017
17168TIP3    H172995   1.892   0.324   2.387 -1.1295  0.8625  2.3098
17168TIP3    H272996   1.779   0.223   2.388 -2.0103  1.8250  1.9915
17169TIP3   OH272997   2.057   0.705   1.267  0.2343  0.1672  0.4420
17169TIP3    H172998   2.128   0.733   1.209 -1.4838 -0.7508 -2.3001
17169TIP3    H272999   2.023   0.786   1.304  0.2763  0.9975 -1.2524
17170TIP3   OH273000   3.445   1.692   0.557 -0.2342 -0.1144  0.0074
17170TIP3    H173001   3.416   1.710   0.647 -1.7562  0.2254 -0.5356
17170TIP3    H273002   3.517   1.629   0.568 -1.1777 -1.0180  1.4149
17171TIP3   OH273003   1.804   4.962  10.729  0.2104 -0.1655  0.2312
17171TIP3    H173004   1.872   4.977  10.795  0.4066 -0.5178  0.1139
17171TIP3    H273005   1.814   4.870  10.705 -0.3347 -0.2265  0.2360
17172TIP3   OH273006   6.778   6.262  10.200 -0.4414  0.2394  0.2377
17172TIP3    H173007   6.753   6.284  10.289 -3.4657  0.8249 -0.6359
17172TIP3    H273008   6.765   6.343  10.150 -0.4985 -0.5152 -1.0230
17173TIP3   OH273009   2.089   3.241   2.673 -0.1885  0.0308 -0.5157
17173TIP3    H173010   2.162   3.283   2.627 -1.4592  0.7083 -1.9904
17173TIP3    H273011   2.025   3.311   2.684 -0.7492 -0.6222  0.5281
17174TIP3   OH273012   3.692   5.907  11.871 -0.4840 -0.5309 -0.4910
17174TIP3    H173013   3.735   5.965  11.934 -1.6825  2.0546 -1.9114
17174TIP3    H273014   3.599   5.928  11.879 -0.8439 -1.4496 -1.8872
17175TIP3   OH273015   6.259   3.151   4.317 -0.4019  0.0133 -0.2837
17175TIP3    H173016   6.347   3.169   4.351 -0.4427  0.3312 -0.3429
17175TIP3    H273017   6.209   3.230   4.337 -0.4993  0.0986 -0.8335
17176TIP3   OH273018   5.850   1.644  13.128  0.1379  0.0076  0.3414
17176TIP3    H173019   5.773   1.658  13.182  1.3984 -0.6419  2.4110
17176TIP3    H273020   5.885   1.732  13.113  1.8030  0.1152  3.8310
17177TIP3   OH273021   6.204   3.912  11.765 -0.3637  0.2422 -0.2585
17177TIP3    H173022   6.246   3.938  11.683  0.3085  1.4927  0.4399
17177TIP3    H273023   6.272   3.925  11.832 -1.7634  2.2670  0.8955
17178TIP3   OH273024   3.901   6.326   2.518 -0.4164 -0.4524  0.2855
17178TIP3    H173025   3.812   6.291   2.508 -0.0585 -1.3958  0.2474
17178TIP3    H273026   3.889   6.416   2.546 -1.4152  0.0475 -1.6190
17179TIP3   OH273027   5.645   1.208  14.541 -0.2695  0.1964 -0.3062
17179TIP3    H173028   5.566   1.154  14.532  0.1472 -0.5718  0.4918
17179TIP3    H273029   5.633   1.278  14.477  0.1406 -1.9869 -2.9502
17180TIP3   OH273030   2.195   2.523  16.120  0.5462  0.3989  0.5881
17180TIP3    H173031   2.287   2.513  16.144  0.5553  0.0247  0.3946
17180TIP3    H273032   2.148   2.513  16.203  0.6081 -0.4847  0.5280
17181TIP3   OH273033   4.176   4.354   4.359  0.8491 -0.2288  0.1574
17181TIP3    H173034   4.166   4.285   4.294  1.4684  0.0860 -0.2735
17181TIP3    H273035   4.152   4.312   4.442 -1.2358 -0.2894 -0.4086
17182TIP3   OH273036   2.820   0.716  11.532  0.3915  0.3964 -0.3794
17182TIP3    H173037   2.898   0.748  11.486  1.6911 -0.1766  1.3165
17182TIP3    H273038   2.844   0.628  11.561 -1.5660 -0.4987 -1.3176
17183TIP3   OH273039   0.892   2.228  13.655 -0.0886 -0.3490 -0.4693
17183TIP3    H173040   0.863   2.312  13.621 -0.3456 -1.2077 -2.5193
17183TIP3    H273041   0.980   2.216  13.620 -0.5911 -1.5308 -1.4339
17184TIP3   OH273042   2.841   3.477  15.154 -0.4670 -0.1490 -0.0632
17184TIP3    H173043   2.760   3.502  15.110  0.9670  1.2885 -2.0455
17184TIP3    H273044   2.910   3.502  15.093  1.5288 -0.4784  1.9493
17185TIP3   OH273045   6.562   1.513   4.535  0.4192 -0.4213  0.3721
17185TIP3    H173046   6.644   1.489   4.579 -0.8482 -2.1319  1.9870
17185TIP3    H273047   6.521   1.429   4.514 -0.2964  0.3872 -1.7286
17186TIP3   OH273048   0.365   2.302  17.135 -0.4480 -0.4121 -0.2592
17186TIP3    H173049   0.296   2.331  17.194 -0.5034 -0.3263 -0.3660
17186TIP3    H273050   0.403   2.383  17.101  0.3513 -0.4379  0.5442
17187TIP3   OH273051   1.433   6.318   3.156 -0.0195  0.2725  0.2001
17187TIP3    H173052   1.387   6.358   3.229  0.5268  0.0863  0.6533
17187TIP3    H273053   1.401   6.364   3.079  0.0908  1.1161  0.6470
17188TIP3   OH273054   2.982   3.208  16.701 -1.0917  0.6846 -0.9444
17188TIP3    H173055   3.058   3.263  16.719 -1.3259  0.8137 -0.3487
17188TIP3    H273056   2.926   3.262  16.645 -1.4088  1.1253 -0.2089
17189TIP3   OH273057   0.527   3.956  16.816  0.1355  0.4308 -0.3056
17189TIP3    H173058   0.480   3.945  16.734  1.6692 -0.4693 -1.1146
17189TIP3    H273059   0.620   3.946  16.792  0.6545  0.6621  1.4498
17190TIP3   OH273060   4.089   0.508   5.558 -0.6506 -0.2713 -0.0063
17190TIP3    H173061   4.020   0.573   5.566 -0.4368 -0.2384  2.2310
17190TIP3    H273062   4.170   0.557   5.571 -0.4675 -0.8641  1.3221
17191TIP3   OH273063   5.081   5.881  13.672 -0.3840 -0.1030 -0.1434
17191TIP3    H173064   5.142   5.917  13.608 -0.8926  1.5281  0.2431
17191TIP3    H273065   5.108   5.790  13.682  1.8741  0.5092 -0.0975
17192TIP3   OH273066   2.740   6.425  15.275  0.8211  0.2557 -0.1813
17192TIP3    H173067   2.813   6.372  15.244  0.1095 -0.5341 -0.5463
17192TIP3    H273068   2.743   6.505  15.222  2.3139  0.9300  0.8461
17193TIP3   OH273069   4.234   5.063  14.651 -0.1669  0.3858  0.6163
17193TIP3    H173070   4.250   5.008  14.727 -0.1649 -0.5304 -0.0243
17193TIP3    H273071   4.247   5.005  14.576  1.4391  1.6423 -0.1569
17194TIP3   OH273072   5.535   0.613  16.600 -0.4016  0.8054  0.3897
17194TIP3    H173073   5.450   0.573  16.582 -0.4187  0.9547  0.1248
17194TIP3    H273074   5.590   0.540  16.627 -0.3915  0.5700 -0.2361
17195TIP3   OH273075   5.077   6.708   5.957  0.5428  0.7172 -0.2227
17195TIP3    H173076   5.024   6.758   5.894 -3.1971 -1.9537  0.4643
17195TIP3    H273077   5.015   6.684   6.026  2.6278 -2.8221  0.6359
17196TIP3   OH273078   2.849   5.644   3.877  0.4211 -0.3562  0.4793
17196TIP3    H173079   2.871   5.737   3.873  2.2169 -0.7722 -0.4541
17196TIP3    H273080   2.874   5.610   3.792  1.5452 -2.0356  1.4143
17197TIP3   OH273081   0.892   3.870   2.056  0.1827  0.1261 -0.2009
17197TIP3    H173082   0.832   3.843   2.125 -0.6257 -0.4223 -1.1012
17197TIP3    H273083   0.900   3.965   2.067 -0.2328  0.0961  0.4025
17198TIP3   OH273084   2.902   3.205  15.773 -0.0760  0.2876  0.4826
17198TIP3    H173085   2.919   3.169  15.686  0.7142  0.8197  0.3984
17198TIP3    H273086   2.970   3.272  15.784  0.6231 -0.6111  2.0017
17199TIP3   OH273087   0.518   1.238  10.437 -0.4124  0.0138 -0.8866
17199TIP3    H173088   0.529   1.168  10.502 -0.2095  0.7495 -0.0908
17199TIP3    H273089   0.599   1.235  10.386 -0.4355 -0.3818 -0.9018
17200TIP3   OH273090   1.924   4.577  16.717  0.1947  0.1598  0.4882
17200TIP3    H173091   1.938   4.587  16.811 -1.5415  1.7538  0.6407
17200TIP3    H273092   1.849   4.517  16.710 -0.5023  1.0352  0.2082
17201TIP3   OH273093   2.151   1.240  14.473 -0.0893  0.3197  0.1955
17201TIP3    H173094   2.165   1.240  14.568 -0.7677 -2.3438  0.3945
17201TIP3    H273095   2.088   1.170  14.459 -0.0712  0.7159 -2.2420
17202TIP3   OH273096   2.387   4.692  12.715 -0.0703 -0.2582 -0.1247
17202TIP3    H173097   2.456   4.755  12.699 -1.0050  0.9922  0.5678
17202TIP3    H273098   2.398   4.667  12.807 -1.4922  1.2188  0.4910
17203TIP3   OH273099   3.111   4.598  15.486 -0.4415  0.0707 -0.1244
17203TIP3    H173100   3.143   4.670  15.431  1.9058 -1.8700 -1.4780
17203TIP3    H273101   3.067   4.539  15.425  1.2308 -1.5727  0.1767
17204TIP3   OH273102   5.847   3.943  15.513  0.4039 -0.3617  0.1812
17204TIP3    H173103   5.827   4.028  15.552 -1.4542 -0.5142 -0.3358
17204TIP3    H273104   5.940   3.948  15.491 -0.0928  2.4492 -1.9497
17205TIP3   OH273105   2.530   5.634  15.252  0.0080  0.2833 -0.0871
17205TIP3    H173106   2.479   5.710  15.280 -0.9459 -0.9323  1.6204
17205TIP3    H273107   2.481   5.599  15.177 -2.6133 -1.6950  2.3733
17206TIP3   OH273108   2.035   1.846   5.838  0.2361  0.6639  0.6321
17206TIP3    H173109   2.056   1.861   5.930 -0.9683  1.9968  0.7255
17206TIP3    H273110   2.047   1.932   5.796  1.6143 -0.1059 -0.6543
17207TIP3   OH273111   1.363   6.357  15.378 -0.4770 -0.0765 -0.2444
17207TIP3    H173112   1.296   6.394  15.321  0.1961 -0.3110 -1.2268
17207TIP3    H273113   1.330   6.270  15.401 -0.6083 -0.1109 -0.5576
17208TIP3   OH273114   4.853   4.919  11.176 -0.3474  0.0259 -0.1393
17208TIP3    H173115   4.893   4.889  11.094  1.3710  0.8052  0.3765
17208TIP3    H273116   4.784   4.855  11.194 -0.2795 -0.5666 -1.8026
17209TIP3   OH273117   1.721   5.343   4.045 -0.1470 -0.3500  0.0827
17209TIP3    H173118   1.683   5.300   3.968 -1.7315 -1.4191  1.3973
17209TIP3    H273119   1.678   5.429   4.046  0.4211 -0.0450 -0.6026
17210TIP3   OH273120   2.403   5.079   2.598  0.2157  0.2769  0.3073
17210TIP3    H173121   2.417   5.128   2.517 -1.3596 -0.4575 -0.4497
17210TIP3    H273122   2.339   5.130   2.646 -0.2182 -0.2088  0.2504
17211TIP3   OH273123   2.343   0.388  16.947 -0.1299  0.3640 -0.4234
17211TIP3    H173124   2.413   0.352  17.001 -0.3228  0.6190  0.0034
17211TIP3    H273125   2.280   0.316  16.939 -1.7957  1.3365  2.6482
17212TIP3   OH273126   0.068   0.634  12.361 -0.1968 -0.3883 -0.4708
17212TIP3    H173127   0.094   0.657  12.450 -1.3475  0.6800 -0.3858
17212TIP3    H273128   0.126   0.687  12.306 -1.7714  1.6583 -0.2840
17213TIP3   OH273129   0.622   4.385   4.615  0.5730 -0.0649 -0.0668
17213TIP3    H173130   0.659   4.301   4.590 -0.6651 -0.8308  0.5678
17213TIP3    H273131   0.535   4.387   4.574  0.4568  0.7611  0.1874
17214TIP3   OH273132   0.980   6.326   0.220 -0.3041  0.5386 -0.2752
17214TIP3    H173133   0.913   6.274   0.264 -1.3014  1.3376 -0.8089
17214TIP3    H273134   1.050   6.264   0.200 -0.9008 -0.3207  0.2480
17215TIP3   OH273135   2.242   6.328  12.544 -0.0895  0.5551 -0.0039
17215TIP3    H173136   2.178   6.334  12.615 -0.3659 -0.4287 -0.1567
17215TIP3    H273137   2.280   6.241  12.553 -0.2390  0.3486 -1.1476
17216TIP3   OH273138   4.195   1.817   5.286  0.2599  0.4687 -0.0827
17216TIP3    H173139   4.214   1.897   5.335  2.2595  0.8069 -1.3143
17216TIP3    H273140   4.103   1.798   5.306 -0.4264  3.3380 -0.1338
17217TIP3   OH273141   0.065   6.148  13.613 -0.1988 -0.0015 -0.7079
17217TIP3    H173142   0.118   6.068  13.611 -2.2269 -1.4290 -0.9630
17217TIP3    H273143   0.085   6.192  13.531  1.1922 -0.0705 -0.4180
17218TIP3   OH273144   1.291   1.407  16.684  0.4577 -0.0041 -0.4982
17218TIP3    H173145   1.368   1.462  16.696  0.4677  0.1342 -1.1818
17218TIP3    H273146   1.260   1.427  16.595 -0.2485 -0.1998 -0.3065
17219TIP3   OH273147   1.452   2.367   5.996 -0.3907  0.5848  0.5500
17219TIP3    H173148   1.405   2.409   6.068  0.2806  0.8717  0.8310
17219TIP3    H273149   1.531   2.332   6.037 -1.3910 -1.8793  0.5384
17220TIP3   OH273150   1.723   5.321   5.767 -0.0663 -0.2275  0.5306
17220TIP3    H173151   1.653   5.328   5.833 -1.9732 -1.6671 -1.2060
17220TIP3    H273152   1.687   5.365   5.690  1.0637 -0.7432 -0.3125
17221TIP3   OH273153   0.628   0.670   6.154 -0.3197 -0.2299 -0.2166
17221TIP3    H173154   0.540   0.655   6.118 -0.8250  0.2094  0.8075
17221TIP3    H273155   0.652   0.586   6.193  0.0018 -0.5437 -1.0539
17222TIP3   OH273156   4.233   5.674   0.787 -0.3580  0.4311  0.2758
17222TIP3    H173157   4.241   5.726   0.707  3.1592 -0.2921 -0.0097
17222TIP3    H273158   4.268   5.731   0.856 -1.1201  0.1784  0.8848
17223TIP3   OH273159   6.159   3.744  14.047 -0.1915 -0.2577 -0.0738
17223TIP3    H173160   6.211   3.692  13.986 -0.1434  1.2120 -1.3537
17223TIP3    H273161   6.221   3.771  14.115 -0.3666 -2.3639  0.9872
17224TIP3   OH273162   5.181   6.638  12.658 -0.1382  0.0523  0.2734
17224TIP3    H173163   5.181   6.715  12.716  0.4748  0.4961 -0.3032
17224TIP3    H273164   5.088   6.619  12.644 -0.2939  0.2954  0.9278
17225TIP3   OH273165   6.328   3.674   3.488  0.1574  0.3967  0.0750
17225TIP3    H173166   6.413   3.692   3.448  0.9347 -0.5246  1.2398
17225TIP3    H273167   6.332   3.718   3.573 -0.0198 -0.7336  0.6838
17226TIP3   OH273168   3.571   4.071  13.921  0.1853  0.3801  0.3260
17226TIP3    H173169   3.510   4.121  13.867 -1.0429  0.5600  1.8146
17226TIP3    H273170   3.586   3.990  13.872 -0.0031  0.9946 -0.7802
17227TIP3   OH273171   0.423   5.295   2.575  0.2369 -0.1860  0.1695
17227TIP3    H173172   0.338   5.336   2.562  0.8419  1.0521 -0.0430
17227TIP3    H273173   0.405   5.216   2.627 -0.9603  0.3481  0.5815
17228TIP3   OH273174   2.431   3.258   4.557  0.1987 -0.0123  0.5299
17228TIP3    H173175   2.397   3.335   4.601 -1.4320  0.3156 -1.1721
17228TIP3    H273176   2.509   3.289   4.511  0.8183  0.0784  1.6276
17229TIP3   OH273177   6.417   3.595  16.007 -0.0703 -0.3525 -0.0479
17229TIP3    H173178   6.355   3.619  15.939 -0.0019 -2.1205 -0.7704
17229TIP3    H273179   6.393   3.651  16.082 -1.1948  0.4383 -0.9677
17230TIP3   OH273180   0.909   5.910  11.689 -0.2918 -0.6329 -0.1197
17230TIP3    H173181   0.945   5.852  11.756 -0.9244 -0.4322  0.4060
17230TIP3    H273182   0.927   5.998  11.721  0.7228 -0.5138 -0.9467
17231TIP3   OH273183   5.312   6.322  15.969 -0.0279  0.5976 -0.4717
17231TIP3    H173184   5.259   6.395  15.937 -0.5635  0.5648  0.3266
17231TIP3    H273185   5.394   6.329  15.920 -0.2699  1.4214 -0.7713
17232TIP3   OH273186   5.614   0.002   4.937 -0.7395 -0.1252 -0.1165
17232TIP3    H173187   5.612   0.050   5.020 -1.3783 -0.2603 -0.0514
17232TIP3    H273188   5.644  -0.086   4.961  2.7487  0.7738 -0.5317
17233TIP3   OH273189   5.307   0.222   4.885 -0.7405 -0.4022 -0.3653
17233TIP3    H173190   5.367   0.296   4.879 -0.6030 -0.5852 -1.4053
17233TIP3    H273191   5.359   0.146   4.861 -1.2154 -0.6566 -0.6074
17234TIP3   OH273192   0.949   1.858  12.964  0.2196  0.0125 -0.3156
17234TIP3    H173193   1.003   1.878  12.887  1.1181 -0.2636  0.2159
17234TIP3    H273194   1.012   1.821  13.027  0.3049  3.6639  2.0090
17235TIP3   OH273195   1.884   5.046   1.802  0.6030 -0.4579 -0.1567
17235TIP3    H173196   1.802   5.004   1.777  0.1250  0.1595  0.3389
17235TIP3    H273197   1.924   4.985   1.864  1.7152 -1.9170 -2.1791
17236TIP3   OH273198   6.238   0.963   6.156  0.5100 -0.0420  0.2884
17236TIP3    H173199   6.299   0.890   6.148 -0.3136 -0.7657  0.4732
17236TIP3    H273200   6.151   0.922   6.157 -0.4199  1.1555 -4.7795
17237TIP3   OH273201   3.990   1.822   4.628  0.2359 -0.2725  1.0512
17237TIP3    H173202   3.989   1.868   4.544  0.3936 -0.7354  0.7903
17237TIP3    H273203   4.026   1.736   4.607 -1.1586 -0.9426  1.3105
17238TIP3   OH273204   3.721   0.668   5.378  0.0957  0.1082 -0.3409
17238TIP3    H173205   3.726   0.573   5.365 -0.6334 -0.1480  1.0725
17238TIP3    H273206   3.637   0.682   5.421  0.8496  1.2305  0.8387
17239TIP3   OH273207   4.893   2.813   5.466  0.2613 -0.3390 -0.2330
17239TIP3    H173208   4.910   2.907   5.458  4.0135 -0.7518  0.8196
17239TIP3    H273209   4.804   2.807   5.500  0.2395  2.8567  0.6002
17240TIP3   OH273210   6.646   4.073  12.637  0.6553 -0.2060 -0.2358
17240TIP3    H173211   6.722   4.030  12.597  1.2341  0.4487  0.1372
17240TIP3    H273212   6.613   4.131  12.568  1.2290  0.4025 -0.0058
17241TIP3   OH273213   1.469   4.778   0.269  0.5335  0.0990  0.0524
17241TIP3    H173214   1.522   4.754   0.346 -0.9061  0.3272  1.1608
17241TIP3    H273215   1.443   4.869   0.286 -1.3434 -0.4405  0.2365
17242TIP3   OH273216   5.346   2.576   3.291  0.2773  0.1252  0.1376
17242TIP3    H173217   5.406   2.546   3.360 -0.5783 -3.4073 -0.4492
17242TIP3    H273218   5.277   2.509   3.288 -0.7385  1.1256 -2.9117
17243TIP3   OH273219   4.951   4.567   1.282  0.7396 -0.3929  0.3003
17243TIP3    H173220   4.928   4.496   1.222 -2.5476  1.1154 -0.4496
17243TIP3    H273221   4.902   4.546   1.362  0.8723  0.3178  0.5701
17244TIP3   OH273222   1.251   2.959   5.935 -0.0115 -0.4455 -0.3023
17244TIP3    H173223   1.300   3.006   6.002  1.5085 -2.1727 -0.1166
17244TIP3    H273224   1.206   2.888   5.982  0.1578 -0.9893 -0.9311
17245TIP3   OH273225   3.700   4.793   4.152 -0.1483 -0.5298 -0.5395
17245TIP3    H173226   3.744   4.877   4.163 -0.6085 -0.3231 -0.2043
17245TIP3    H273227   3.621   4.813   4.101 -1.8713 -0.1660  2.0503
17246TIP3   OH273228   0.466   4.182   6.286  0.4018 -0.3587 -0.1433
17246TIP3    H173229   0.518   4.258   6.260 -0.3301  0.2363  0.0930
17246TIP3    H273230   0.383   4.193   6.241  0.2110 -0.9121  0.0615
17247TIP3   OH273231   2.079   5.872  16.402  0.2595  0.5644 -0.0743
17247TIP3    H173232   2.064   5.906  16.313 -0.0488 -0.3047 -0.3650
17247TIP3    H273233   2.155   5.920  16.434  0.9119  0.2722 -1.1398
17248TIP3   OH273234   6.026   2.351  16.595  0.1715 -0.2209  0.1424
17248TIP3    H173235   5.945   2.387  16.630 -0.4748 -1.5264  0.0506
17248TIP3    H273236   6.087   2.425  16.593 -1.0393  0.7971  0.1163
17249TIP3   OH273237   6.526   3.203  16.751  0.1018 -0.5592  0.3286
17249TIP3    H173238   6.496   3.190  16.661 -0.3593 -2.3445  0.7027
17249TIP3    H273239   6.601   3.144  16.760  0.0363 -0.5211  1.1642
17250TIP3   OH273240   2.713   5.409  10.710  0.2704  0.3103 -0.2784
17250TIP3    H173241   2.778   5.477  10.691 -0.2266  0.8251 -0.1642
17250TIP3    H273242   2.631   5.444  10.674  0.0909 -0.4135 -0.5898
17251TIP3   OH273243   3.159   1.383   1.043 -0.2671 -0.3735 -0.1886
17251TIP3    H173244   3.076   1.429   1.052 -0.8440 -1.5563  1.0069
17251TIP3    H273245   3.194   1.412   0.959 -2.1280 -0.2083 -0.9567
17252TIP3   OH273246   3.058   4.491   1.591 -0.7294 -0.0892  0.1817
17252TIP3    H173247   2.973   4.534   1.595 -1.4447 -1.3903 -0.2455
17252TIP3    H273248   3.042   4.403   1.627  0.1755 -0.7128 -0.8720
17253TIP3   OH273249   0.768   1.445   6.344 -0.0167 -0.3143  0.2142
17253TIP3    H173250   0.781   1.393   6.264 -1.0818 -0.7886  0.3409
17253TIP3    H273251   0.700   1.399   6.392  1.1833 -0.4956  1.8088
17254TIP3   OH273252   3.171   1.448  14.773  0.0049  0.1482 -0.1374
17254TIP3    H173253   3.216   1.527  14.805  0.9152 -0.3902 -0.0458
17254TIP3    H273254   3.116   1.421  14.846  1.6753 -0.7756  0.8401
17255TIP3   OH273255   0.814   3.632  16.295  0.8383 -0.5723 -0.6207
17255TIP3    H173256   0.745   3.576  16.258 -0.7002  0.4391  0.5831
17255TIP3    H273257   0.883   3.632  16.228 -1.4682  0.6012 -3.1998
17256TIP3   OH273258   2.220   3.711  15.554 -0.4739  0.2295 -0.1229
17256TIP3    H173259   2.239   3.619  15.537  0.0088  0.3682 -0.3263
17256TIP3    H273260   2.127   3.720  15.532 -0.5277 -0.2100 -0.0890
17257TIP3   OH273261   4.291   4.897  12.580 -0.6098 -0.2961  0.1779
17257TIP3    H173262   4.281   4.975  12.525  0.6101  0.8528  1.4952
17257TIP3    H273263   4.386   4.884  12.585 -0.7848 -2.2299 -0.4356
17258TIP3   OH273264   0.288   6.530  11.572 -0.5034  0.2893 -0.2311
17258TIP3    H173265   0.317   6.618  11.596  1.1952 -0.4375  0.5547
17258TIP3    H273266   0.193   6.535  11.571 -0.4197  2.2648 -0.7346
17259TIP3   OH273267   2.144   5.922   4.054 -0.2216 -0.0323  0.4777
17259TIP3    H173268   2.123   5.925   3.961 -0.1490  2.1575  0.4954
17259TIP3    H273269   2.238   5.909   4.057 -0.0793  0.8689  0.2032
17260TIP3   OH273270   4.975   3.147   4.752  0.3641  0.3580 -0.2019
17260TIP3    H173271   4.925   3.146   4.671  0.1250 -0.6375 -0.0510
17260TIP3    H273272   5.065   3.128   4.725  0.3539  0.4144 -0.2750
17261TIP3   OH273273   6.188   1.953   5.698  0.3256  0.3142  0.6689
17261TIP3    H173274   6.192   2.046   5.722 -1.6274  0.0506  2.2494
17261TIP3    H273275   6.246   1.909   5.760 -0.1718  0.3025  1.1387
17262TIP3   OH273276   0.158   6.289   3.184 -0.4788 -0.2278 -0.2921
17262TIP3    H173277   0.131   6.332   3.265 -0.1340  1.2653 -0.9253
17262TIP3    H273278   0.250   6.267   3.197 -1.3257 -3.5629  1.1347
17263TIP3   OH273279   1.648   6.587  11.898  0.6552  0.0143  0.4649
17263TIP3    H173280   1.615   6.608  11.810  0.6029 -1.8530  0.0080
17263TIP3    H273281   1.738   6.560  11.884  0.6433 -0.3028  0.9846
17264TIP3   OH273282   3.946   6.768  15.050 -0.5297  0.0176  0.6106
17264TIP3    H173283   3.914   6.800  14.965  0.4727  0.9424  0.5526
17264TIP3    H273284   3.997   6.691  15.029 -0.1057  0.3663  0.3350
17265TIP3   OH273285   4.579   4.290  14.042 -0.1421 -0.0579 -0.1048
17265TIP3    H173286   4.495   4.296  13.996  0.3897  0.4799 -1.0443
17265TIP3    H273287   4.634   4.356  13.999  0.5760  0.0157  0.9002
17266TIP3   OH273288   3.841   1.369   2.484 -0.0294  0.3722 -0.1743
17266TIP3    H173289   3.788   1.408   2.553  1.0546 -0.0709  0.9314
17266TIP3    H273290   3.911   1.432   2.468  1.7045 -0.9854  1.5924
17267TIP3   OH273291   3.481   3.746  15.398  0.5552  0.0346  0.0982
17267TIP3    H173292   3.508   3.837  15.408  1.7557 -0.4982  2.3456
17267TIP3    H273293   3.392   3.744  15.432  0.4673  0.3779 -0.1012
17268TIP3   OH273294   5.473   5.746  11.385 -0.0532  0.2649 -0.1651
17268TIP3    H173295   5.499   5.705  11.302 -1.3402 -1.1426  0.0827
17268TIP3    H273296   5.383   5.774  11.370 -0.6200 -0.8245  1.0119
17269TIP3   OH273297   4.267   1.036   0.690  0.4798  0.5259 -0.3900
17269TIP3    H173298   4.216   1.084   0.755 -0.2575  0.5218 -0.9524
17269TIP3    H273299   4.336   1.097   0.664 -0.2356  1.1533 -0.8354
17270TIP3   OH273300   6.265   3.643  15.793  0.1817 -0.5658  0.2650
17270TIP3    H173301   6.171   3.646  15.814 -0.0319 -0.2998 -0.6434
17270TIP3    H273302   6.274   3.707  15.722  1.0239 -0.7229  0.2312
17271TIP3   OH273303   5.511   1.990  15.939 -0.0616 -0.5274  0.1048
17271TIP3    H173304   5.586   1.976  15.997  2.4179  0.2865 -2.6773
17271TIP3    H273305   5.510   1.913  15.883 -1.0655 -0.3351 -0.1571
17272TIP3   OH273306   1.208   1.734   3.901  0.1465  0.3952 -0.0046
17272TIP3    H173307   1.127   1.689   3.925  0.3310 -1.1032 -1.9139
17272TIP3    H273308   1.278   1.674   3.927  0.5786  0.9526  0.1505
17273TIP3   OH273309   2.962   6.477  10.368 -0.3841 -0.0745 -0.3735
17273TIP3    H173310   3.020   6.479  10.444 -2.2155  1.2764  1.0727
17273TIP3    H273311   3.016   6.509  10.296  0.7429  0.9186  0.8609
17274TIP3   OH273312   0.563   2.264   3.048 -0.0948  1.0309 -0.0135
17274TIP3    H173313   0.509   2.191   3.016  1.3026  0.1373 -0.3898
17274TIP3    H273314   0.554   2.331   2.981 -0.0277  0.5373 -0.5225
17275TIP3   OH273315   4.132   0.634  13.339 -0.4373 -0.0972  0.2235
17275TIP3    H173316   4.047   0.678  13.345 -0.0918  0.7227 -0.7280
17275TIP3    H273317   4.196   0.700  13.364 -0.1362 -1.1329  2.4331
17276TIP3   OH273318   1.060   0.410   1.093 -0.0541 -0.2409 -0.0153
17276TIP3    H173319   1.005   0.357   1.150 -0.8346  1.7821  1.2452
17276TIP3    H273320   0.998   0.463   1.043  0.6818 -0.6962 -1.4586
17277TIP3   OH273321   5.958   2.603  11.121  0.1171 -0.3590 -0.2209
17277TIP3    H173322   5.891   2.560  11.067 -1.9745  0.6923  1.3894
17277TIP3    H273323   5.972   2.543  11.194  0.8576 -0.4867 -0.4526
17278TIP3   OH273324   4.486   4.890  15.128 -0.2671 -0.1394 -0.8698
17278TIP3    H173325   4.545   4.857  15.196 -1.1857 -1.9051 -0.8522
17278TIP3    H273326   4.539   4.950  15.076  0.6080  0.8357  1.0713
17279TIP3   OH273327   6.384   5.042   4.877  0.8603 -0.2091 -0.2342
17279TIP3    H173328   6.399   5.009   4.789  1.3472  0.0579 -0.2551
17279TIP3    H273329   6.295   5.015   4.898  0.6873 -0.1433 -0.8632
17280TIP3   OH273330   5.673   3.109   5.076 -0.3114 -0.1942  0.1096
17280TIP3    H173331   5.708   3.159   5.149  2.4449 -0.6621 -0.7670
17280TIP3    H273332   5.661   3.021   5.110  1.2443 -0.4823 -0.0152
17281TIP3   OH273333   2.738   5.347  15.916  0.4162  0.3188 -0.0273
17281TIP3    H173334   2.651   5.385  15.916  0.8993  1.4485  0.0325
17281TIP3    H273335   2.796   5.418  15.890  1.6375  0.4134  2.6084
17282TIP3   OH273336   2.479   1.461  16.323  0.1674 -0.3900 -0.0983
17282TIP3    H173337   2.570   1.430  16.321  0.0194 -0.9717 -2.9924
17282TIP3    H273338   2.427   1.381  16.317 -0.5588 -0.0385  1.2105
17283TIP3   OH273339   5.796   4.749  13.995  0.3886 -0.5526  0.5754
17283TIP3    H173340   5.849   4.720  14.070  0.3243 -1.1057  0.4079
17283TIP3    H273341   5.858   4.758  13.923  0.5071  0.3162  0.7818
17284TIP3   OH273342   3.910   3.946  16.504 -0.0381 -0.1459  0.3096
17284TIP3    H173343   3.904   3.965  16.410 -0.8200  0.6755  0.5207
17284TIP3    H273344   3.990   3.894  16.512  0.1355 -0.0750 -0.7887
17285TIP3   OH273345   1.909   4.198   6.336 -0.1359 -0.2442  0.1487
17285TIP3    H173346   1.944   4.127   6.390 -1.3392  0.2255  1.5964
17285TIP3    H273347   1.960   4.275   6.362  0.2351 -0.2909 -0.4234
17286TIP3   OH273348   3.326   6.371  13.296  0.2816 -0.2984 -0.4314
17286TIP3    H173349   3.261   6.403  13.233  1.7853  2.0189 -0.9301
17286TIP3    H273350   3.400   6.342  13.243  0.9094  0.0920  0.2064
17287TIP3   OH273351   3.409   3.020  13.289 -0.4508  0.2009 -0.2184
17287TIP3    H173352   3.430   2.948  13.229  0.3936 -0.1231  0.4556
17287TIP3    H273353   3.490   3.035  13.338 -1.7245 -1.0333  2.4315
17288TIP3   OH273354   5.142   0.451   2.873 -0.1062  0.1617  0.1323
17288TIP3    H173355   5.205   0.484   2.809 -1.4686 -1.4713 -2.2218
17288TIP3    H273356   5.188   0.380   2.918  0.7969  1.1843  0.8713
17289TIP3   OH273357   0.382   1.415   2.982  0.0509  0.8723  0.0256
17289TIP3    H173358   0.398   1.504   3.013  0.7287 -0.1651  3.0009
17289TIP3    H273359   0.295   1.394   3.014  0.1817  0.2252 -0.0293
17290TIP3   OH273360   5.317   0.331   0.471 -0.1084  0.2391  0.1851
17290TIP3    H173361   5.246   0.358   0.529  1.4370  1.3754  1.6736
17290TIP3    H273362   5.362   0.413   0.449  1.2394 -0.5130  0.0275
17291TIP3   OH273363   0.611   4.488  10.895  0.4504 -0.5239 -0.5056
17291TIP3    H173364   0.660   4.407  10.898  0.9332 -0.2677 -1.3873
17291TIP3    H273365   0.549   4.477  10.823 -3.9802 -2.6007  3.1097
17292TIP3   OH273366   2.798   3.676  16.509 -0.2776  0.0824 -0.0419
17292TIP3    H173367   2.735   3.748  16.499 -0.6407  0.0327  1.6819
17292TIP3    H273368   2.878   3.719  16.540 -1.1475 -0.3995  3.2336
17293TIP3   OH273369   1.760   4.103   3.414 -0.5324  0.1296 -0.0897
17293TIP3    H173370   1.756   4.074   3.505 -0.8811 -1.2232 -0.5150
17293TIP3    H273371   1.669   4.101   3.384 -0.3128 -0.3047 -0.7299
17294TIP3   OH273372   4.859   2.115   2.503  0.6197  0.1027  0.8298
17294TIP3    H173373   4.843   2.207   2.521 -0.8827 -0.4080  2.2909
17294TIP3    H273374   4.952   2.103   2.521  0.8813  1.3563  0.3997
17295TIP3   OH273375   1.281   4.796   5.600  0.2764  0.1687 -0.5091
17295TIP3    H173376   1.365   4.800   5.554  0.4524  0.4042 -0.1788
17295TIP3    H273377   1.217   4.824   5.535  0.5598  0.8145 -0.5277
17296TIP3   OH273378   0.248   4.577   4.360  0.0716  0.2986  0.0491
17296TIP3    H173379   0.196   4.579   4.280 -0.4785 -1.2255  0.3403
17296TIP3    H273380   0.191   4.612   4.428  0.0927  0.3925  0.0186
17297TIP3   OH273381   0.393   5.752   2.218 -0.0550  0.2736 -0.6838
17297TIP3    H173382   0.388   5.663   2.183 -1.3146 -0.2336  0.6799
17297TIP3    H273383   0.414   5.740   2.310  0.6871  1.4484 -0.6944
17298TIP3   OH273384   1.473   3.367  13.609 -0.3124 -0.0526 -0.5870
17298TIP3    H173385   1.452   3.360  13.703  1.6949 -1.2302 -0.1781
17298TIP3    H273386   1.559   3.327  13.601  0.1661  1.2771 -2.7467
17299TIP3   OH273387   4.367   0.479  15.013  0.6702 -0.1912 -0.0461
17299TIP3    H173388   4.410   0.394  15.009  0.0296 -0.5999  1.1177
17299TIP3    H273389   4.276   0.459  15.037  0.5423  0.8248  0.3800
17300TIP3   OH273390   4.208   3.418  15.002 -0.6256  0.3498 -0.3447
17300TIP3    H173391   4.284   3.468  15.030 -0.5247  0.7890 -1.3495
17300TIP3    H273392   4.242   3.331  14.981 -0.6979  0.0256  0.7971
17301TIP3   OH273393   5.566   6.439  14.134  0.8233  0.1039 -0.3153
17301TIP3    H173394   5.585   6.386  14.056 -0.7305  0.8464 -1.2713
17301TIP3    H273395   5.526   6.378  14.195 -0.7988  0.0583 -1.3420
17302TIP3   OH273396   0.238   5.968   2.352 -0.1190  0.2568  0.1288
17302TIP3    H173397   0.276   6.035   2.295 -0.6987  0.8420  0.4142
17302TIP3    H273398   0.292   5.891   2.338  0.7129  0.8580 -0.0244
17303TIP3   OH273399   3.948   2.491   6.410  0.0406  0.2903 -0.0016
17303TIP3    H173400   3.901   2.434   6.472  1.1153 -0.8808 -0.2306
17303TIP3    H273401   3.946   2.578   6.451 -0.7594 -0.1072  0.8399
17304TIP3   OH273402   2.378   3.200  15.299 -0.5265 -0.6670  0.1756
17304TIP3    H173403   2.341   3.202  15.210 -0.5622 -0.2314  0.2020
17304TIP3    H273404   2.302   3.203  15.357 -0.4846 -0.5346  0.2237
17305TIP3   OH273405   0.704   3.465  14.381  0.2583  0.1581 -0.2331
17305TIP3    H173406   0.743   3.483  14.467 -0.0671 -0.7580  0.1142
17305TIP3    H273407   0.656   3.383  14.393 -3.5289  2.1882 -0.0661
17306TIP3   OH273408   5.941   5.360  11.162  0.5354  0.9956 -0.0788
17306TIP3    H173409   5.953   5.453  11.180  0.5762  1.0372 -0.3181
17306TIP3    H273410   5.847   5.349  11.150  0.4100  0.8162  0.9815
17307TIP3   OH273411   2.213   1.511  16.956  0.1109 -0.3675  0.5271
17307TIP3    H173412   2.227   1.419  16.935  2.1294 -0.0410  0.1518
17307TIP3    H273413   2.271   1.527  17.031  0.7729  0.8513 -0.2032
17308TIP3   OH273414   4.472   1.633   4.535 -0.1203 -0.1960  0.2668
17308TIP3    H173415   4.405   1.616   4.469  0.1404 -0.3762  0.0477
17308TIP3    H273416   4.540   1.568   4.518 -0.3756 -0.7167  1.1748
17309TIP3   OH273417   2.307   2.020   2.580 -0.0106 -0.7512 -0.3479
17309TIP3    H173418   2.321   1.932   2.544 -0.7235 -1.0620  0.1153
17309TIP3    H273419   2.243   2.008   2.650  2.1179 -0.3133  1.7809
17310TIP3   OH273420   0.050   5.553  15.332 -0.4505 -0.2348 -0.3179
17310TIP3    H173421   0.134   5.558  15.287 -1.2655  0.4738 -1.8315
17310TIP3    H273422   0.008   5.476  15.295 -0.6525 -0.3188  0.0865
17311TIP3   OH273423   6.392   0.688  14.368  0.1472  0.0090  0.6950
17311TIP3    H173424   6.408   0.679  14.274  1.7446 -1.2309  1.0398
17311TIP3    H273425   6.438   0.769  14.392  0.0605  0.1236  0.4792
17312TIP3   OH273426   0.523   2.601  12.775  0.2088  0.2676  0.1806
17312TIP3    H173427   0.479   2.536  12.722  0.6294  0.2675 -0.1749
17312TIP3    H273428   0.549   2.554  12.854 -2.0099  0.6846  1.2459
17313TIP3   OH273429   0.636   1.848   5.735  0.0258 -0.4547  0.4577
17313TIP3    H173430   0.579   1.782   5.695 -0.7578  0.0496  0.6981
17313TIP3    H273431   0.702   1.798   5.782 -0.3598 -1.0671  0.3615
17314TIP3   OH273432   2.405   2.802  11.820 -0.1804  0.3185 -0.0374
17314TIP3    H173433   2.483   2.816  11.767 -0.1799  0.0840 -0.0973
17314TIP3    H273434   2.404   2.708  11.838 -1.9267 -0.2105 -2.3630
17315TIP3   OH273435   5.309   3.635   1.452 -0.4511 -0.1351  0.4046
17315TIP3    H173436   5.375   3.574   1.486 -0.4016  0.7861  2.0786
17315TIP3    H273437   5.226   3.590   1.466 -0.3252 -0.4020  0.3060
17316TIP3   OH273438   4.166   0.624  12.317 -0.1216  0.1637  0.2159
17316TIP3    H173439   4.174   0.652  12.409 -0.1060  0.0916  0.2367
17316TIP3    H273440   4.121   0.539  12.322 -1.9958  1.1042  0.0292
17317TIP3   OH273441   2.999   0.501  17.104  0.0700 -0.3577  0.0329
17317TIP3    H173442   2.996   0.517  17.198  1.6731 -0.6888  0.1578
17317TIP3    H273443   3.087   0.526  17.077 -0.5392  0.2780 -1.4995
17318TIP3   OH273444   2.394   5.716   4.927 -0.9254 -0.5052  0.2697
17318TIP3    H173445   2.336   5.762   4.868  2.1983  0.6059 -2.2168
17318TIP3    H273446   2.427   5.783   4.987 -1.3226 -0.9081  0.9611
17319TIP3   OH273447   4.735   1.245   5.092  0.3867  0.0295  0.0249
17319TIP3    H173448   4.771   1.251   5.180  2.2110  2.4109 -0.7538
17319TIP3    H273449   4.706   1.335   5.072 -1.5107 -0.7950 -1.2316
17320TIP3   OH273450   4.779   6.624   4.730 -0.0256 -0.9041  0.4538
17320TIP3    H173451   4.874   6.637   4.725 -0.0294 -1.2828 -0.9351
17320TIP3    H273452   4.766   6.532   4.705 -0.7490 -0.9191  0.8566
17321TIP3   OH273453   2.113   4.941  13.414  0.0109  0.1410 -0.2520
17321TIP3    H173454   2.084   4.957  13.324 -1.0250  2.1354  0.3667
17321TIP3    H273455   2.099   5.024  13.459  2.6114 -0.1247  1.2423
17322TIP3   OH273456   0.108   1.713  15.757 -0.1946 -0.1210  0.1038
17322TIP3    H173457   0.039   1.654  15.785 -0.4053 -0.2027 -0.5849
17322TIP3    H273458   0.071   1.762  15.684  0.6261 -0.4882 -0.5674
17323TIP3   OH273459   5.469   1.652  12.745 -0.4549  0.2161  0.5545
17323TIP3    H173460   5.398   1.589  12.735  0.3085 -1.3591  3.8172
17323TIP3    H273461   5.472   1.670  12.839  0.7143  3.6008  0.0050
17324TIP3   OH273462   5.400   0.062   6.452 -0.3806 -0.1281 -0.0915
17324TIP3    H173463   5.305   0.073   6.454 -0.5360 -0.9056 -1.8292
17324TIP3    H273464   5.414  -0.033   6.454  0.5001 -0.0374  2.6020
17325TIP3   OH273465   0.027   4.999  16.744  0.1910  0.2793 -0.2809
17325TIP3    H173466  -0.061   5.015  16.779  0.8504 -1.9139  2.7706
17325TIP3    H273467   0.086   5.022  16.816  2.0019 -0.2866 -1.5052
17326TIP3   OH273468   4.588   3.166   3.863  0.0608 -0.0437  0.3961
17326TIP3    H173469   4.551   3.098   3.919  0.0148  0.0723  0.5071
17326TIP3    H273470   4.651   3.212   3.918  0.8210 -0.6293  0.0216
17327TIP3   OH273471   5.319   1.169   5.765  0.5980  0.3448 -0.5061
17327TIP3    H173472   5.367   1.203   5.841  0.8474 -2.2447  0.5992
17327TIP3    H273473   5.387   1.146   5.702  0.9294 -2.5207  0.7224
17328TIP3   OH273474   4.287   5.280  14.163  0.2298 -0.3280  0.2565
17328TIP3    H173475   4.325   5.322  14.240  0.8446 -0.4519  0.0331
17328TIP3    H273476   4.334   5.197  14.156  0.8989  0.1106 -0.8037
17329TIP3   OH273477   5.513   6.722  11.434 -0.2281  0.2955 -0.1817
17329TIP3    H173478   5.530   6.631  11.408 -0.1431  0.3245 -0.2267
17329TIP3    H273479   5.490   6.766  11.353 -1.4553  0.0452  0.0163
17330TIP3   OH273480   5.486   3.490  12.010  0.0350  0.1982 -0.0739
17330TIP3    H173481   5.581   3.478  12.008 -0.1072 -0.9953 -0.5489
17330TIP3    H273482   5.454   3.420  12.067 -0.4711  1.4402  1.2403
17331TIP3   OH273483   6.371   6.399   2.480  0.2261 -0.2194 -0.2937
17331TIP3    H173484   6.335   6.487   2.465  1.2262  0.0461 -1.2486
17331TIP3    H273485   6.466   6.412   2.483  0.3305 -1.0666  1.1009
17332TIP3   OH273486   1.516   0.058  16.336  0.1118  0.7531 -0.0113
17332TIP3    H173487   1.565   0.129  16.295  1.6779  1.1715  2.3765
17332TIP3    H273488   1.467   0.101  16.407 -1.5183 -0.1045 -0.5642
17333TIP3   OH273489   1.696   4.851  15.804  0.7730 -0.0444  0.1307
17333TIP3    H173490   1.656   4.933  15.835 -1.2985  0.3387 -3.0728
17333TIP3    H273491   1.621   4.795  15.784  2.1004 -1.6936 -0.3329
17334TIP3   OH273492   1.728   2.426   3.015 -0.2864  0.2191  0.0383
17334TIP3    H173493   1.734   2.431   2.920 -1.7671 -0.8342 -0.1588
17334TIP3    H273494   1.777   2.501   3.047 -2.5980  2.6378 -1.6617
17335TIP3   OH273495   0.237   5.920   5.842 -0.4311 -0.1500  0.1190
17335TIP3    H173496   0.156   5.931   5.891 -1.8573 -3.5847 -1.1562
17335TIP3    H273497   0.208   5.895   5.754  2.0400  0.6531 -0.9982
17336TIP3   OH273498   0.381   1.061  12.797 -0.4334  0.3304 -0.3441
17336TIP3    H173499   0.476   1.061  12.793 -0.4376  0.4023 -0.4215
17336TIP3    H273500   0.360   1.108  12.878 -0.4220  0.8553 -0.6433
17337TIP3   OH273501   3.838   5.248  15.317 -0.3480 -0.0709 -0.4922
17337TIP3    H173502   3.824   5.337  15.350  0.0763  0.4747 -1.7401
17337TIP3    H273503   3.909   5.214  15.372  0.5843  0.9495 -0.9993
17338TIP3   OH273504   6.640   2.886  14.372  0.0321 -0.3264  0.9043
17338TIP3    H173505   6.710   2.905  14.434  0.6260 -0.3736  0.2561
17338TIP3    H273506   6.653   2.795  14.348 -0.8490 -0.6306  1.5219
17339TIP3   OH273507   5.479   5.861  12.795 -0.6258  0.2281 -0.0365
17339TIP3    H173508   5.512   5.936  12.746  1.0397 -0.6159 -0.2828
17339TIP3    H273509   5.450   5.800  12.728 -0.4741 -0.0027  0.1069
17340TIP3   OH273510   5.327   5.764  14.838  0.0646 -0.1539  0.1744
17340TIP3    H173511   5.237   5.754  14.869  0.2905 -3.1536  0.1436
17340TIP3    H273512   5.321   5.757  14.742  0.4128 -2.0522  0.2448
17341TIP3   OH273513   4.255   2.582   6.374 -0.3407 -0.1876 -0.1519
17341TIP3    H173514   4.244   2.501   6.423 -1.4826 -0.4550 -0.8340
17341TIP3    H273515   4.175   2.632   6.391 -0.8157 -0.3288 -1.8109
17342TIP3   OH273516   1.550   1.558   4.444 -0.4179  0.2699  0.2325
17342TIP3    H173517   1.469   1.522   4.480 -0.5858 -0.1361 -0.5309
17342TIP3    H273518   1.570   1.633   4.500  1.7869 -2.8532  4.1488
17343TIP3   OH273519   4.212   3.676  15.359  0.0863 -0.4104  0.3108
17343TIP3    H173520   4.177   3.761  15.386  1.5156 -0.0716  1.2486
17343TIP3    H273521   4.225   3.685  15.265  0.2527  0.4376  0.4024
17344TIP3   OH273522   6.435   1.013   1.330  0.3938  0.8372  0.1365
17344TIP3    H173523   6.397   1.063   1.403 -0.6643 -0.8838  0.8340
17344TIP3    H273524   6.516   1.059   1.309 -0.5702  2.9015  0.6349
17345TIP3   OH273525   2.057   1.417  13.846 -0.4465 -0.6113 -0.0679
17345TIP3    H173526   2.004   1.461  13.780  0.9988 -1.3160 -1.7530
17345TIP3    H273527   2.144   1.455  13.837 -0.5771  0.6866  2.8024
17346TIP3   OH273528   6.165   2.707   2.255 -0.0996 -0.3263  0.0501
17346TIP3    H173529   6.210   2.668   2.181 -1.2761 -0.4757 -0.6074
17346TIP3    H273530   6.108   2.638   2.288  1.6879 -0.8733  2.2676
17347TIP3   OH273531   6.218   4.185  16.483  0.2275  0.0194 -0.3222
17347TIP3    H173532   6.266   4.258  16.443 -1.9430  1.8702  0.2001
17347TIP3    H273533   6.145   4.169  16.423  1.0006 -2.2389 -0.7444
17348TIP3   OH273534   6.443   4.203  16.172 -0.0509 -0.3849 -0.0707
17348TIP3    H173535   6.442   4.232  16.263  2.4251 -1.0490  0.2640
17348TIP3    H273536   6.536   4.208  16.147 -0.1894 -3.1812 -1.5231
17349TIP3   OH273537   1.749   2.060  16.808  0.3474 -0.7166  0.4987
17349TIP3    H173538   1.778   2.151  16.821 -1.2418  0.0397 -0.8885
17349TIP3    H273539   1.756   2.046  16.713 -1.8340 -1.1349  0.3442
17350TIP3   OH273540   6.257   2.895  11.598 -0.2972 -0.1314  0.4655
17350TIP3    H173541   6.348   2.866  11.595 -0.5541 -0.9034 -0.6234
17350TIP3    H273542   6.206   2.815  11.582 -1.0754  0.6165 -1.0242
17351TIP3   OH273543   4.219   1.626  15.737  0.5117  0.1439  0.4243
17351TIP3    H173544   4.202   1.532  15.732  0.8397  0.1397 -1.6573
17351TIP3    H273545   4.132   1.666  15.733  0.4473 -0.0644 -0.6455
17352TIP3   OH273546   6.277   2.982   1.797  0.4161  0.0530  0.8230
17352TIP3    H173547   6.262   3.012   1.887 -1.8715 -0.8942  0.8242
17352TIP3    H273548   6.312   2.893   1.807  0.2031 -0.0357  0.7940
17353TIP3   OH273549   4.811   5.605  15.867  0.4213  0.3812  0.6475
17353TIP3    H173550   4.893   5.648  15.844  0.7224  0.4037  1.7197
17353TIP3    H273551   4.835   5.514  15.881  0.4476  0.5528  1.8323
17354TIP3   OH273552   3.066   3.647   2.597 -0.4746 -0.6358 -0.3942
17354TIP3    H173553   3.112   3.731   2.590 -1.9019  0.1912 -0.2764
17354TIP3    H273554   3.085   3.603   2.514  0.2329 -0.1702 -0.4896
17355TIP3   OH273555   4.100   2.336  15.722 -0.0537 -0.4246 -0.0998
17355TIP3    H173556   4.095   2.330  15.627 -1.4881  0.0752 -0.0775
17355TIP3    H273557   4.191   2.315  15.743  0.8068  1.4431 -1.7114
17356TIP3   OH273558   1.530   1.735   4.640 -0.2918 -0.1658 -0.4793
17356TIP3    H173559   1.527   1.829   4.624 -1.9480 -0.2702 -0.9569
17356TIP3    H273560   1.492   1.725   4.727  0.1179 -0.3804 -0.3232
17357TIP3   OH273561   2.414   5.473  10.688  0.3297  0.0896 -0.1181
17357TIP3    H173562   2.397   5.403  10.752  0.3761  0.4248  0.2697
17357TIP3    H273563   2.382   5.438  10.605  0.9003 -0.6333 -0.0485
17358TIP3   OH273564   3.525   1.734   5.295  0.0678 -0.0134  0.1504
17358TIP3    H173565   3.559   1.691   5.216  0.1860 -1.5885  1.0336
17358TIP3    H273566   3.603   1.767   5.339  0.0912 -0.0647  0.1474
17359TIP3   OH273567   5.249   5.393   1.440  0.0003 -0.0228 -0.0259
17359TIP3    H173568   5.238   5.368   1.532  0.3966 -0.8609 -0.1999
17359TIP3    H273569   5.337   5.362   1.417  0.2821  1.0275 -0.4189
17360TIP3   OH273570   2.828   4.871   5.544 -0.4847 -0.4751  0.1642
17360TIP3    H173571   2.885   4.922   5.486 -0.0096 -0.3766  0.7155
17360TIP3    H273572   2.809   4.792   5.494 -1.0288  0.1173 -0.6006
17361TIP3   OH273573   5.098   6.587  13.056  0.0715 -0.1407  0.4538
17361TIP3    H173574   5.064   6.507  13.096 -0.3485 -1.2486 -1.9477
17361TIP3    H273575   5.024   6.622  13.006  1.0691  0.1158 -0.8879
17362TIP3   OH273576   2.108   1.608  15.939  0.2705 -0.2237  0.2462
17362TIP3    H173577   2.129   1.587  15.848  1.3918  1.8657 -0.0301
17362TIP3    H273578   2.115   1.703  15.944  0.2690 -0.2958  2.5313
17363TIP3   OH273579   4.149   0.506  16.913 -0.1126  0.3727  0.6703
17363TIP3    H173580   4.063   0.522  16.950 -0.5652 -1.1591  0.3791
17363TIP3    H273581   4.194   0.451  16.978 -0.7295 -1.9021 -0.6929
17364TIP3   OH273582   2.987   2.315   6.054 -0.2761  0.4147  0.1371
17364TIP3    H173583   2.994   2.406   6.024 -2.4784  1.0361  1.3183
17364TIP3    H273584   2.905   2.283   6.016 -0.1073 -0.7153  0.6631
17365TIP3   OH273585   5.354   3.489  15.595  0.6645  0.1020  0.0168
17365TIP3    H173586   5.428   3.519  15.647  0.5215  1.5921 -0.5862
17365TIP3    H273587   5.393   3.440  15.522  1.0398  0.6187 -0.1280
17366TIP3   OH273588   3.968   6.050   2.276  0.0637 -0.3364  0.3903
17366TIP3    H173589   3.937   6.110   2.208 -0.5814 -0.2296  0.7781
17366TIP3    H273590   4.025   6.104   2.331 -0.8840  0.0432  1.0100
17367TIP3   OH273591   1.693   6.778   5.357 -0.0945  0.0108  0.5228
17367TIP3    H173592   1.612   6.808   5.399  0.8029  1.0836  1.5681
17367TIP3    H273593   1.674   6.688   5.330 -1.3196 -0.0921  1.6271
17368TIP3   OH273594   5.732   3.793  11.967  0.5508 -0.0625 -0.1789
17368TIP3    H173595   5.640   3.818  11.977  0.5451 -0.1429 -0.0262
17368TIP3    H273596   5.747   3.729  12.037  0.4953 -0.6846 -0.7194
17369TIP3   OH273597   3.911   2.543  16.565 -0.0091 -0.2647  0.2588
17369TIP3    H173598   3.994   2.497  16.566 -0.1504 -0.5023  1.2619
17369TIP3    H273599   3.854   2.488  16.511  0.1795 -0.6399  0.4365
17370TIP3   OH273600   2.456   2.073   5.392 -0.3891 -0.1382  0.2961
17370TIP3    H173601   2.380   2.115   5.433 -0.8615 -1.0673  0.3919
17370TIP3    H273602   2.438   1.979   5.399 -0.6766 -0.3418 -2.3718
17371TIP3   OH273603   4.853   1.032   5.303  0.1143 -0.2098 -0.2548
17371TIP3    H173604   4.798   0.980   5.245 -0.0598  0.3026 -0.5582
17371TIP3    H273605   4.796   1.102   5.334  0.2599 -0.3742  0.3968
17372TIP3   OH273606   3.346   6.487   1.515  0.0882 -0.2667  0.3175
17372TIP3    H173607   3.438   6.460   1.516 -0.0542 -0.7606  0.2410
17372TIP3    H273608   3.344   6.559   1.452  0.0519 -1.6419 -1.3339
17373TIP3   OH273609   4.423   5.118  13.694  0.2685 -0.6160  0.6153
17373TIP3    H173610   4.398   5.078  13.610  0.8418  1.6477 -0.7216
17373TIP3    H273611   4.379   5.202  13.694  0.8149 -0.3080  2.3184
17374TIP3   OH273612   5.390   3.406   1.827 -0.0341 -0.3394  0.2242
17374TIP3    H173613   5.328   3.474   1.852 -0.4662 -0.8537  0.5590
17374TIP3    H273614   5.463   3.417   1.888  0.0707  0.0664  0.0304
17375TIP3   OH273615   2.297   4.762   1.284  0.3265 -0.2123  0.2854
17375TIP3    H173616   2.243   4.792   1.212 -1.2778 -0.6361  1.2756
17375TIP3    H273617   2.383   4.745   1.243 -0.3620  0.1058 -1.3878
17376TIP3   OH273618   1.928   6.223  15.767  0.1817 -0.6852  0.4194
17376TIP3    H173619   1.987   6.169  15.715  0.6573 -1.1040  1.3866
17376TIP3    H273620   1.932   6.187  15.855  0.5557  0.9513  1.1093
17377TIP3   OH273621   0.816   0.639   0.645 -0.0134  0.3468  0.1899
17377TIP3    H173622   0.866   0.670   0.570 -1.2172 -1.8119 -1.6250
17377TIP3    H273623   0.763   0.714   0.671  2.0819  1.8297  0.4226
17378TIP3   OH273624   6.592   6.145  15.229 -0.1866 -0.4263  0.1658
17378TIP3    H173625   6.567   6.233  15.257 -1.4544 -0.5883 -0.3693
17378TIP3    H273626   6.662   6.159  15.164 -0.7645  0.2315 -0.3351
17379TIP3   OH273627   5.481   0.804   6.224 -0.4774  0.2959 -0.4314
17379TIP3    H173628   5.480   0.886   6.274 -1.1932 -0.6186  1.1139
17379TIP3    H273629   5.565   0.763   6.247 -1.3886 -0.7669  1.1707
17380TIP3   OH273630   4.758   4.415  16.109 -0.3653  0.3130  0.0822
17380TIP3    H173631   4.765   4.428  16.204  1.0626  1.0965 -0.0946
17380TIP3    H273632   4.669   4.382  16.095  0.1373 -2.0908  1.9281
17381TIP3   OH273633   0.329   0.655  12.210  0.1573  0.1241 -0.2323
17381TIP3    H173634   0.314   0.748  12.227 -0.7915  0.0079 -0.3539
17381TIP3    H273635   0.338   0.648  12.115  0.4190  0.1228 -0.2054
17382TIP3   OH273636   5.792   3.088  15.155 -0.1162 -0.2381 -0.4068
17382TIP3    H173637   5.850   3.064  15.083  0.8683 -0.5974  0.4758
17382TIP3    H273638   5.705   3.065  15.125  0.4096 -1.5014 -1.0234
17383TIP3   OH273639   5.165   4.115   1.596 -0.6284  0.2965 -0.0569
17383TIP3    H173640   5.224   4.153   1.531 -1.0570  0.2977 -0.4510
17383TIP3    H273641   5.203   4.030   1.617  0.2644  0.8662  0.7293
17384TIP3   OH273642   2.232   6.373   1.658 -0.0565  0.0022  0.2056
17384TIP3    H173643   2.165   6.413   1.602  0.2762  0.0228 -0.1798
17384TIP3    H273644   2.301   6.439   1.662 -0.0689 -0.0109  0.6222
17385TIP3   OH273645   3.052   2.355  16.629 -0.4183 -0.5050  0.7891
17385TIP3    H173646   2.985   2.366  16.562 -1.1197 -3.3854  0.8876
17385TIP3    H273647   3.005   2.323  16.706  0.8156 -0.6127  1.5329
17386TIP3   OH273648   4.574   0.436  12.544 -0.0590 -0.2033 -0.3173
17386TIP3    H173649   4.627   0.404  12.472 -1.8555 -3.3994 -0.4062
17386TIP3    H273650   4.521   0.506  12.506 -0.1329 -1.0376 -1.8347
17387TIP3   OH273651   3.365   3.628   2.600 -0.4120  0.3770  0.4157
17387TIP3    H173652   3.336   3.687   2.531  0.1066  0.4865  0.2878
17387TIP3    H273653   3.375   3.684   2.677 -0.3352  0.3821  0.4027
17388TIP3   OH273654   0.597   1.161  12.556  0.3246  0.2702 -0.5184
17388TIP3    H173655   0.614   1.072  12.523 -0.1838  0.2446 -0.7383
17388TIP3    H273656   0.549   1.203  12.484 -2.3354 -0.3260  0.7758
17389TIP3   OH273657   3.295   5.800  11.795  0.4451  0.0425 -0.1954
17389TIP3    H173658   3.228   5.813  11.862 -0.5084 -0.4403 -1.0280
17389TIP3    H273659   3.246   5.774  11.717  1.5472  0.4269 -1.0375
17390TIP3   OH273660   2.533   4.432  16.510  0.1077  0.0460 -0.6772
17390TIP3    H173661   2.555   4.519  16.542  0.9187  0.7292 -2.8562
17390TIP3    H273662   2.452   4.445  16.461 -0.7639 -0.8264  0.4895
17391TIP3   OH273663   3.680   2.555   1.604  0.1076 -0.1939  0.1762
17391TIP3    H173664   3.640   2.628   1.651  0.4012 -1.6517  2.9209
17391TIP3    H273665   3.769   2.586   1.584 -0.2365  0.6990 -0.0450
17392TIP3   OH273666   5.787   2.845  14.814  0.1240 -0.1331 -0.2267
17392TIP3    H173667   5.870   2.832  14.767 -0.4762 -0.3504 -1.2479
17392TIP3    H273668   5.812   2.841  14.906  1.0830 -1.3880 -0.5102
17393TIP3   OH273669   2.299   3.406  11.212  0.5840 -0.0970 -0.5741
17393TIP3    H173670   2.306   3.499  11.233 -0.5674  0.1433 -1.1593
17393TIP3    H273671   2.385   3.370  11.233  0.8902  0.9954  0.1461
17394TIP3   OH273672   6.301   3.700   5.672  0.4992  0.1104  0.2704
17394TIP3    H173673   6.392   3.671   5.665 -0.1005 -1.7864 -0.0928
17394TIP3    H273674   6.286   3.754   5.594  0.6964 -1.3660 -0.8161
17395TIP3   OH273675   5.262   0.673  13.560 -0.1174  0.3237 -0.4953
17395TIP3    H173676   5.210   0.671  13.480 -0.5524 -0.0159 -0.2085
17395TIP3    H273677   5.283   0.765  13.572  0.5639  0.2976 -1.3897
17396TIP3   OH273678   4.622   2.583  15.388 -0.1515 -0.4718 -0.4912
17396TIP3    H173679   4.665   2.600  15.304 -0.1503  0.2119 -0.3602
17396TIP3    H273680   4.529   2.580  15.367 -0.0152 -3.4625 -1.0292
17397TIP3   OH273681   6.256   4.031   4.310  0.3609 -0.2189 -0.8101
17397TIP3    H173682   6.305   4.108   4.281  2.8053 -1.0019  0.9733
17397TIP3    H273683   6.210   4.060   4.389 -0.5740  0.0071 -1.4279
17398TIP3   OH273684   0.073   6.690  13.983 -0.1343 -0.2564  0.5453
17398TIP3    H173685   0.076   6.629  13.909  0.5820  1.8834 -1.3123
17398TIP3    H273686  -0.019   6.696  14.006 -0.2974 -1.4180  0.2227
17399TIP3   OH273687   1.420   0.956   3.924  0.1301  0.0912  0.7069
17399TIP3    H173688   1.365   1.034   3.929  0.7507  0.8272 -2.1318
17399TIP3    H273689   1.372   0.896   3.868  0.9309 -0.4090  0.5376
17400TIP3   OH273690   3.325   1.567   1.428 -0.6225  0.0747  0.2949
17400TIP3    H173691   3.342   1.583   1.335  1.8016 -0.2488  0.6324
17400TIP3    H273692   3.247   1.512   1.428 -2.0225  1.8856 -1.3997
17401TIP3   OH273693   5.500   4.904  17.160  0.2572 -0.4888 -0.4185
17401TIP3    H173694   5.467   4.989  17.130 -0.2077 -0.2724  0.6468
17401TIP3    H273695   5.571   4.926  17.220  0.4140 -0.8682 -0.4675
17402TIP3   OH273696   0.964   5.424  15.054  0.0960  0.0317 -0.5728
17402TIP3    H173697   0.958   5.482  14.978  0.1890 -0.5972 -1.0705
17402TIP3    H273698   0.901   5.354  15.036  0.0252 -0.0594 -0.0100
17403TIP3   OH273699   6.146   1.310   6.304 -0.1207  0.2258 -0.7520
17403TIP3    H173700   6.228   1.346   6.270 -0.6330  1.9538 -0.2741
17403TIP3    H273701   6.081   1.376   6.283 -1.4587 -1.2378 -1.3441
17404TIP3   OH273702   5.201   3.175   5.834 -0.0196 -0.5831  0.1700
17404TIP3    H173703   5.220   3.258   5.879 -0.2248  0.0387 -0.8632
17404TIP3    H273704   5.284   3.127   5.838  1.4132  1.3444 -2.6591
17405TIP3   OH273705   3.836   1.167   2.288  0.6982 -0.4191  0.0579
17405TIP3    H173706   3.880   1.213   2.217  0.1989 -0.4021 -0.2431
17405TIP3    H273707   3.838   1.229   2.361  0.2216  0.0026 -0.2805
17406TIP3   OH273708   4.999   3.776   4.435  0.4866  0.4505 -0.6728
17406TIP3    H173709   5.027   3.704   4.379 -0.3951  1.4421 -2.4721
17406TIP3    H273710   4.912   3.749   4.466  1.5363 -0.7464  1.5183
17407TIP3   OH273711   1.988   3.399  15.791  0.2398 -0.2285  0.0808
17407TIP3    H173712   1.903   3.364  15.764 -0.2053  1.7680 -1.3151
17407TIP3    H273713   2.052   3.340  15.750 -0.4212 -1.8886  1.3405
17408TIP3   OH273714   2.955   2.563   4.772  0.3167  0.2781  1.1225
17408TIP3    H173715   2.940   2.635   4.833 -1.0680 -1.7609  3.3388
17408TIP3    H273716   2.868   2.538   4.742  0.9064  0.6866 -1.1710
17409TIP3   OH273717   0.471   1.774  10.885 -0.5091  0.2254 -0.5851
17409TIP3    H173718   0.397   1.725  10.848 -1.1398 -1.5856  2.6317
17409TIP3    H273719   0.538   1.708  10.901  1.2038  1.5658 -1.8792
17410TIP3   OH273720   3.235   5.115   1.641 -0.2999 -0.2603 -0.5728
17410TIP3    H173721   3.237   5.080   1.730  0.0769  0.6063 -0.2328
17410TIP3    H273722   3.142   5.114   1.616 -0.5031  0.2557  0.1385
17411TIP3   OH273723   1.849   4.587   2.179 -0.6489  0.3133  0.3531
17411TIP3    H173724   1.767   4.551   2.146 -0.5733 -0.6021  1.1374
17411TIP3    H273725   1.856   4.553   2.268  0.7074  0.1758  0.2079
17412TIP3   OH273726   3.024   4.456  17.038  0.1834 -0.1170  0.0125
17412TIP3    H173727   3.109   4.427  17.071  0.7101  1.6574  0.3466
17412TIP3    H273728   3.044   4.536  16.989 -1.2818  0.2550 -0.0213
17413TIP3   OH273729   5.897   4.700   3.344  0.3090 -0.3871 -0.6033
17413TIP3    H173730   5.878   4.698   3.438  0.2003 -0.4319 -0.6265
17413TIP3    H273731   5.813   4.681   3.302  0.4301 -0.7028 -0.7039
17414TIP3   OH273732   6.474   6.541  11.307 -0.3826 -0.5471 -0.0281
17414TIP3    H173733   6.425   6.483  11.249 -1.0870 -0.9713  0.9662
17414TIP3    H273734   6.485   6.491  11.388 -0.7905  0.6032  0.7667
17415TIP3   OH273735   1.391   6.546  14.559  0.0430  0.4626  0.8583
17415TIP3    H173736   1.432   6.469  14.521  1.0623  0.7310  1.3833
17415TIP3    H273737   1.458   6.614  14.552 -1.1893  1.6172 -0.5741
17416TIP3   OH273738   1.067   2.796   5.430 -0.3369  0.3155  0.0520
17416TIP3    H173739   1.041   2.711   5.465  0.5016 -0.6519 -1.5478
17416TIP3    H273740   1.004   2.814   5.360  1.3197 -0.5402 -1.7291
17417TIP3   OH273741   1.724   4.250  11.449  0.1546  0.2561  0.3336
17417TIP3    H173742   1.781   4.242  11.525  0.4666 -0.2141  0.0468
17417TIP3    H273743   1.666   4.324  11.471  1.7497  1.6444  0.0533
17418TIP3   OH273744   1.636   5.195  11.769  0.0412  0.6908 -0.1323
17418TIP3    H173745   1.616   5.222  11.858  0.4146  2.7654 -0.6230
17418TIP3    H273746   1.709   5.252  11.742 -0.1034  0.1615 -1.7762
17419TIP3   OH273747   6.444   3.694  14.043  0.2861  0.0965 -0.2244
17419TIP3    H173748   6.410   3.612  14.079  0.5445 -0.3016 -0.8860
17419TIP3    H273749   6.392   3.709  13.964  0.2763  0.5436 -0.1356
17420TIP3   OH273750   4.042   6.409  15.627 -0.0587 -0.4653  0.1663
17420TIP3    H173751   3.983   6.345  15.589 -0.0555  0.3044 -1.2311
17420TIP3    H273752   4.127   6.365  15.630  0.1543 -0.2629 -1.6774
17421TIP3   OH273753   1.865   1.216   0.298 -0.5095 -0.3881 -0.3051
17421TIP3    H173754   1.807   1.201   0.372  0.8242  0.8989  1.0874
17421TIP3    H273755   1.834   1.299   0.260  1.2159  1.1501  1.3992
17422TIP3   OH273756   3.427   1.786   4.599 -0.6004  0.1607 -0.4818
17422TIP3    H173757   3.507   1.817   4.643 -0.2741 -0.4823 -0.6082
17422TIP3    H273758   3.432   1.690   4.606 -1.9936  0.1389  0.6323
17423TIP3   OH273759   1.792   1.939   5.448  0.1557  1.1839  0.0937
17423TIP3    H173760   1.806   1.856   5.492  0.4215  1.4063  0.4353
17423TIP3    H273761   1.717   1.978   5.493  0.0292  1.1311 -0.0679
17424TIP3   OH273762   3.939   2.482   4.732  0.3681  0.2463 -0.7293
17424TIP3    H173763   3.885   2.561   4.733  0.5282  0.3495  0.1117
17424TIP3    H273764   3.896   2.423   4.793 -0.7479 -1.0125 -2.6413
17425TIP3   OH273765   5.337   5.116   1.126  0.2409  0.0384  0.0574
17425TIP3    H173766   5.368   5.164   1.203 -0.8493  2.3853 -0.8786
17425TIP3    H273767   5.309   5.184   1.065 -2.1991 -1.8063 -1.0375
17426TIP3   OH273768   1.877   5.290   0.257 -0.5822  0.2203  0.2964
17426TIP3    H173769   1.963   5.317   0.289 -1.0347  0.4102  1.3828
17426TIP3    H273770   1.849   5.362   0.200 -1.2130  1.4973  2.1511
17427TIP3   OH273771   4.903   1.279   3.899 -0.5706  0.5611 -0.3496
17427TIP3    H173772   4.966   1.211   3.921  0.4703  1.2431 -1.1310
17427TIP3    H273773   4.818   1.242   3.924 -0.0959 -1.2173 -1.2274
17428TIP3   OH273774   2.016   3.761  13.159 -0.0065 -0.1980  0.1404
17428TIP3    H173775   1.936   3.800  13.195 -0.2888 -0.8324  0.2167
17428TIP3    H273776   2.031   3.684  13.213  2.1922  1.3416  1.9165
17429TIP3   OH273777   4.052   2.481   2.815 -0.9068  0.0183 -0.3278
17429TIP3    H173778   4.016   2.397   2.846 -1.3543  0.5081  0.5210
17429TIP3    H273779   4.075   2.465   2.723 -0.9945 -1.0305 -0.1787
17430TIP3   OH273780   4.658   1.782  11.524 -0.0433  0.0079 -0.0090
17430TIP3    H173781   4.649   1.688  11.513  1.5494 -0.2023  0.2861
17430TIP3    H273782   4.609   1.819  11.451 -1.9355 -0.9782  0.6959
17431TIP3   OH273783   1.550   1.050   3.415  0.2304 -0.0811 -0.6289
17431TIP3    H173784   1.572   1.131   3.462  0.8048 -0.7938  0.3557
17431TIP3    H273785   1.632   1.021   3.377  0.2294 -0.6959 -0.1809
17432TIP3   OH273786   5.622   5.818   0.207  0.1477  0.3452  0.8167
17432TIP3    H173787   5.623   5.894   0.149  1.1028 -0.1427  0.1642
17432TIP3    H273788   5.541   5.772   0.184  1.4341 -0.9107 -1.6133
17433TIP3   OH273789   4.878   0.939  12.220  0.3212 -0.0641 -0.1567
17433TIP3    H173790   4.818   0.876  12.261 -0.0344  0.0334 -0.5188
17433TIP3    H273791   4.958   0.934  12.272 -0.2808  0.4066  0.8623
17434TIP3   OH273792   0.134   6.107   1.157 -0.1204 -0.9404  0.0182
17434TIP3    H173793   0.189   6.040   1.116 -0.4313 -0.4476 -1.2545
17434TIP3    H273794   0.044   6.078   1.139 -0.2579 -0.3416 -0.2817
17435TIP3   OH273795   4.314   1.154  13.226  0.0745  0.1443 -0.0400
17435TIP3    H173796   4.260   1.201  13.289 -1.1111  1.6586 -2.0789
17435TIP3    H273797   4.254   1.131  13.155  1.7202  0.2264 -1.5229
17436TIP3   OH273798   1.969   3.684  12.426 -0.6505  0.1671  0.1173
17436TIP3    H173799   1.878   3.659  12.443 -0.4073  0.0204  1.3137
17436TIP3    H273800   1.993   3.636  12.347 -1.7525  0.5810 -0.4850
17437TIP3   OH273801   1.829   2.842  16.519 -0.4879 -0.3137  0.0426
17437TIP3    H173802   1.911   2.842  16.469 -1.6305 -0.9431 -1.8908
17437TIP3    H273803   1.811   2.935  16.535  0.2038 -0.1393 -0.1387
17438TIP3   OH273804   2.069   0.018  11.825 -0.2236 -0.2025 -0.1887
17438TIP3    H173805   2.038   0.108  11.829  1.9016  0.6217 -0.8750
17438TIP3    H273806   2.055  -0.009  11.734 -1.1460 -0.7118  0.0867
17439TIP3   OH273807   3.380   0.171   2.976 -0.1778 -0.3545  1.1117
17439TIP3    H173808   3.386   0.258   3.016 -0.5193 -0.1214  0.6590
17439TIP3    H273809   3.391   0.187   2.883 -2.7251 -0.4785  0.7318
17440TIP3   OH273810   4.542   0.659   4.735  0.5364  0.0608 -0.0028
17440TIP3    H173811   4.631   0.683   4.708  0.6838 -2.2125 -1.9207
17440TIP3    H273812   4.554   0.599   4.808  0.7226 -1.2122 -1.0324
17441TIP3   OH273813   4.567   5.144  12.414  0.6229 -0.1355  0.1054
17441TIP3    H173814   4.579   5.052  12.437  0.7225 -0.4063 -0.9740
17441TIP3    H273815   4.625   5.157  12.338  0.5466  0.7942  0.1964
17442TIP3   OH273816   0.932   1.018   3.243  0.0271  0.6646  0.2603
17442TIP3    H173817   0.951   1.017   3.150 -0.5745 -0.3495  0.1338
17442TIP3    H273818   0.968   0.936   3.276  1.4818  1.6388  1.1942
17443TIP3   OH273819   3.752   6.013   1.940  0.7581 -0.0938  0.2646
17443TIP3    H173820   3.674   6.064   1.962 -0.9699 -1.7477 -1.5880
17443TIP3    H273821   3.767   5.959   2.018  0.4824  0.7017  0.8863
17444TIP3   OH273822   5.816   3.681  13.798 -0.1964  0.1384  0.5117
17444TIP3    H173823   5.848   3.640  13.879 -0.1750  0.7042  0.7964
17444TIP3    H273824   5.888   3.672  13.736  0.3937  1.0664  1.0310
17445TIP3   OH273825   3.258   6.767   0.907 -0.1265  0.2304 -0.3005
17445TIP3    H173826   3.243   6.793   0.998  2.7322  0.3662  0.2158
17445TIP3    H273827   3.241   6.846   0.856 -1.8992  0.1141  0.0467
17446TIP3   OH273828   5.507   4.460  15.264  0.3375 -0.0421  0.6388
17446TIP3    H173829   5.535   4.408  15.339 -0.6050  1.3597  2.0176
17446TIP3    H273830   5.515   4.551  15.293  0.7069  0.5768 -1.2481
17447TIP3   OH273831   3.073   4.730   5.424  0.1937 -0.1459  0.7732
17447TIP3    H173832   3.062   4.821   5.399  1.4368 -0.1980 -0.0755
17447TIP3    H273833   3.085   4.733   5.519 -1.9804  0.3207  1.0746
17448TIP3   OH273834   1.345   0.557  14.655  0.2587  0.0563 -0.3896
17448TIP3    H173835   1.364   0.519  14.740  1.5339  0.8925 -0.2751
17448TIP3    H273836   1.425   0.604  14.631 -1.0257  2.2108 -0.7478
17449TIP3   OH273837   2.067   4.864  12.706 -0.0596  0.3558  0.7091
17449TIP3    H173838   2.021   4.825  12.632  1.1298 -1.1117  0.7167
17449TIP3    H273839   2.133   4.921  12.666  0.7867 -0.6728  0.6098
17450TIP3   OH273840   4.471   1.266   0.544  0.1139  0.0482 -0.0460
17450TIP3    H173841   4.502   1.281   0.633 -0.7529  0.0425  0.2634
17450TIP3    H273842   4.469   1.352   0.504 -0.0029  0.1156  0.1057
17451TIP3   OH273843   6.170   5.049   6.083  0.5005 -0.2061 -0.0249
17451TIP3    H173844   6.237   5.011   6.140  0.6254  1.8625  1.3301
17451TIP3    H273845   6.147   5.132   6.125 -1.0934  0.3396 -1.8103
17452TIP3   OH273846   6.436   6.583  14.182  0.3165  0.1649 -0.0510
17452TIP3    H173847   6.525   6.549  14.190  1.8119  3.1100 -2.2269
17452TIP3    H273848   6.415   6.574  14.089 -2.1921 -1.4832  0.5900
17453TIP3   OH273849   6.547   5.704   4.813  0.0376 -0.6261  0.0064
17453TIP3    H173850   6.610   5.732   4.747  0.6051 -2.0088 -0.0710
17453TIP3    H273851   6.463   5.702   4.767  0.1080  0.2357 -0.1652
17454TIP3   OH273852   6.291   5.655  10.663  0.4976  0.0855 -0.2492
17454TIP3    H173853   6.365   5.637  10.721  0.1047 -0.3312  0.1325
17454TIP3    H273854   6.299   5.749  10.643 -0.1365  0.5819  1.6047
17455TIP3   OH273855   5.532   3.435   4.733  0.4501  0.0956 -0.0561
17455TIP3    H173856   5.515   3.370   4.802  0.3467 -0.6452 -0.7650
17455TIP3    H273857   5.621   3.465   4.750  0.2432  0.3078  0.7073
17456TIP3   OH273858   5.561   4.283  16.697 -0.2539 -0.2416 -0.2165
17456TIP3    H173859   5.548   4.288  16.602  2.1709  0.3460 -0.5719
17456TIP3    H273860   5.609   4.362  16.719  0.3939 -1.0141  1.2858
17457TIP3   OH273861   2.722   0.001  17.071  0.2875 -0.1112 -0.3627
17457TIP3    H173862   2.758   0.055  17.141  0.0755  1.2747 -1.2698
17457TIP3    H273863   2.765  -0.084  17.080  1.9319  0.7414  0.0647
17458TIP3   OH273864   4.751   1.049  12.000  0.3678 -0.3185 -0.3052
17458TIP3    H173865   4.793   0.991  12.063 -0.1920  0.7226  1.0726
17458TIP3    H273866   4.810   1.123  11.993  0.3232 -0.3340 -0.8527
17459TIP3   OH273867   3.522   5.301  13.972 -0.6544 -1.1168  0.2669
17459TIP3    H173868   3.533   5.250  14.053 -0.4031  0.0816  1.0123
17459TIP3    H273869   3.579   5.377  13.984 -1.3110 -0.4575 -0.6524
17460TIP3   OH273870   3.711   5.805   2.953 -0.2771  0.4293  0.0115
17460TIP3    H173871   3.755   5.860   3.019 -1.7088  0.4152  1.0278
17460TIP3    H273872   3.621   5.799   2.984 -0.6479 -0.7583 -1.2271
17461TIP3   OH273873   0.183   2.669   5.158  0.0621 -0.3674 -0.3109
17461TIP3    H173874   0.155   2.737   5.097 -0.9578 -0.8244 -0.3803
17461TIP3    H273875   0.265   2.701   5.195  0.2376  0.3124 -1.2739
17462TIP3   OH273876   1.051   6.116  14.575  0.3299  0.2286  0.1640
17462TIP3    H173877   1.071   6.156  14.490 -1.2840  0.5466 -0.0850
17462TIP3    H273878   1.090   6.028  14.569  1.6933  0.8346 -0.2420
17463TIP3   OH273879   3.097   3.421  15.678 -0.0160 -0.0095  0.2822
17463TIP3    H173880   3.186   3.406  15.647  0.1732 -2.0914  1.6272
17463TIP3    H273881   3.108   3.475  15.756 -0.1855  1.7918 -0.8719
17464TIP3   OH273882   1.699   2.502   5.082  0.2838  0.0534 -0.1667
17464TIP3    H173883   1.697   2.478   4.990 -1.0728  2.3976 -0.8281
17464TIP3    H273884   1.743   2.587   5.084 -1.6167  1.0777  1.0253
17465TIP3   OH273885   1.026   6.376  15.446 -0.0535  0.1160  0.2879
17465TIP3    H173886   0.934   6.392  15.465 -0.1051 -0.2490  0.3553
17465TIP3    H273887   1.054   6.315  15.515  0.5347  1.1125  0.9511
17466TIP3   OH273888   0.476   1.127   4.784 -0.0487 -0.1034  0.2572
17466TIP3    H173889   0.546   1.178   4.825 -0.6720  0.1724  1.0092
17466TIP3    H273890   0.522   1.056   4.738  0.8300  1.1450 -0.8650
17467TIP3   OH273891   3.637   2.827   1.824  0.0607  0.4660  0.2392
17467TIP3    H173892   3.696   2.879   1.771 -0.5081 -1.3238 -2.3601
17467TIP3    H273893   3.550   2.866   1.809 -0.0150  0.3735  0.4261
17468TIP3   OH273894   1.082   4.068   4.640  1.1286 -0.0781 -0.4214
17468TIP3    H173895   1.151   4.071   4.574  0.2734  0.1539 -1.3300
17468TIP3    H273896   1.011   4.120   4.603 -0.2859 -1.8911 -0.4000
17469TIP3   OH273897   4.034   5.649  15.425 -0.1819  0.1371 -0.2680
17469TIP3    H173898   4.096   5.582  15.453  1.7034  1.0037 -2.1468
17469TIP3    H273899   3.954   5.629  15.474  1.5960 -0.8685  2.4497
17470TIP3   OH273900   0.455   3.831  11.808  0.2684  0.1518 -0.2285
17470TIP3    H173901   0.507   3.869  11.738 -0.4760  0.5008 -0.5972
17470TIP3    H273902   0.367   3.867  11.795 -0.3622 -1.3883 -0.3526
17471TIP3   OH273903   6.659   4.114  14.487  0.4008 -0.2315 -0.2182
17471TIP3    H173904   6.589   4.098  14.423  0.1843  0.1149 -0.0683
17471TIP3    H273905   6.616   4.107  14.572  0.1080  1.8862 -0.1316
17472TIP3   OH273906   1.637   0.781   1.178 -0.0990 -0.1753  0.8001
17472TIP3    H173907   1.644   0.854   1.241 -0.8384 -0.1596  0.8700
17472TIP3    H273908   1.547   0.786   1.146  0.1609 -0.4245  0.0209
17473TIP3   OH273909   1.032   2.381   6.220 -0.5561  0.2288  0.2253
17473TIP3    H173910   0.980   2.449   6.261 -0.0125  0.0672  1.2155
17473TIP3    H273911   1.036   2.311   6.286  1.2610  0.4168  0.3693
17474TIP3   OH273912   1.476   2.125   0.936  0.4063 -0.1134  0.4580
17474TIP3    H173913   1.423   2.102   1.013 -2.2295 -0.9602 -1.4684
17474TIP3    H273914   1.484   2.220   0.941 -2.3681  0.2296  0.3091
17475TIP3   OH273915   5.552   0.529  13.820  0.2600 -0.9259 -0.0514
17475TIP3    H173916   5.585   0.596  13.760 -0.4111 -1.0969 -0.6271
17475TIP3    H273917   5.521   0.578  13.897 -0.1775 -0.5709 -0.4466
17476TIP3   OH273918   2.409   2.626   3.946 -0.4411  0.5373  0.1567
17476TIP3    H173919   2.484   2.569   3.963 -0.0453  1.4376  1.6862
17476TIP3    H273920   2.336   2.585   3.992 -0.9992 -0.4765 -1.5480
17477TIP3   OH273921   6.832   0.757   4.999 -0.3735  0.2835  0.2225
17477TIP3    H173922   6.799   0.828   5.055 -0.8828  0.0389  0.2389
17477TIP3    H273923   6.813   0.787   4.910  0.0257  0.4687  0.1971
17478TIP3   OH273924   5.208   0.050  16.524  0.3258  0.1470 -0.3494
17478TIP3    H173925   5.174   0.058  16.435 -2.5315 -1.4465  0.4572
17478TIP3    H273926   5.282  -0.010  16.516  0.0976 -0.0042 -1.6679
17479TIP3   OH273927   1.677   5.176  13.446 -0.3337  0.3245 -0.3075
17479TIP3    H173928   1.589   5.159  13.481 -0.3565  1.9749  0.5434
17479TIP3    H273929   1.675   5.268  13.421  1.7759  1.0606  1.8115
17480TIP3   OH273930   5.285   3.910  13.764  0.1008  0.2355 -0.1182
17480TIP3    H173931   5.248   3.997  13.753  1.5012  0.9954  0.8031
17480TIP3    H273932   5.226   3.852  13.716  0.6509  2.0165 -3.2005
17481TIP3   OH273933   3.723   1.136   1.894  0.0110  0.4584 -0.5389
17481TIP3    H173934   3.805   1.087   1.898 -0.9582 -1.1457  1.6251
17481TIP3    H273935   3.656   1.071   1.913 -1.7977  1.7547 -2.1294
17482TIP3   OH273936   4.799   0.061  16.035 -0.0060 -0.1614 -0.0026
17482TIP3    H173937   4.761   0.135  16.083 -1.4380  1.0578 -2.7851
17482TIP3    H273938   4.819  -0.003  16.102 -2.0910  1.3128  2.1951
17483TIP3   OH273939   6.830   4.793   2.669 -0.1681 -0.3680 -0.4648
17483TIP3    H173940   6.856   4.710   2.710 -2.2591 -0.5844  0.6035
17483TIP3    H273941   6.737   4.781   2.648 -0.2068  1.2861 -1.4198
17484TIP3   OH273942   4.169   4.205   6.023  0.0045 -0.0040  0.3728
17484TIP3    H173943   4.191   4.146   5.951 -0.8342  1.3634 -1.0511
17484TIP3    H273944   4.090   4.167   6.062  0.2965 -0.5899  0.4039
17485TIP3   OH273945   4.680   1.760   0.468 -0.1513 -0.4845  0.5282
17485TIP3    H173946   4.628   1.839   0.483 -0.2163 -0.3463 -0.3797
17485TIP3    H273947   4.729   1.748   0.549  0.2423  0.7903  0.5052
17486TIP3   OH273948   2.070   2.715  16.655 -0.3004 -0.1044 -0.1323
17486TIP3    H173949   2.049   2.807  16.640  0.1104  0.1280  0.7028
17486TIP3    H273950   2.154   2.702  16.611 -0.6786 -0.2633 -0.8323
17487TIP3   OH273951   3.411   3.038   5.528  0.0793  0.0626 -1.0334
17487TIP3    H173952   3.400   2.945   5.550  0.8972 -0.0724 -1.1792
17487TIP3    H273953   3.321   3.072   5.527 -0.1686 -0.4998 -0.0045
17488TIP3   OH273954   1.197   0.118  15.584  0.5667 -0.2921 -0.5878
17488TIP3    H173955   1.231   0.028  15.580  1.1922 -0.0098 -1.8180
17488TIP3    H273956   1.180   0.141  15.493  1.4449  1.2428 -0.3804
17489TIP3   OH273957   6.308   6.280  15.312 -0.2122  0.0834 -0.7127
17489TIP3    H173958   6.234   6.341  15.319 -1.6574 -1.4015 -2.2567
17489TIP3    H273959   6.347   6.300  15.227 -0.3234 -0.7092 -0.9578
17490TIP3   OH273960   6.747   4.493   4.750 -0.6222  0.0448 -0.8886
17490TIP3    H173961   6.776   4.407   4.718  1.5077  0.1673  0.4657
17490TIP3    H273962   6.751   4.485   4.845 -1.0992  1.4434 -0.7275
17491TIP3   OH273963   6.582   1.902   1.880  0.0827  0.1759 -0.0969
17491TIP3    H173964   6.660   1.949   1.850 -0.2141 -0.6458 -2.3757
17491TIP3    H273965   6.613   1.848   1.953  1.2434  1.1299  0.1509
17492TIP3   OH273966   4.124   4.785   6.094 -0.3108  0.0773 -0.0588
17492TIP3    H173967   4.081   4.822   6.017  0.9306  1.5785 -0.0834
17492TIP3    H273968   4.064   4.804   6.166 -0.7540  0.0836 -0.4260
17493TIP3   OH273969   2.440   3.250   1.141  0.0397 -0.1327 -0.0206
17493TIP3    H173970   2.486   3.292   1.069  0.8119  1.8446  1.5366
17493TIP3    H273971   2.510   3.213   1.195 -0.4927 -1.0124  0.0847
17494TIP3   OH273972   2.218   2.228   1.179  0.2912 -0.1749  0.5100
17494TIP3    H173973   2.256   2.256   1.096  0.9471 -1.2070  0.4361
17494TIP3    H273974   2.137   2.278   1.187 -0.1251 -0.5277 -1.0710
17495TIP3   OH273975   5.051   2.662   6.491 -0.6847 -0.9716 -0.0031
17495TIP3    H173976   5.100   2.701   6.418  0.1723 -0.5978  0.7572
17495TIP3    H273977   4.978   2.618   6.449 -0.8887  0.2568 -1.0045
17496TIP3   OH273978   3.594   0.327  14.058  0.4271  0.2139  0.1571
17496TIP3    H173979   3.674   0.309  14.009  0.6313 -1.1175  0.9153
17496TIP3    H273980   3.592   0.259  14.126 -0.6313  1.0714  1.0189
17497TIP3   OH273981   6.721   4.763   3.174 -0.0574 -0.6914  0.0529
17497TIP3    H173982   6.766   4.678   3.181  1.6074  0.2440  1.5062
17497TIP3    H273983   6.749   4.797   3.089  1.8703 -0.2557  0.8028
17498TIP3   OH273984   1.262   6.612   0.017  0.1435  0.3789 -0.4606
17498TIP3    H173985   1.294   6.543  -0.041 -0.6947  0.1708 -0.6769
17498TIP3    H273986   1.259   6.691  -0.039  0.3990  0.4307 -0.4041
17499TIP3   OH273987   6.035   2.541  14.885 -0.0762 -0.5462 -0.2551
17499TIP3    H173988   6.041   2.525  14.791  1.2201 -2.1326  0.0621
17499TIP3    H273989   5.968   2.609  14.893 -1.9171 -1.9787 -2.1591
17500TIP3   OH273990   3.645   3.702  14.129  0.0329 -0.3258 -0.5212
17500TIP3    H173991   3.708   3.658  14.073  1.5067 -1.1433  1.6593
17500TIP3    H273992   3.696   3.735  14.202 -1.8838  0.1547  0.6885
17501TIP3   OH273993   2.486   1.089  16.817 -0.2641  0.5379 -0.3032
17501TIP3    H173994   2.445   1.071  16.732 -1.8493  0.0538  0.5197
17501TIP3    H273995   2.577   1.059  16.806 -0.3611  0.7102 -1.8837
17502TIP3   OH273996   2.319   6.779  12.894 -0.2464 -0.2374 -0.1180
17502TIP3    H173997   2.304   6.827  12.976  2.4116  0.0201  0.2897
17502TIP3    H273998   2.402   6.734  12.906  1.6688  1.8831 -3.5241
17503TIP3   OH273999   0.120   4.093  12.699 -0.1233 -0.2942  0.0957
17503TIP3    H174000   0.110   4.184  12.671  0.9137 -0.4211 -0.7757
17503TIP3    H274001   0.204   4.092  12.745  0.2584 -0.9360 -0.5791
17504TIP3   OH274002   5.707   5.795   4.646  0.4128  0.3101  0.6107
17504TIP3    H174003   5.617   5.809   4.675 -0.0775  0.4836 -0.8876
17504TIP3    H274004   5.739   5.723   4.699 -1.1718 -0.8309  0.0856
17505TIP3   OH274005   3.415   3.398  14.525  0.3113 -0.3419  0.0475
17505TIP3    H174006   3.402   3.450  14.604 -0.7527  0.9391 -0.9263
17505TIP3    H274007   3.326   3.379  14.494  0.7087 -0.8344 -0.8416
17506TIP3   OH274008   1.671   2.157   4.377  0.3174  0.1740 -0.2715
17506TIP3    H174009   1.740   2.208   4.334  1.2810 -2.1075 -1.6914
17506TIP3    H274010   1.719   2.089   4.425 -0.9121 -0.0319  0.7054
17507TIP3   OH274011   1.490   1.795  13.641 -0.1066 -0.4145 -0.0205
17507TIP3    H174012   1.524   1.764  13.725  1.5028  0.7660 -0.1824
17507TIP3    H274013   1.449   1.879  13.661 -0.0875 -0.3233 -0.3564
17508TIP3   OH274014   5.946   5.813   6.250 -0.2080 -0.1564  0.1571
17508TIP3    H174015   5.996   5.892   6.272 -1.6723  0.8706 -0.0285
17508TIP3    H274016   5.985   5.783   6.167  0.9877 -0.2061  0.7170
17509TIP3   OH274017   2.025   3.230  13.459 -0.4034 -0.0627  0.4433
17509TIP3    H174018   2.041   3.169  13.530 -1.5532  0.4686  1.1779
17509TIP3    H274019   1.991   3.176  13.387  1.0095 -0.6356  0.1744
17510TIP3   OH274020   5.310   4.145   5.985  0.3108  0.1824 -0.3729
17510TIP3    H174021   5.329   4.200   5.909  0.6330 -0.0266 -0.4458
17510TIP3    H274022   5.298   4.207   6.057 -1.8644  0.5159 -0.9439
17511TIP3   OH274023   6.615   3.384  11.338 -0.0197 -0.4479  0.1197
17511TIP3    H174024   6.587   3.457  11.284  0.3049 -0.9387 -0.7336
17511TIP3    H274025   6.534   3.351  11.378 -0.3507 -0.4741 -0.5670
17512TIP3   OH274026   6.079   0.037   3.537  0.5582  0.1293 -0.2337
17512TIP3    H174027   6.079   0.063   3.629  1.4072  0.9012 -0.4404
17512TIP3    H274028   6.015   0.094   3.495  0.9446  0.5038 -0.3150
17513TIP3   OH274029   5.156   4.140  14.746 -0.3147  0.3962 -0.5511
17513TIP3    H174030   5.215   4.082  14.698  0.7527  0.1594  0.9646
17513TIP3    H274031   5.181   4.129  14.838 -1.2028  2.0118 -0.0726
17514TIP3   OH274032   3.711   6.528   0.938  0.4436  0.0237 -0.5251
17514TIP3    H174033   3.636   6.553   0.884  0.9003  1.6628 -0.4417
17514TIP3    H274034   3.762   6.469   0.882 -0.7627 -0.9475 -0.6541
17515TIP3   OH274035   3.201   5.645   0.129  0.1185 -0.2444 -0.4152
17515TIP3    H174036   3.196   5.647   0.224 -3.2809  0.7278 -0.4528
17515TIP3    H274037   3.127   5.590   0.102 -0.4491  1.3435 -2.4571
17516TIP3   OH274038   4.028   0.034   5.526  0.0041 -0.2592  0.2526
17516TIP3    H174039   4.107  -0.001   5.484 -0.7707 -1.2998 -0.3855
17516TIP3    H274040   4.050   0.039   5.619  0.5451 -1.3436  0.1997
17517TIP3   OH274041   1.956   6.612  10.461  0.2651  0.5140  0.0395
17517TIP3    H174042   1.934   6.685  10.519  0.4143  0.2714  0.4031
17517TIP3    H274043   1.958   6.536  10.518  0.8557  0.3455 -0.2006
17518TIP3   OH274044   5.523   4.076  15.390 -0.1326 -1.0621  0.4402
17518TIP3    H174045   5.455   4.123  15.342  0.4649  0.0999  0.6836
17518TIP3    H274046   5.510   4.101  15.482  1.0616 -0.1985  0.4049
17519TIP3   OH274047   1.790   1.048   1.225 -0.0132  0.5346  0.0711
17519TIP3    H174048   1.773   1.081   1.137  0.2982 -0.3567 -0.3314
17519TIP3    H274049   1.771   1.122   1.282 -1.8319  0.6389 -0.6130
17520TIP3   OH274050   3.609   1.764  13.404  0.2912  0.6282  0.0493
17520TIP3    H174051   3.590   1.853  13.376 -1.1011  0.3499  0.0474
17520TIP3    H274052   3.610   1.712  13.323  0.4114  0.5128  0.1226
17521TIP3   OH274053   4.756   2.004   5.008  0.2688  0.2821 -0.3572
17521TIP3    H174054   4.785   2.011   4.917  0.4020 -0.7363 -0.4085
17521TIP3    H274055   4.811   2.066   5.056  0.9237  0.0551 -0.8115
17522TIP3   OH274056   3.276   6.027   3.066 -0.2267 -0.0691 -0.4514
17522TIP3    H174057   3.364   6.064   3.056 -0.3524  0.7324  1.0831
17522TIP3    H274058   3.218   6.104   3.066 -0.6479 -0.3506  1.2414
17523TIP3   OH274059   6.084   2.666   4.117 -0.5440 -0.2744  0.8960
17523TIP3    H174060   6.129   2.750   4.129  0.0725 -0.2236 -1.3190
17523TIP3    H274061   5.991   2.690   4.107 -0.4930  0.0492  1.1754
17524TIP3   OH274062   1.379   2.697  14.124 -0.4480 -0.5230 -0.3701
17524TIP3    H174063   1.401   2.644  14.200  3.3012  0.1494 -0.7676
17524TIP3    H274064   1.304   2.750  14.151 -0.0290 -1.2204  2.3899
17525TIP3   OH274065   0.449   6.597  15.562 -0.5593  0.2163  0.4219
17525TIP3    H174066   0.437   6.682  15.604  1.4712  0.9493 -0.3882
17525TIP3    H274067   0.517   6.554  15.612 -0.1156 -0.0654 -0.4027
17526TIP3   OH274068   4.063   0.118   3.997 -0.5968 -0.1700 -0.3139
17526TIP3    H174069   4.003   0.142   3.926 -2.1813 -0.4239  0.9019
17526TIP3    H274070   4.007   0.087   4.067  0.9547 -0.1683  0.9892
17527TIP3   OH274071   1.419   3.492  11.942  0.4250  0.4776 -0.0231
17527TIP3    H174072   1.391   3.576  11.905  1.1529  0.4792 -0.5903
17527TIP3    H274073   1.468   3.450  11.871 -1.1500 -1.0673 -0.2718
17528TIP3   OH274074   0.768   3.383  10.120  0.5836 -0.0128  0.2346
17528TIP3    H174075   0.837   3.441  10.153 -0.4348 -0.2301  3.0247
17528TIP3    H274076   0.708   3.442  10.075  1.3544  0.5500 -0.0811
17529TIP3   OH274077   1.205   0.329  11.227  0.0855 -0.2722 -0.2320
17529TIP3    H174078   1.268   0.266  11.192  0.6644  0.2722 -0.1918
17529TIP3    H274079   1.258   0.406  11.249 -0.4666 -0.1212  0.6173
17530TIP3   OH274080   3.382   5.753   1.368  0.5649 -0.3491  0.4453
17530TIP3    H174081   3.293   5.718   1.372 -0.7360  2.2950 -1.9130
17530TIP3    H274082   3.396   5.792   1.455 -1.3860  0.8288  0.2974
17531TIP3   OH274083   3.382   0.804  11.080 -0.0875  0.3624  0.3851
17531TIP3    H174084   3.475   0.818  11.096  0.1449  0.0422 -0.5726
17531TIP3    H274085   3.348   0.890  11.054 -0.1269  0.5427  1.0342
17532TIP3   OH274086   4.367   0.140   6.621 -0.1215  0.1937 -0.4173
17532TIP3    H174087   4.314   0.061   6.622  0.6740 -0.3783 -1.1436
17532TIP3    H274088   4.330   0.193   6.550  0.1637 -0.1236 -0.8047
17533TIP3   OH274089   2.095   2.886  13.319 -0.1877 -0.0800  0.1171
17533TIP3    H174090   2.085   2.802  13.276  0.5818 -0.0697 -0.0964
17533TIP3    H274091   2.005   2.915  13.337 -0.4764 -2.1813  2.6495
17534TIP3   OH274092   0.839   4.402   3.223 -0.2534 -0.1564 -1.0346
17534TIP3    H174093   0.851   4.479   3.166 -0.1581  1.2495  0.7684
17534TIP3    H274094   0.747   4.380   3.214 -0.0569 -0.5688 -2.4004
17535TIP3   OH274095   4.790   4.544  15.706  0.9034 -0.2641 -0.3022
17535TIP3    H174096   4.737   4.473  15.670  0.1119  1.1318 -2.1018
17535TIP3    H274097   4.730   4.619  15.708  2.1324  0.7449 -0.0323
17536TIP3   OH274098   2.457   1.445  12.077 -0.4993 -0.3508 -0.2809
17536TIP3    H174099   2.470   1.536  12.052  0.7829 -0.1789  0.8607
17536TIP3    H274100   2.543   1.416  12.108 -1.7627 -0.6555  3.4160
17537TIP3   OH274101   3.176   0.700   4.882 -0.2460  0.1123  0.0324
17537TIP3    H174102   3.257   0.730   4.840  0.1968 -0.4347  0.4830
17537TIP3    H274103   3.160   0.765   4.951 -1.0210  1.0578 -1.0128
17538TIP3   OH274104   6.361   4.025   0.565 -0.7879  0.2142  0.0962
17538TIP3    H174105   6.438   4.017   0.510  1.1174  2.0182  2.2797
17538TIP3    H274106   6.317   3.940   0.558  1.0464 -0.6601 -1.6997
17539TIP3   OH274107   0.695   1.741   1.288 -0.5742  0.0537 -0.3628
17539TIP3    H174108   0.697   1.742   1.193 -0.1214  0.7192 -0.3574
17539TIP3    H274109   0.775   1.788   1.314 -0.2733 -0.8037  0.3456
17540TIP3   OH274110   3.249   4.032   4.460 -0.7965  0.6232  0.3261
17540TIP3    H174111   3.261   3.940   4.485 -1.8904 -0.3819 -2.4265
17540TIP3    H274112   3.167   4.058   4.502 -0.5581  0.2994  1.0016
17541TIP3   OH274113   6.366   5.385   0.627  0.0228 -0.1775 -0.2477
17541TIP3    H174114   6.400   5.314   0.682 -0.6469 -0.1193  0.2599
17541TIP3    H274115   6.443   5.423   0.586  0.3327 -1.7064 -1.1518
17542TIP3   OH274116   5.915   6.311   5.390  0.5991  0.5216  0.0386
17542TIP3    H174117   5.881   6.391   5.350 -1.0106  0.4598  1.1741
17542TIP3    H274118   5.919   6.331   5.484  1.0242 -0.4352  0.2383
17543TIP3   OH274119   6.693   1.186   5.768 -0.0594 -0.3258 -0.0210
17543TIP3    H174120   6.701   1.281   5.776 -1.5758 -0.2501  1.1632
17543TIP3    H274121   6.783   1.154   5.765  0.5018  1.0144  1.2857
17544TIP3   OH274122   2.524   2.172  10.187 -0.3929  0.0977 -0.2201
17544TIP3    H174123   2.519   2.088  10.141 -0.2576 -0.5997  0.9909
17544TIP3    H274124   2.609   2.208  10.161 -0.0855 -0.5280 -0.1136
17545TIP3   OH274125   4.060   6.527  11.231  0.2739  0.0715  0.2264
17545TIP3    H174126   4.105   6.535  11.148  0.2771 -0.5544  0.1622
17545TIP3    H274127   3.975   6.569  11.217  0.6600  0.8734  0.2234
17546TIP3   OH274128   3.145   0.599  16.800 -0.3536 -0.0608  0.3766
17546TIP3    H174129   3.178   0.527  16.855  0.5936 -0.9253 -1.2421
17546TIP3    H274130   3.050   0.597  16.814 -0.1891 -0.5213  1.6369
17547TIP3   OH274131   1.270   5.099   4.434 -0.3484 -0.3519  0.0676
17547TIP3    H174132   1.193   5.055   4.399  0.1470 -1.6042  0.4952
17547TIP3    H274133   1.245   5.123   4.523 -0.4778 -0.1235 -0.0286
17548TIP3   OH274134   1.294   2.427   3.666 -0.7732  0.6335  0.0826
17548TIP3    H174135   1.343   2.353   3.701 -1.0458 -1.3391 -3.2480
17548TIP3    H274136   1.223   2.442   3.729  0.9289  0.0307  2.2697
17549TIP3   OH274137   5.342   6.081   2.462  0.0751 -0.5745 -0.2818
17549TIP3    H174138   5.266   6.128   2.497 -0.6478  0.4697 -3.0155
17549TIP3    H274139   5.310   5.993   2.443  0.0163 -0.6385  0.1105
17550TIP3   OH274140   1.185   6.617   3.617  0.8543 -0.9665  0.2405
17550TIP3    H174141   1.129   6.639   3.543  0.6000 -1.9185  0.1289
17550TIP3    H274142   1.125   6.577   3.681  1.5005 -2.8294 -0.2389
17551TIP3   OH274143   0.222   3.562   4.824  0.0645  0.3283 -0.1797
17551TIP3    H174144   0.146   3.546   4.768 -0.6163  0.8705  0.5694
17551TIP3    H274145   0.259   3.476   4.840 -0.5312  0.0315 -0.3768
17552TIP3   OH274146   2.488   6.498  11.279 -0.6099  0.8154  0.3381
17552TIP3    H174147   2.511   6.420  11.330 -1.4944  0.0913 -0.3180
17552TIP3    H274148   2.392   6.497  11.275 -0.6149  1.7064 -0.0359
17553TIP3   OH274149   2.585   0.157  11.699 -0.2676  0.3550 -0.1778
17553TIP3    H174150   2.512   0.218  11.687 -1.7793 -1.5114 -1.0642
17553TIP3    H274151   2.655   0.191  11.643 -1.1474  1.1557 -0.8079
17554TIP3   OH274152   6.674   6.759   4.381  0.0030  0.3028  0.1577
17554TIP3    H174153   6.603   6.798   4.433 -1.2898 -2.2736  0.4830
17554TIP3    H274154   6.713   6.694   4.439  0.5347 -0.5157 -1.0785
17555TIP3   OH274155   2.362   5.553  13.609  0.5082  0.7794 -0.5662
17555TIP3    H174156   2.440   5.530  13.660 -0.7477  2.7218  2.5003
17555TIP3    H274157   2.325   5.468  13.582  1.2431 -0.3809  1.8350
17556TIP3   OH274158   2.731   4.460  12.632 -0.1882 -0.0149 -0.0666
17556TIP3    H174159   2.729   4.502  12.546  1.9172 -0.5202 -0.4101
17556TIP3    H274160   2.699   4.527  12.692 -1.5584  0.4009 -1.1981
17557TIP3   OH274161   1.120   1.340  10.226  0.0496 -0.1170  0.2378
17557TIP3    H174162   1.215   1.336  10.212  0.4903  1.9852  2.0484
17557TIP3    H274163   1.108   1.305  10.314 -0.7667  0.2860  0.2979
17558TIP3   OH274164   5.953   6.532   1.154  0.2096  0.3464 -0.1615
17558TIP3    H174165   6.017   6.582   1.205 -0.7546  1.9902 -0.4733
17558TIP3    H274166   5.908   6.477   1.219  1.2574 -0.1075  0.1969
17559TIP3   OH274167   0.979   5.082  15.494 -0.1996  0.6127  0.7050
17559TIP3    H174168   0.992   5.109  15.585  1.3620  1.4157  0.2771
17559TIP3    H274169   1.066   5.087  15.455 -0.2171 -2.8215 -0.0440
17560TIP3   OH274170   0.426   0.539   4.417 -0.7214  0.1022 -0.1333
17560TIP3    H174171   0.444   0.558   4.509 -0.3146 -0.4963 -0.0784
17560TIP3    H274172   0.436   0.444   4.411  1.1039  0.3332 -1.1970
17561TIP3   OH274173   3.953   2.015  13.782 -0.2006  0.3920 -0.4523
17561TIP3    H174174   3.915   2.056  13.859 -0.0016 -0.1154 -0.0811
17561TIP3    H274175   4.044   1.999  13.805  0.5120  2.3565 -1.6278
17562TIP3   OH274176   4.029   6.009   1.237 -0.2516  0.6955 -0.1362
17562TIP3    H174177   4.007   6.007   1.330 -0.6153  1.6643 -0.1956
17562TIP3    H274178   4.084   6.086   1.226  0.9569 -0.1930 -0.4884
17563TIP3   OH274179   4.584   5.172   1.940  0.2867  0.3557  0.4553
17563TIP3    H174180   4.509   5.228   1.922  0.5487  0.2388 -1.1746
17563TIP3    H274181   4.654   5.232   1.967  0.8195  0.9921 -2.0767
17564TIP3   OH274182   6.370   0.109   1.070  0.0568 -0.7997  0.5613
17564TIP3    H174183   6.297   0.049   1.057  0.3914 -1.4352  1.4483
17564TIP3    H274184   6.446   0.052   1.078  0.7653 -0.1130 -1.0175
17565TIP3   OH274185   3.939   3.686   2.396  0.0700  0.4256  0.0614
17565TIP3    H174186   3.999   3.616   2.371 -0.3754 -0.1160  0.4887
17565TIP3    H274187   3.864   3.675   2.338 -0.2230  0.2215  0.4703
17566TIP3   OH274188   5.622   4.543   3.632 -0.6127 -0.2119  0.5101
17566TIP3    H174189   5.555   4.480   3.658 -0.3835 -0.3576  0.7570
17566TIP3    H274190   5.617   4.613   3.697  1.0798 -1.3701  1.9859
17567TIP3   OH274191   1.613   0.543  10.693  0.1535 -0.2964  0.1443
17567TIP3    H174192   1.628   0.616  10.632  1.3337  0.4815  1.3160
17567TIP3    H274193   1.603   0.466  10.636 -2.1914  0.8803 -1.1842
17568TIP3   OH274194   6.786   0.293   5.288  0.0202 -0.7596  0.0975
17568TIP3    H174195   6.698   0.273   5.318 -0.5025  0.2885 -0.6456
17568TIP3    H274196   6.773   0.337   5.203  1.2366 -0.3892  0.0765
17569TIP3   OH274197   4.294   0.391  14.546  0.1587 -0.4043  0.4922
17569TIP3    H174198   4.320   0.389  14.454 -1.8376 -1.1352 -0.0964
17569TIP3    H274199   4.219   0.332  14.551  0.8393 -1.1940  2.8088
17570TIP3   OH274200   5.919   2.088  12.971 -0.4484  0.8547  0.4395
17570TIP3    H174201   5.925   2.020  12.904 -1.1636 -1.4605  2.5773
17570TIP3    H274202   5.853   2.149  12.937 -1.4665 -0.7369 -0.5828
17571TIP3   OH274203   6.507   5.748  15.708  0.6009 -0.4620 -0.0727
17571TIP3    H174204   6.463   5.732  15.625 -0.4323  0.4376  0.2717
17571TIP3    H274205   6.461   5.692  15.771  1.6874 -1.4980 -0.1815
17572TIP3   OH274206   5.162   3.698  15.630  0.3460 -0.3113 -0.3549
17572TIP3    H174207   5.238   3.648  15.599  0.8016  0.6271 -0.7711
17572TIP3    H274208   5.097   3.686  15.560  0.9315  0.7639 -1.1156
17573TIP3   OH274209   5.624   1.912   3.803 -0.0361  0.1573  0.3354
17573TIP3    H174210   5.706   1.907   3.851 -1.0994 -1.2851  2.1524
17573TIP3    H274211   5.596   2.003   3.813  0.5485  0.2595  1.1145
17574TIP3   OH274212   6.427   1.421  14.493  0.3908  0.2522 -0.2341
17574TIP3    H174213   6.487   1.470  14.436  3.6880  0.0390  2.7145
17574TIP3    H274214   6.382   1.489  14.544  0.2885  0.3563 -0.4626
17575TIP3   OH274215   3.847   6.213  15.566  0.4038  0.5289 -0.0175
17575TIP3    H174216   3.821   6.122  15.581 -1.4229  1.2614  1.7733
17575TIP3    H274217   3.835   6.226  15.472 -0.5230 -0.7353 -0.1057
17576TIP3   OH274218   2.790   2.640   1.762  0.5009  0.1354  0.0849
17576TIP3    H174219   2.773   2.679   1.677 -0.0181 -0.4847 -0.1068
17576TIP3    H274220   2.873   2.679   1.791  0.1960  1.0652 -0.2678
17577TIP3   OH274221   2.244   1.541   3.696 -0.4348 -0.0438  0.3560
17577TIP3    H174222   2.261   1.530   3.603 -0.7270  0.1478  0.2786
17577TIP3    H274223   2.320   1.590   3.729 -0.7869  0.7184  0.0352
17578TIP3   OH274224   0.508   1.172  13.742 -0.2173 -0.0350  0.0361
17578TIP3    H174225   0.588   1.223  13.745 -0.9199  1.1474 -0.8847
17578TIP3    H274226   0.537   1.081  13.753  1.2787  0.3324 -0.7203
17579TIP3   OH274227   1.667   1.230   2.062 -0.2080  0.0710  0.4745
17579TIP3    H174228   1.734   1.265   2.122 -1.2374 -1.6083  2.7801
17579TIP3    H274229   1.713   1.220   1.979  1.6412  1.4767  1.2386
17580TIP3   OH274230   0.137   1.993   0.298 -0.1005 -0.0130 -0.0850
17580TIP3    H174231   0.084   1.916   0.321  0.3316 -0.3784 -0.2852
17580TIP3    H274232   0.090   2.067   0.335  0.1573 -0.5053  1.3039
17581TIP3   OH274233   2.912   1.249  12.645  0.4889 -0.2578  0.4813
17581TIP3    H174234   2.869   1.195  12.578  0.5959  0.6725 -0.3534
17581TIP3    H274235   2.890   1.206  12.727 -0.5994 -0.7820 -0.0599
17582TIP3   OH274236   4.872   4.668  11.362 -0.3796 -0.2936  0.0725
17582TIP3    H174237   4.793   4.704  11.321 -2.5898 -2.6897  1.8199
17582TIP3    H274238   4.910   4.611  11.296  1.0732  2.2520 -1.4282
17583TIP3   OH274239   5.037   5.616   0.471 -0.4239  0.5157 -0.5582
17583TIP3    H174240   5.089   5.578   0.401 -1.4833 -1.5439 -0.3275
17583TIP3    H274241   5.084   5.593   0.551 -0.1739  1.2494 -0.4871
17584TIP3   OH274242   3.831   4.430  16.386 -0.1862  0.3158 -0.0633
17584TIP3    H174243   3.763   4.427  16.319  1.0961  2.2987 -1.5911
17584TIP3    H274244   3.799   4.492  16.451 -0.2545  0.5023 -0.2769
17585TIP3   OH274245   5.121   5.777  15.554  0.0376  0.1083 -0.2002
17585TIP3    H174246   5.155   5.866  15.555 -1.2569  0.6955 -2.1323
17585TIP3    H274247   5.093   5.760  15.644  0.4945  1.5488  0.2341
17586TIP3   OH274248   2.044   2.014  12.648 -0.1127 -0.0987  0.4538
17586TIP3    H174249   1.953   1.985  12.658 -0.1930  0.2075  0.6156
17586TIP3    H274250   2.061   2.009  12.554 -0.2121 -0.4126  0.4512
17587TIP3   OH274251   4.027   4.738   4.018 -0.1821 -0.1595 -0.1050
17587TIP3    H174252   3.980   4.659   3.990 -2.2986  1.4198 -1.3343
17587TIP3    H274253   4.088   4.757   3.947  0.5891 -0.8409  0.3555
17588TIP3   OH274254   1.515   2.432   2.183 -0.2134  0.1386 -0.0601
17588TIP3    H174255   1.564   2.447   2.103  0.8307  0.6609  0.6586
17588TIP3    H274256   1.443   2.374   2.157 -1.2671  2.1261 -1.8410
17589TIP3   OH274257   3.514   4.897  12.738  0.2801  0.1482 -0.3591
17589TIP3    H174258   3.609   4.883  12.741  0.6295  1.5475 -2.6975
17589TIP3    H274259   3.481   4.848  12.813  2.7603 -1.0285  0.0804
17590TIP3   OH274260   0.620   3.184  13.845 -0.7526  0.0042 -0.2166
17590TIP3    H174261   0.710   3.210  13.826 -0.0108 -1.9829  0.3383
17590TIP3    H274262   0.578   3.264  13.877  0.1231  1.5367 -2.6353
17591TIP3   OH274263   4.139   0.332  15.153  0.4448 -0.8777 -0.4822
17591TIP3    H174264   4.106   0.422  15.148  0.3221 -0.8886  0.0863
17591TIP3    H274265   4.147   0.315  15.247 -0.2230 -1.7174 -0.5735
17592TIP3   OH274266   6.425   1.338   5.312 -0.2105 -0.1079 -0.1006
17592TIP3    H174267   6.475   1.349   5.393 -1.2979  2.2624  0.3466
17592TIP3    H274268   6.490   1.310   5.247  0.8906 -0.9938  1.3224
17593TIP3   OH274269   2.140   2.272   6.655 -0.6561  0.2733 -0.2724
17593TIP3    H174270   2.045   2.262   6.662 -0.4962 -1.6832 -0.2208
17593TIP3    H274271   2.175   2.196   6.702  0.9110  0.4823 -1.0481
17594TIP3   OH274272   6.175   3.431  13.675 -0.2183 -1.0414 -1.0186
17594TIP3    H174273   6.231   3.494  13.630  0.6861 -0.2989  1.0450
17594TIP3    H274274   6.206   3.346  13.645 -0.5086 -0.5889 -2.7357
17595TIP3   OH274275   3.889   2.951  15.340  0.1082 -0.6022  0.2036
17595TIP3    H174276   3.856   2.968  15.428 -1.3289 -2.2837  0.0438
17595TIP3    H274277   3.966   3.008  15.332 -0.1508  0.1265  2.2549
17596TIP3   OH274278   2.291   1.253  16.258  0.6471  0.7135  0.1181
17596TIP3    H174279   2.209   1.279  16.215  0.1164  1.3548  1.4552
17596TIP3    H274280   2.268   1.173  16.306  1.6919 -1.0265 -2.1520
17597TIP3   OH274281   0.954   0.005  15.140 -0.8535 -0.5142  0.4470
17597TIP3    H174282   0.930  -0.079  15.102 -0.8932 -0.0178 -0.6609
17597TIP3    H274283   1.008   0.047  15.074 -2.0355  0.9449  0.3322
17598TIP3   OH274284   3.971   6.165   0.355 -0.0324 -0.3314  0.3056
17598TIP3    H174285   3.912   6.093   0.332  2.5092 -2.0873 -1.3219
17598TIP3    H274286   3.959   6.229   0.286  0.6133 -1.1455 -0.5911
17599TIP3   OH274287   6.542   3.958  16.629 -0.3816 -0.6041  0.1959
17599TIP3    H174288   6.551   3.920  16.716 -0.3267 -1.3173 -0.1120
17599TIP3    H274289   6.483   4.032  16.641 -2.7896 -2.4028  0.3842
17600TIP3   OH274290   0.867   0.758  16.239 -0.2137 -0.5584 -0.1105
17600TIP3    H174291   0.916   0.840  16.230 -0.5610 -0.2302  0.9052
17600TIP3    H274292   0.827   0.745  16.153  1.0484 -0.4484 -0.7329
17601TIP3   OH274293   1.739   3.512  11.731  0.4473  0.8359 -0.5617
17601TIP3    H174294   1.783   3.512  11.646  1.0729 -1.1884 -0.2750
17601TIP3    H274295   1.709   3.603  11.742  1.9559  1.5760 -2.0967
17602TIP3   OH274296   2.893   6.202  12.444 -1.0468  0.4079 -0.4661
17602TIP3    H174297   2.977   6.176  12.405 -1.4343 -1.9804  0.1236
17602TIP3    H274298   2.862   6.274  12.390  1.0204  0.8518 -1.1544
17603TIP3   OH274299   0.320   5.097   3.190 -0.5621 -0.3322 -0.7704
17603TIP3    H174300   0.363   5.123   3.109  1.1933  0.6069  0.4142
17603TIP3    H274301   0.290   5.179   3.229 -0.0483 -0.6095  0.2452
17604TIP3   OH274302   0.962   6.280   2.880 -0.2749 -0.1154 -0.6823
17604TIP3    H174303   0.966   6.296   2.975  0.5464 -2.7350 -0.1813
17604TIP3    H274304   0.880   6.320   2.852 -0.3043  1.1358  1.0463
17605TIP3   OH274305   6.784   0.523   1.467 -0.1345  0.7197 -0.3105
17605TIP3    H174306   6.802   0.526   1.373  0.8542  0.2031 -0.1442
17605TIP3    H274307   6.724   0.449   1.478  0.4804  0.1970 -0.4245
17606TIP3   OH274308   3.847   3.860   1.136  0.0847 -0.6470 -0.2867
17606TIP3    H174309   3.806   3.919   1.072  0.6789  1.6470  1.3049
17606TIP3    H274310   3.782   3.853   1.206  0.6385 -0.6367  0.2299
17607TIP3   OH274311   5.470   4.985   4.966  0.4704 -0.1549  0.1032
17607TIP3    H174312   5.384   4.943   4.960  0.7903 -1.2739  2.3604
17607TIP3    H274313   5.450   5.077   4.985 -0.2981 -0.6077  1.7141
17608TIP3   OH274314   3.307   4.121   2.539 -0.9727  0.3475 -0.1495
17608TIP3    H174315   3.401   4.099   2.536 -1.3366 -1.6393  0.8237
17608TIP3    H274316   3.305   4.211   2.572  0.6038  0.6793 -0.8355
17609TIP3   OH274317   1.512   5.122   5.425  0.0243  0.4336  0.2670
17609TIP3    H174318   1.581   5.123   5.359  1.2300 -2.4555  1.3573
17609TIP3    H274319   1.473   5.210   5.419  0.3590  0.5223 -3.8958
17610TIP3   OH274320   5.714   2.786  11.182 -0.1600  0.4687 -0.3726
17610TIP3    H174321   5.664   2.867  11.178 -0.0903  0.6661  1.7640
17610TIP3    H274322   5.648   2.717  11.181 -0.3167  0.6181 -0.2296
17611TIP3   OH274323   5.438   5.553   1.025 -0.2508 -0.2638 -0.3609
17611TIP3    H174324   5.498   5.621   0.995 -0.5169  0.8658  1.4934
17611TIP3    H274325   5.494   5.490   1.070 -0.4207  1.5200  2.6728
17612TIP3   OH274326   3.242   5.549   0.397  0.0338 -0.0245  0.6255
17612TIP3    H174327   3.214   5.606   0.468  0.0962  0.1169  0.5357
17612TIP3    H274328   3.193   5.468   0.411 -1.1920  0.5773 -0.1219
17613TIP3   OH274329   3.072   2.768   5.316  0.1160  0.2129 -0.5848
17613TIP3    H174330   3.022   2.802   5.391 -0.1202 -0.2698 -0.5173
17613TIP3    H274331   3.047   2.676   5.311  2.4161 -0.5668  0.6182
17614TIP3   OH274332   2.867   0.658  16.946 -0.1073  0.5694 -0.7839
17614TIP3    H174333   2.903   0.589  17.001 -1.8932  0.1303 -0.1100
17614TIP3    H274334   2.774   0.660  16.967 -0.4977  1.6864 -2.4134
17615TIP3   OH274335   1.876   4.295  11.923 -0.3501  0.5384 -0.3253
17615TIP3    H174336   1.917   4.379  11.943  0.3933  0.2573 -0.6420
17615TIP3    H274337   1.796   4.294  11.975  0.0642  1.0804  0.3254
17616TIP3   OH274338   6.790   1.111   4.033 -0.2334 -0.1753 -0.1758
17616TIP3    H174339   6.815   1.111   4.125  0.1041 -1.6934 -0.2485
17616TIP3    H274340   6.872   1.127   3.986 -0.0180 -1.4717 -0.2734
17617TIP3   OH274341   0.271   0.932  12.320 -0.8115 -0.0181  0.5247
17617TIP3    H174342   0.213   0.975  12.257  1.1776  0.8069 -0.8782
17617TIP3    H274343   0.257   0.980  12.401 -1.4137  0.7757 -0.0257
17618TIP3   OH274344   5.895   0.083  12.443  0.0188  0.3613  0.6266
17618TIP3    H174345   5.951   0.016  12.404  1.2079  1.4672  0.3898
17618TIP3    H274346   5.823   0.094  12.380  1.1387  1.0714 -0.5660
17619TIP3   OH274347   3.044   6.477  14.978  0.3934 -0.3301 -0.7171
17619TIP3    H174348   2.959   6.483  15.022  1.5340  0.8454  1.4790
17619TIP3    H274349   3.029   6.515  14.892 -0.9907  1.3340  0.1938
17620TIP3   OH274350   4.158   0.846  15.875 -0.2857 -0.1169 -1.0229
17620TIP3    H174351   4.224   0.906  15.911  0.4607 -1.0654 -0.7601
17620TIP3    H274352   4.206   0.765  15.857 -1.4318 -0.9470 -0.5276
17621TIP3   OH274353   3.468   6.150   4.125 -0.3990 -0.5321  0.5863
17621TIP3    H174354   3.406   6.079   4.107 -0.3067 -0.9945  2.0164
17621TIP3    H274355   3.516   6.122   4.202  3.4797 -1.3912 -1.8446
17622TIP3   OH274356   1.010   5.083  14.839  0.0748  0.4702 -0.8018
17622TIP3    H174357   0.961   5.105  14.918  0.9180 -0.3112 -0.0366
17622TIP3    H274358   0.999   5.159  14.782 -1.0570  0.7877 -0.1977
17623TIP3   OH274359   1.120   0.873   0.210  0.1927 -0.1892  0.2660
17623TIP3    H174360   1.025   0.874   0.221 -0.0442  2.8401 -0.9905
17623TIP3    H274361   1.149   0.798   0.262 -2.8435 -1.2226  0.7097
17624TIP3   OH274362   3.202   4.811   4.865 -0.0727  0.4111 -0.0830
17624TIP3    H174363   3.201   4.752   4.940 -0.5662 -0.0252 -0.4234
17624TIP3    H274364   3.237   4.893   4.899 -2.8782  1.1415  1.3188
17625TIP3   OH274365   1.464   4.800  16.581  0.3283 -0.1727 -0.0306
17625TIP3    H174366   1.443   4.735  16.514  1.4160 -0.4907 -0.0893
17625TIP3    H274367   1.387   4.856  16.586 -1.3183 -2.4068  1.1636
17626TIP3   OH274368   5.143   3.218  12.084  0.2787 -0.6778 -0.2355
17626TIP3    H174369   5.104   3.275  12.151  0.2919  0.2995 -1.0298
17626TIP3    H274370   5.181   3.146  12.133  0.8505  0.3437  0.8756
17627TIP3   OH274371   6.001   4.853   4.286  0.6454  0.0242  0.7748
17627TIP3    H174372   5.993   4.895   4.200  0.9920 -0.8017  0.3287
17627TIP3    H274373   5.991   4.925   4.349  1.5321  0.8248  0.0222
17628TIP3   OH274374   3.079   0.731  13.602 -0.2201  0.2883 -0.2465
17628TIP3    H174375   3.028   0.662  13.561 -1.7342  2.0197 -1.3875
17628TIP3    H274376   3.030   0.754  13.681  0.6087 -0.3107  0.4703
17629TIP3   OH274377   3.239   0.066  11.805 -0.2699 -0.1764  0.5561
17629TIP3    H174378   3.268   0.146  11.761 -0.9313  1.4829  2.8801
17629TIP3    H274379   3.293   0.062  11.884 -0.6014 -1.7844  0.7344
17630TIP3   OH274380   0.997   4.444  14.746 -0.3836 -0.3071  0.1736
17630TIP3    H174381   1.056   4.498  14.800  1.5539 -1.8249 -0.3129
17630TIP3    H274382   0.952   4.507  14.690  1.0419  0.9223  0.3417
17631TIP3   OH274383   5.770   4.330  15.997 -0.1045  0.7113 -0.3044
17631TIP3    H174384   5.689   4.378  15.984 -1.3815 -1.0472  0.6842
17631TIP3    H274385   5.786   4.334  16.091  1.9903  2.5423 -0.6744
17632TIP3   OH274386   1.126   3.352  10.664 -0.1435  0.1592  0.3943
17632TIP3    H174387   1.204   3.400  10.634 -1.7178  2.0698 -0.9343
17632TIP3    H274388   1.093   3.404  10.737 -1.5237  0.8561 -0.6629
17633TIP3   OH274389   0.107   3.540   2.622 -0.0499  0.0520 -0.0531
17633TIP3    H174390   0.054   3.481   2.675 -0.2908 -1.0553 -1.4815
17633TIP3    H274391   0.196   3.505   2.628  0.2807  0.9928  1.0528
17634TIP3   OH274392   3.819   1.645   0.629 -0.3353 -0.1675 -0.4401
17634TIP3    H174393   3.874   1.587   0.682  0.4102  1.0194  0.1256
17634TIP3    H274394   3.759   1.585   0.583 -0.0330 -1.3330  0.6086
17635TIP3   OH274395   0.383   1.383   1.061 -0.2461 -0.3415 -0.3320
17635TIP3    H174396   0.414   1.331   1.135  2.6654  1.4987 -0.0754
17635TIP3    H274397   0.291   1.400   1.080 -0.2890 -2.2056  1.4318
17636TIP3   OH274398   3.484   2.220   6.095  0.4340 -0.0123  0.2433
17636TIP3    H174399   3.554   2.283   6.112  0.5867  0.0317 -0.5136
17636TIP3    H274400   3.520   2.136   6.123  0.8097  0.0039 -0.1866
17637TIP3   OH274401   0.236   6.784  15.843  0.1419  0.1633 -0.0528
17637TIP3    H174402   0.321   6.795  15.886  0.1881 -0.8399  0.1595
17637TIP3    H274403   0.208   6.696  15.869 -0.8642  0.3974 -0.2939
17638TIP3   OH274404   0.993   3.365  14.812  0.1502 -0.3176 -0.2017
17638TIP3    H174405   0.944   3.287  14.840 -1.9615  0.8374 -0.5111
17638TIP3    H274406   1.069   3.368  14.870 -0.5437 -1.7412  0.8311
17639TIP3   OH274407   3.661   6.284  13.999  0.0267  0.6391 -0.2739
17639TIP3    H174408   3.687   6.376  13.994  0.2461  0.6164  0.3847
17639TIP3    H274409   3.708   6.250  14.075 -1.1696  0.3389  0.3526
17640TIP3   OH274410   0.764   3.965   5.089 -0.2628 -0.0562 -0.3231
17640TIP3    H174411   0.811   3.925   5.016 -1.2552  1.2484 -1.7367
17640TIP3    H274412   0.833   4.009   5.140  0.2945  0.1375 -1.2236
17641TIP3   OH274413   2.728   4.309  14.589  0.5752 -0.1801  0.2585
17641TIP3    H174414   2.743   4.215  14.594  0.8252 -0.1819 -0.3471
17641TIP3    H274415   2.637   4.320  14.616  0.0466 -0.7879 -1.1333
17642TIP3   OH274416   5.791   1.222   3.792  0.1755 -0.1502 -0.4249
17642TIP3    H174417   5.720   1.228   3.856  0.8470 -2.3826  0.6431
17642TIP3    H274418   5.822   1.311   3.781 -1.0332  0.5040  1.1302
17643TIP3   OH274419   5.650   6.438   1.708  0.4115 -0.1038  0.0051
17643TIP3    H174420   5.706   6.458   1.783  1.0055 -0.5866 -0.2928
17643TIP3    H274421   5.712   6.423   1.636 -0.1455  0.2449 -0.5526
17644TIP3   OH274422   2.874   5.912   5.134  0.1786 -0.6548 -0.2033
17644TIP3    H174423   2.924   5.857   5.074  1.1547  0.9992 -0.9860
17644TIP3    H274424   2.935   5.981   5.160 -0.6753 -0.5323  1.5830
17645TIP3   OH274425   1.829   3.763  10.844 -0.1109  0.4564 -0.3490
17645TIP3    H174426   1.893   3.808  10.789  0.4071  0.1564 -0.0003
17645TIP3    H274427   1.767   3.832  10.868 -1.3252  0.2584 -2.6617
17646TIP3   OH274428   2.780   3.145  13.476 -0.1136 -0.2364 -0.2464
17646TIP3    H174429   2.691   3.175  13.457  0.0898  0.1551 -0.5871
17646TIP3    H274430   2.795   3.072  13.415  0.5177  0.9802 -1.6138
17647TIP3   OH274431   4.294   3.619  12.990 -0.2882 -0.3125 -0.6073
17647TIP3    H174432   4.375   3.652  13.030 -2.1413  1.1691  2.2177
17647TIP3    H274433   4.288   3.665  12.907  1.7541 -0.4932 -0.9132
17648TIP3   OH274434   3.694   1.394  16.014  0.5164 -0.5675 -0.1654
17648TIP3    H174435   3.635   1.437  15.953  0.5854  2.0571  1.4431
17648TIP3    H274436   3.771   1.371  15.962 -0.5405 -1.0152 -1.5891
17649TIP3   OH274437   2.554   4.067  14.929  0.8774 -0.0341  0.3933
17649TIP3    H174438   2.488   4.127  14.962  0.0009 -0.5077 -0.4415
17649TIP3    H274439   2.564   4.002  14.998  1.2046  0.5834  0.9358
17650TIP3   OH274440   4.286   6.652   0.799 -0.0749  0.2122 -0.0987
17650TIP3    H174441   4.271   6.746   0.790  1.1674  0.3996 -0.3558
17650TIP3    H274442   4.211   6.612   0.754 -1.3393  1.0384  1.2005
17651TIP3   OH274443   2.413   6.641   5.385 -0.2181 -0.4219  0.7848
17651TIP3    H174444   2.390   6.600   5.469  0.1174  0.3094  1.2486
17651TIP3    H274445   2.335   6.692   5.361  0.2065  0.5815  1.4329
17652TIP3   OH274446   3.730   2.329   3.901 -0.0776  0.1554  0.1826
17652TIP3    H174447   3.754   2.284   3.820 -0.5126 -0.2505  0.2713
17652TIP3    H274448   3.792   2.296   3.966 -0.3148 -0.2217  0.2185
17653TIP3   OH274449   2.340   3.136   2.890 -0.0600  0.2783  0.1247
17653TIP3    H174450   2.388   3.126   2.808 -0.3902 -1.1362  0.0741
17653TIP3    H274451   2.262   3.081   2.880 -1.0349  1.5016  0.7115
17654TIP3   OH274452   2.147   5.039  12.494  0.1285 -0.4300 -0.2561
17654TIP3    H174453   2.095   5.116  12.514 -0.5463 -1.1079  0.6219
17654TIP3    H274454   2.097   4.992  12.427 -0.8113 -1.4787  1.1356
17655TIP3   OH274455   6.242   0.071   6.336 -0.0913  0.7147 -0.1943
17655TIP3    H174456   6.303   0.045   6.405 -0.5037  2.1376  0.7669
17655TIP3    H274457   6.233  -0.006   6.281 -1.2682 -1.1913  2.4602
17656TIP3   OH274458   3.997   5.484   6.221  0.0232  0.0552  0.7023
17656TIP3    H174459   4.027   5.477   6.311 -0.7438 -0.7599  0.9093
17656TIP3    H274460   4.038   5.564   6.188  1.8877 -0.6634  1.1479
17657TIP3   OH274461   5.245   0.880  15.918 -0.0649 -0.3048 -0.8716
17657TIP3    H174462   5.285   0.797  15.890  0.9540 -0.2355  0.2844
17657TIP3    H274463   5.167   0.889  15.863 -0.5391 -2.3462 -0.6122
17658TIP3   OH274464   4.371   6.782  12.565 -0.2114  0.2095  0.0044
17658TIP3    H174465   4.354   6.873  12.592  0.5058  0.0708  0.9477
17658TIP3    H274466   4.462   6.783  12.535 -1.2276  0.5846 -3.4785
17659TIP3   OH274467   3.174   6.664  15.655 -0.4617 -0.1435  0.1523
17659TIP3    H174468   3.220   6.615  15.587  1.1915 -2.5511  2.7840
17659TIP3    H274469   3.233   6.737  15.676 -0.3104 -0.2158 -0.0221
17660TIP3   OH274470   6.800   4.003  16.261  0.3665  0.2405  0.6612
17660TIP3    H174471   6.796   4.087  16.215 -0.6404 -0.1183  0.0549
17660TIP3    H274472   6.722   3.956  16.231  0.5228 -0.6195  1.5622
17661TIP3   OH274473   4.337   4.662  14.282  0.1067 -0.1098  0.1442
17661TIP3    H174474   4.256   4.658  14.230 -0.2122 -1.9233  0.7279
17661TIP3    H274475   4.334   4.584  14.337  2.1597 -0.0864  0.3440
17662TIP3   OH274476   6.177   3.450  16.145  0.4034  0.1034 -0.5311
17662TIP3    H174477   6.160   3.518  16.209  1.3276  0.1845 -0.3696
17662TIP3    H274478   6.234   3.491  16.080 -0.7200  0.1028 -1.5588
17663TIP3   OH274479   2.904   0.962   3.448  0.1930 -0.4124 -0.3458
17663TIP3    H174480   2.818   0.933   3.479  0.2380 -0.1890 -0.0058
17663TIP3    H274481   2.886   1.042   3.399  0.2561 -0.1266  0.0951
17664TIP3   OH274482   1.606   3.172   4.987 -0.0009 -0.0750  0.2373
17664TIP3    H174483   1.546   3.162   4.913 -0.1828 -0.0813  0.3834
17664TIP3    H274484   1.568   3.117   5.056  0.9947 -1.2800 -0.1508
17665TIP3   OH274485   5.480   4.924   5.721 -0.1070 -1.2502  0.3206
17665TIP3    H174486   5.544   4.880   5.665 -0.7688 -0.9768 -0.6933
17665TIP3    H274487   5.442   4.853   5.774  1.1621 -1.3795  1.0984
17666TIP3   OH274488   4.997   1.356  14.884 -0.1405 -0.7108 -0.1314
17666TIP3    H174489   5.065   1.420  14.904 -1.1871  0.1948  0.6044
17666TIP3    H274490   5.044   1.272  14.879  1.4345  0.2233 -2.3469
17667TIP3   OH274491   3.224   6.314   1.199  0.3339  0.4060 -0.1338
17667TIP3    H174492   3.312   6.332   1.166  0.6529  0.1405  0.5385
17667TIP3    H274493   3.209   6.221   1.179 -0.4076  0.8267 -1.5974
17668TIP3   OH274494   2.435   4.694   0.695 -0.1257 -0.0770  0.0506
17668TIP3    H174495   2.415   4.782   0.728 -0.5568  0.0875 -0.6221
17668TIP3    H274496   2.359   4.642   0.719 -0.0561 -0.1617  0.0853
17669TIP3   OH274497   5.107   6.312  15.654 -0.0126 -0.1129  0.3169
17669TIP3    H174498   5.098   6.375  15.582 -2.1141 -0.1362  0.4782
17669TIP3    H274499   5.140   6.364  15.727  1.9408 -0.0430 -0.5690
17670TIP3   OH274500   6.500   4.533  13.489  0.7762  0.0313  0.1803
17670TIP3    H174501   6.534   4.458  13.538  0.2097 -0.1972  0.2279
17670TIP3    H274502   6.412   4.507  13.462  0.2705  0.9702  0.8562
17671TIP3   OH274503   2.867   5.578  15.851 -0.4324  0.3844  0.2569
17671TIP3    H174504   2.927   5.615  15.786 -1.3041  0.6848 -0.4007
17671TIP3    H274505   2.922   5.556  15.926  0.6552 -0.2435 -0.6914
17672TIP3   OH274506   4.231   5.620  13.165  0.1570 -0.2785  0.2112
17672TIP3    H174507   4.313   5.576  13.144 -0.5279 -1.6271  0.2408
17672TIP3    H274508   4.183   5.622  13.082  0.3167  0.7597  0.1286
17673TIP3   OH274509   3.665   0.788  11.037  0.2983  0.4273  0.9764
17673TIP3    H174510   3.692   0.735  10.962 -1.5960 -0.3200  0.7779
17673TIP3    H274511   3.740   0.846  11.053  1.9533 -1.4544  0.4432
17674TIP3   OH274512   1.575   3.818   3.340  0.1236  1.0260 -0.1341
17674TIP3    H174513   1.648   3.756   3.343 -0.8704 -0.4106 -2.7729
17674TIP3    H274514   1.522   3.796   3.416  0.4093 -0.6060 -0.3670
17675TIP3   OH274515   6.832   1.953  15.202  0.1399  1.0069 -0.6939
17675TIP3    H174516   6.867   1.909  15.125 -0.6182  0.2306 -0.6165
17675TIP3    H274517   6.905   1.956  15.264  0.0211 -0.8375 -0.4178
17676TIP3   OH274518   5.738   2.827   3.817  0.6333  0.4587  0.3150
17676TIP3    H174519   5.644   2.815   3.829  0.9679 -0.8905  1.9869
17676TIP3    H274520   5.752   2.921   3.824 -0.7680  0.8806 -1.6972
17677TIP3   OH274521   0.619   6.293  12.257  0.1884 -0.3015  0.0309
17677TIP3    H174522   0.586   6.381  12.240  1.8817  0.4374  0.3092
17677TIP3    H274523   0.630   6.291  12.352 -0.4955 -1.0713  0.0973
17678TIP3   OH274524   2.332   4.324  16.681 -0.3612 -0.2758 -0.0354
17678TIP3    H174525   2.401   4.380  16.647 -0.9212  0.6636  0.3257
17678TIP3    H274526   2.253   4.353  16.636 -0.6600 -0.8073  0.1336
17679TIP3   OH274527   1.860   6.597  13.530 -0.6926  0.4092 -0.5383
17679TIP3    H174528   1.940   6.578  13.480 -0.3677 -0.3704  0.2528
17679TIP3    H274529   1.876   6.683  13.568 -1.0459  1.1265 -1.9495
17680TIP3   OH274530   0.389   2.848  15.166  0.8368  0.0047 -0.0361
17680TIP3    H174531   0.415   2.940  15.168 -0.1670  0.5447 -4.0769
17680TIP3    H274532   0.309   2.847  15.113  1.6092 -3.3463 -1.3560
17681TIP3   OH274533   3.952   5.216   5.600 -0.1037 -0.0895 -0.2872
17681TIP3    H174534   3.969   5.125   5.625 -0.2977 -0.5482 -1.7461
17681TIP3    H274535   4.038   5.254   5.587 -0.0292 -0.5009 -1.0934
17682TIP3   OH274536   0.415   2.353   3.318  0.1627 -0.5047 -0.8805
17682TIP3    H174537   0.487   2.319   3.265 -0.7541  1.2476 -3.3634
17682TIP3    H274538   0.340   2.354   3.260 -1.4646 -0.5173  1.1059
17683TIP3   OH274539   0.601   4.939   0.907 -0.3947  0.0188  0.3119
17683TIP3    H174540   0.680   4.938   0.852 -0.9689 -1.3971 -0.5352
17683TIP3    H274541   0.613   5.015   0.964  1.9409 -0.5488  0.7216
17684TIP3   OH274542   5.064   5.973  16.889  0.0613  0.3937  0.4673
17684TIP3    H174543   5.098   5.971  16.800  0.8029 -0.2862  0.7500
17684TIP3    H274544   4.970   5.956  16.880  0.1644  0.1512 -0.1604
17685TIP3   OH274545   4.025   5.738  13.315 -0.3640  0.2868 -0.2921
17685TIP3    H174546   4.090   5.695  13.259  0.1835 -0.6442  1.0308
17685TIP3    H274547   4.058   5.827  13.325 -0.1560  0.2928 -0.9469
17686TIP3   OH274548   6.076   4.303   3.808  0.0936  0.8660 -0.2089
17686TIP3    H174549   6.046   4.233   3.866 -1.6961  1.5286 -0.2703
17686TIP3    H274550   6.094   4.259   3.725  1.0357  0.1754  0.3389
17687TIP3   OH274551   5.625   0.671  12.737  0.2666 -0.1512  0.0297
17687TIP3    H174552   5.656   0.761  12.723 -0.9870  0.0640 -1.6450
17687TIP3    H274553   5.574   0.675  12.818  0.9779  0.4356  0.4560
17688TIP3   OH274554   0.556   0.355  10.926  0.0269  0.1445  0.1922
17688TIP3    H174555   0.508   0.272  10.939  0.4151  0.0411  1.0704
17688TIP3    H274556   0.648   0.332  10.941  0.0241  0.9601  1.6973
17689TIP3   OH274557   6.704   4.431   3.336  0.2361 -0.1466 -0.4705
17689TIP3    H174558   6.765   4.480   3.391 -0.0514 -0.0097 -0.2732
17689TIP3    H274559   6.722   4.339   3.354  0.7459 -0.1189 -0.8065
17690TIP3   OH274560   4.156   2.387   2.229  0.3599  0.3278 -0.5936
17690TIP3    H174561   4.083   2.426   2.180 -0.6514  0.3326  0.8314
17690TIP3    H274562   4.219   2.458   2.238 -0.2467  0.8521 -0.3754
17691TIP3   OH274563   0.816   1.889  10.906 -0.1344 -0.0160  0.2909
17691TIP3    H174564   0.772   1.934  10.834 -0.7122 -0.9754  0.0255
17691TIP3    H274565   0.767   1.807  10.917  0.7439 -0.4770  0.9164
17692TIP3   OH274566   0.288   1.182  11.483 -0.5591 -0.5162 -0.4751
17692TIP3    H174567   0.221   1.239  11.445 -0.5561 -0.4077 -0.3146
17692TIP3    H274568   0.368   1.234  11.481 -0.5709 -0.4892 -0.2648
17693TIP3   OH274569   0.368   0.158  10.924 -0.3087 -0.1819 -0.0521
17693TIP3    H174570   0.394   0.096  10.857 -0.2488 -0.2935  0.0736
17693TIP3    H274571   0.272   0.161  10.919 -0.3623 -0.8430  0.4350
17694TIP3   OH274572   3.673   1.448   2.261 -0.0900  0.3232 -0.0266
17694TIP3    H174573   3.734   1.427   2.331 -1.3225  0.2030  1.0493
17694TIP3    H274574   3.595   1.480   2.306 -1.1663 -0.4241 -1.3022
17695TIP3   OH274575   1.741   2.375   4.844  0.2334 -0.3326 -0.2061
17695TIP3    H174576   1.689   2.299   4.818 -0.6295  0.0908  0.2244
17695TIP3    H274577   1.830   2.341   4.855 -0.2529 -1.4030  0.5666
17696TIP3   OH274578   3.584   0.705   2.837 -0.4442 -0.2758 -0.1026
17696TIP3    H174579   3.598   0.790   2.879 -1.1435 -1.4117  2.6608
17696TIP3    H274580   3.555   0.726   2.748 -0.4501  2.3595  0.4493
17697TIP3   OH274581   0.673   6.530   5.001 -0.2479  0.0828 -0.2994
17697TIP3    H174582   0.651   6.613   4.959  0.2266  0.2331 -0.2570
17697TIP3    H274583   0.700   6.555   5.090  0.6192 -0.0367 -0.5205
17698TIP3   OH274584   4.112   3.909  13.073  0.2073 -0.1950 -0.2085
17698TIP3    H174585   4.155   3.854  13.139  1.0883  0.0984 -0.5365
17698TIP3    H274586   4.125   3.862  12.991  0.7465  0.3825 -0.4534
17699TIP3   OH274587   4.415   3.546  11.952 -0.0400 -0.0580  0.5998
17699TIP3    H174588   4.499   3.585  11.929  0.4622 -2.0507 -1.3060
17699TIP3    H274589   4.351   3.592  11.898  0.2107 -0.2580  0.1245
17700TIP3   OH274590   3.751   4.997  14.656 -0.2126 -0.7502  0.1908
17700TIP3    H174591   3.672   5.022  14.704 -0.5551 -5.3387  2.4714
17700TIP3    H274592   3.719   4.947  14.581  0.5157 -0.2621 -0.4615
17701TIP3   OH274593   2.686   6.055  14.164  0.3219  0.1536 -0.1996
17701TIP3    H174594   2.766   6.084  14.121  0.7056 -0.7840 -0.1581
17701TIP3    H274595   2.707   5.966  14.195 -1.0812 -0.5420 -1.1563
17702TIP3   OH274596   5.295   4.215   5.442  0.0727 -0.0852 -0.6600
17702TIP3    H174597   5.358   4.224   5.370  1.2686  1.5706  0.5060
17702TIP3    H274598   5.278   4.121   5.448  3.0713 -0.7268 -0.5478
17703TIP3   OH274599   3.453   0.505   3.852 -0.6786  0.6711 -0.3576
17703TIP3    H174600   3.409   0.508   3.937 -0.5054 -2.3805 -0.0514
17703TIP3    H274601   3.395   0.452   3.797  0.9608 -0.5581 -0.9786
17704TIP3   OH274602   4.817   1.072  13.270  0.3575 -0.6113  0.1970
17704TIP3    H174603   4.821   1.067  13.365  1.2300 -1.3320  0.1344
17704TIP3    H274604   4.880   1.007  13.239 -0.7831 -1.2658 -0.8857
17705TIP3   OH274605   3.710   6.266   2.892  0.2141  0.0232  0.0549
17705TIP3    H174606   3.742   6.204   2.827  1.1658 -0.6115  1.0912
17705TIP3    H274607   3.787   6.287   2.945  0.1478  2.8061 -0.7818
17706TIP3   OH274608   5.030   6.824   5.267  0.3563  0.0639  0.1163
17706TIP3    H174609   4.936   6.807   5.266  0.1823  0.9735  0.1996
17706TIP3    H274610   5.042   6.889   5.336  1.1866 -0.7672  0.7799
17707TIP3   OH274611   2.340   0.637  11.679  0.0307 -0.5332 -0.7976
17707TIP3    H174612   2.267   0.683  11.637 -0.1845 -0.5272 -0.4197
17707TIP3    H274613   2.315   0.629  11.771  0.9500  0.3854 -0.4419
17708TIP3   OH274614   4.661   0.779   3.622  0.7454 -0.3092  0.3916
17708TIP3    H174615   4.708   0.704   3.658  1.9069  0.0782 -0.2697
17708TIP3    H274616   4.569   0.761   3.642  1.0769 -1.5086  0.9558
17709TIP3   OH274617   3.439   3.455  15.131 -0.5522 -0.1410 -0.5523
17709TIP3    H174618   3.372   3.513  15.167 -0.2477  0.6807 -1.2897
17709TIP3    H274619   3.454   3.487  15.043  2.1763  0.8959  0.2197
17710TIP3   OH274620   0.815   1.561  16.436  0.7442  0.2596  0.2492
17710TIP3    H174621   0.785   1.491  16.377 -0.6215 -1.5656  2.9184
17710TIP3    H274622   0.906   1.539  16.455  0.2672 -0.9867  1.2268
17711TIP3   OH274623   5.841   3.642   3.450 -0.4183  0.7079  0.0192
17711TIP3    H174624   5.881   3.690   3.523 -0.4404  1.9771 -0.7878
17711TIP3    H274625   5.751   3.628   3.478  0.2234 -1.1902  1.3650
17712TIP3   OH274626   3.266   1.990   3.895  0.8910  0.4247 -0.5298
17712TIP3    H174627   3.281   1.936   3.817  0.5121 -0.0551 -0.2776
17712TIP3    H274628   3.221   2.067   3.863  0.6865  0.2013 -0.7804
17713TIP3   OH274629   3.679   0.755   6.700 -0.4096 -0.5485  0.1090
17713TIP3    H174630   3.763   0.760   6.653 -0.5193 -1.8227 -0.2509
17713TIP3    H274631   3.683   0.672   6.746 -1.4288 -0.5413  0.2179
17714TIP3   OH274632   0.156   0.961  13.128  0.0672  0.1613 -0.4022
17714TIP3    H174633   0.181   1.053  13.131 -2.8237  1.0438  3.3092
17714TIP3    H274634   0.072   0.960  13.083  0.1617 -0.7391 -0.5862
17715TIP3   OH274635   0.115   1.566  12.578 -0.7484  0.0706 -0.2437
17715TIP3    H174636   0.044   1.621  12.546 -0.9223  0.4245  0.7183
17715TIP3    H274637   0.189   1.586  12.520 -1.0222  0.7696 -0.3596
17716TIP3   OH274638   5.035   6.128  12.800 -0.0023  0.4877  0.2165
17716TIP3    H174639   4.996   6.214  12.817 -0.4710  0.2153  0.5238
17716TIP3    H274640   4.961   6.069  12.788  0.2418  0.6373 -2.9364
17717TIP3   OH274641   2.658   6.733   6.200 -0.3658  0.3460  0.4334
17717TIP3    H174642   2.618   6.667   6.257  1.3001 -0.1367  1.0937
17717TIP3    H274643   2.749   6.738   6.228 -0.4083  2.9383  0.4001
17718TIP3   OH274644   6.407   3.952  14.441 -0.4191 -0.4469  0.1426
17718TIP3    H174645   6.482   3.916  14.394  0.9618  0.7649  1.3062
17718TIP3    H274646   6.341   3.884  14.437  1.4021 -2.3372  0.6304
17719TIP3   OH274647   2.890   1.172   3.997  0.5707 -0.2540 -0.9458
17719TIP3    H174648   2.796   1.174   3.980  0.5729 -0.4005 -0.9746
17719TIP3    H274649   2.919   1.085   3.968  0.3059 -1.1317  1.2060
17720TIP3   OH274650   3.695   1.526   3.307  0.5619  0.5956 -0.0781
17720TIP3    H174651   3.672   1.619   3.316  0.4181  0.4115  2.0251
17720TIP3    H274652   3.627   1.480   3.357  1.2767 -0.5513 -0.1378
17721TIP3   OH274653   6.020   0.348   1.496  0.1417  0.3210 -0.3621
17721TIP3    H174654   6.056   0.259   1.500 -0.0749  0.1688 -1.5474
17721TIP3    H274655   6.079   0.400   1.551 -0.8045 -0.8902  1.9421
17722TIP3   OH274656   1.514   5.835   6.465  0.1249 -0.2114  0.7136
17722TIP3    H174657   1.438   5.778   6.481 -0.3760  0.1904 -0.1369
17722TIP3    H274658   1.579   5.778   6.424 -0.4097 -0.1646 -0.2214
17723TIP3   OH274659   0.745   5.282  13.527 -0.0882 -0.0013 -0.2874
17723TIP3    H174660   0.820   5.242  13.571 -1.0495  0.5643  2.0261
17723TIP3    H274661   0.682   5.210  13.517 -0.0918 -0.0139 -0.1829
17724TIP3   OH274662   6.285   5.730  11.514 -0.1253 -0.6256  0.1707
17724TIP3    H174663   6.289   5.698  11.423  0.0237  1.8490 -0.7642
17724TIP3    H274664   6.200   5.700  11.546 -0.9224 -0.1444 -1.3763
17725TIP3   OH274665   0.806   2.276  16.862 -0.1249 -0.4306 -0.0520
17725TIP3    H174666   0.866   2.201  16.861  2.2157  1.3055  0.9919
17725TIP3    H274667   0.858   2.349  16.829 -1.6259  1.2357  1.0792
17726TIP3   OH274668   4.305   4.592   6.001  0.0095  0.3887  0.5821
17726TIP3    H174669   4.394   4.576   6.033 -0.0480  0.4946  0.7948
17726TIP3    H274670   4.274   4.668   6.051 -0.5682 -0.2583  1.2296
17727TIP3   OH274671   4.706   3.550  11.861  0.6900  0.7432  0.0410
17727TIP3    H174672   4.722   3.629  11.810 -0.0890  1.3899  0.7750
17727TIP3    H274673   4.792   3.522  11.890  0.9276  1.6311  0.2197
17728TIP3   OH274674   5.722   3.595   2.256 -0.1443  0.0217 -0.2240
17728TIP3    H174675   5.785   3.524   2.249  0.0948  0.1977  0.1407
17728TIP3    H274676   5.754   3.662   2.195  0.7688  0.6718  0.9499
17729TIP3   OH274677   0.251   2.854   4.953  0.0510 -0.2899  0.2235
17729TIP3    H174678   0.230   2.795   4.880 -1.1017  0.9483 -0.4947
17729TIP3    H274679   0.339   2.885   4.935 -0.6403  0.9145 -1.3569
17730TIP3   OH274680   6.388   2.118   6.098  0.3190 -0.0239 -0.2728
17730TIP3    H174681   6.294   2.099   6.101 -0.1883  2.0847 -1.3318
17730TIP3    H274682   6.428   2.046   6.148 -1.8769 -0.6488  0.7197
17731TIP3   OH274683   3.685   6.381  16.118  0.0174  0.0329  0.7475
17731TIP3    H174684   3.772   6.364  16.084 -0.2924 -1.8307  0.8084
17731TIP3    H274685   3.696   6.383  16.213 -0.1275 -1.1363  0.8049
17732TIP3   OH274686   0.013   0.853   1.431  0.4775 -0.1751  0.3673
17732TIP3    H174687   0.008   0.892   1.519  1.1701  0.1606  0.2676
17732TIP3    H274688   0.100   0.812   1.428  0.0282 -1.1327  0.2164
17733TIP3   OH274689   2.966   4.867   6.157 -0.2696  0.9559 -0.2145
17733TIP3    H174690   2.919   4.798   6.204 -0.4996  2.7695  2.4771
17733TIP3    H274691   2.927   4.868   6.070 -0.4786 -2.0132 -0.2410
17734TIP3   OH274692   0.529   3.045  13.589 -0.0748 -0.2318 -0.4371
17734TIP3    H174693   0.607   2.991  13.603  0.6610  0.4941 -1.5782
17734TIP3    H274694   0.539   3.119  13.649 -1.3853 -1.5922  1.5783
17735TIP3   OH274695   4.954   5.839  16.437  0.2561  0.4563 -0.2526
17735TIP3    H174696   5.013   5.774  16.400  1.1018  1.1145 -0.0974
17735TIP3    H274697   4.944   5.812  16.529  1.2707  0.9976  0.0273
17736TIP3   OH274698   0.754   0.017   4.290 -0.3958  0.6215 -0.5093
17736TIP3    H174699   0.707   0.085   4.242 -1.7532  0.8225  1.0507
17736TIP3    H274700   0.695  -0.059   4.288  0.4438 -0.0481 -0.9171
17737TIP3   OH274701   0.767   0.812  15.323 -0.3600 -0.3496 -0.2181
17737TIP3    H174702   0.824   0.843  15.253 -0.5389 -0.3003 -0.3452
17737TIP3    H274703   0.820   0.751  15.373  0.6698  1.6548  1.2488
17738TIP3   OH274704   4.117   1.588   4.569  0.0936  0.0732 -0.0940
17738TIP3    H174705   4.198   1.617   4.610  0.3715 -1.8586  0.8068
17738TIP3    H274706   4.143   1.516   4.512 -0.6835  0.9795 -1.6652
17739TIP3   OH274707   2.995   4.750  13.894 -0.3201  0.2247  0.3221
17739TIP3    H174708   2.999   4.751  13.989 -1.4020  0.4503  0.3797
17739TIP3    H274709   3.005   4.842  13.868  2.6403 -0.0806  0.0412
17740TIP3   OH274710   2.371   6.738   4.467  0.1128  0.7453 -0.2940
17740TIP3    H174711   2.340   6.679   4.536  0.4309  1.7339  0.7240
17740TIP3    H274712   2.292   6.763   4.420 -0.1021  0.0226 -0.3325
17741TIP3   OH274713   5.830   1.232  16.995 -0.7066  0.3823  0.3766
17741TIP3    H174714   5.768   1.191  16.934 -0.4092 -0.6352  0.7400
17741TIP3    H274715   5.910   1.245  16.944 -1.2142  1.7920 -0.1247
17742TIP3   OH274716   6.816   6.118  13.242 -0.4731 -0.0942 -0.1080
17742TIP3    H174717   6.798   6.121  13.335 -0.1364  2.2986 -0.0618
17742TIP3    H274718   6.850   6.205  13.221  0.8328 -1.0178 -2.1906
17743TIP3   OH274719   2.965   3.501  14.540 -0.0204  0.7540  0.1415
17743TIP3    H174720   3.040   3.492  14.482  0.3483  2.3418  0.3122
17743TIP3    H274721   2.986   3.577  14.594 -0.0680 -1.0237  2.8419
17744TIP3   OH274722   6.394   4.437  12.016  0.5024  0.2980  0.1176
17744TIP3    H174723   6.487   4.458  12.017  0.9209 -1.4448  0.8294
17744TIP3    H274724   6.379   4.392  12.099 -0.9988  0.6049  0.0395
17745TIP3   OH274725   2.421   4.681  16.295 -0.2266 -0.1255 -0.8626
17745TIP3    H174726   2.374   4.605  16.330 -1.0882  0.3890 -0.8935
17745TIP3    H274727   2.353   4.747  16.279  0.7041  1.4229  1.0909
17746TIP3   OH274728   2.045   6.338   2.033  0.1731  0.3017  0.0757
17746TIP3    H174729   2.031   6.259   2.084 -0.5548  0.4752  0.1698
17746TIP3    H274730   2.138   6.339   2.013  0.0710 -0.9805 -0.5939
17747TIP3   OH274731   3.287   6.020  13.033 -0.5345  0.1367 -0.3220
17747TIP3    H174732   3.225   6.065  12.975 -0.7524 -1.1755 -1.1555
17747TIP3    H274733   3.370   6.063  13.016 -0.8345  0.5731 -0.7276
17748TIP3   OH274734   2.150   1.264  13.138  0.2980 -0.5245 -0.0378
17748TIP3    H174735   2.233   1.219  13.120  0.8636  0.0686  0.9558
17748TIP3    H274736   2.146   1.333  13.072  0.0624 -1.2215 -0.7583
17749TIP3   OH274737   4.274   1.553   2.815  0.6536 -0.3907  0.4697
17749TIP3    H174738   4.333   1.577   2.744 -0.4072  0.2412 -0.2234
17749TIP3    H274739   4.316   1.588   2.894  1.7925 -1.0154  0.1625
17750TIP3   OH274740   1.575   0.587  11.991 -0.2050  0.3296  0.1106
17750TIP3    H174741   1.650   0.551  12.039 -0.8246 -1.1228  0.0335
17750TIP3    H274742   1.611   0.662  11.943  1.2537 -0.4698 -0.0968
17751TIP3   OH274743   2.310   1.318  16.627 -0.4607  0.3698 -0.1417
17751TIP3    H174744   2.222   1.293  16.599  0.1591 -0.4511 -1.4518
17751TIP3    H274745   2.363   1.239  16.613  0.6435  1.0804 -0.0995
17752TIP3   OH274746   4.030   3.222   2.124  0.1861  0.2139  0.2966
17752TIP3    H174747   3.939   3.248   2.113 -0.2525 -1.8147 -1.7048
17752TIP3    H274748   4.032   3.174   2.206 -0.0600  1.9637  1.3778
17753TIP3   OH274749   0.548   5.046  16.473  0.6720 -0.2044 -0.1635
17753TIP3    H174750   0.492   5.117  16.506  0.9533  0.1788 -0.5068
17753TIP3    H274751   0.486   4.986  16.431  0.5609  0.4801 -1.0057
17754TIP3   OH274752   3.987   3.419   6.024  0.2531  0.7795  0.1394
17754TIP3    H174753   3.895   3.419   6.049 -0.1240  1.4018 -1.1391
17754TIP3    H274754   4.002   3.331   5.989  0.8039 -0.1191  2.4476
17755TIP3   OH274755   6.159   1.868  11.954  0.0234 -0.5062 -0.6334
17755TIP3    H174756   6.250   1.849  11.977  0.3704 -0.5246 -1.9135
17755TIP3    H274757   6.141   1.954  11.992  0.8579 -0.1254 -1.0894
17756TIP3   OH274758   5.939   1.078  12.885 -0.3450 -0.1452  0.6616
17756TIP3    H174759   6.022   1.093  12.839  0.0915 -0.8334  1.2209
17756TIP3    H274760   5.963   1.072  12.977 -1.1720  0.8090  0.9614
17757TIP3   OH274761   4.339   4.334  16.316 -0.4470  0.5274  0.4205
17757TIP3    H174762   4.260   4.385  16.297 -0.8329 -0.7198 -1.6854
17757TIP3    H274763   4.314   4.243  16.298  1.4083  0.0761 -0.1547
17758TIP3   OH274764   3.540   0.446   5.104 -0.2982 -0.0495  0.1280
17758TIP3    H174765   3.621   0.450   5.154  0.1432  1.0759 -0.6404
17758TIP3    H274766   3.566   0.471   5.015 -1.0343 -2.0879 -0.7127
17759TIP3   OH274767   3.420   2.232  14.981  0.7629  0.1529 -0.2537
17759TIP3    H174768   3.422   2.279  15.065  1.0366 -0.5729  0.1490
17759TIP3    H274769   3.382   2.296  14.920 -0.4899  0.3235  0.6450
17760TIP3   OH274770   5.667   4.582  12.613  0.0329 -0.2764 -0.0124
17760TIP3    H174771   5.581   4.620  12.597  0.3177  0.2322 -0.3542
17760TIP3    H274772   5.722   4.616  12.542  0.1638 -1.7702 -0.6682
17761TIP3   OH274773   6.031   5.476  13.244  0.1224 -0.4329 -0.0358
17761TIP3    H174774   6.056   5.451  13.333  0.9481 -2.0476 -0.6970
17761TIP3    H274775   6.071   5.410  13.188 -2.4053 -0.8804 -1.4520
17762TIP3   OH274776   6.630   5.787  16.071 -0.7220  0.0614 -0.2349
17762TIP3    H174777   6.600   5.736  16.146  2.1003  1.9898  2.4570
17762TIP3    H274778   6.721   5.760  16.059 -0.5867  1.0922 -1.8560
17763TIP3   OH274779   3.160   6.361   3.588  0.4137  0.0566 -0.1252
17763TIP3    H174780   3.097   6.358   3.516  1.3206 -0.3054 -0.9279
17763TIP3    H274781   3.245   6.350   3.546  0.9458 -0.4367  1.0328
17764TIP3   OH274782   1.116   0.632   2.331  0.4143  0.2911 -0.1656
17764TIP3    H174783   1.124   0.700   2.398  0.2972  2.3156 -2.0823
17764TIP3    H274784   1.162   0.668   2.255 -1.9197 -0.5739 -2.1207
17765TIP3   OH274785   0.159   4.017   4.132 -0.0624  0.2073 -0.1234
17765TIP3    H174786   0.069   3.984   4.131 -0.4030  1.0017  1.2623
17765TIP3    H274787   0.213   3.938   4.146 -0.2913 -0.6043 -3.1474
17766TIP3   OH274788   4.812   1.371   0.562  0.8141  0.4631 -0.3759
17766TIP3    H174789   4.838   1.458   0.593 -0.7446  0.7130  0.3053
17766TIP3    H274790   4.744   1.342   0.624 -0.9446  0.1081 -2.3643
17767TIP3   OH274791   6.056   3.317   4.428 -0.7013 -0.0903 -0.1743
17767TIP3    H174792   5.992   3.254   4.461 -0.8916 -0.5595 -1.3878
17767TIP3    H274793   6.053   3.389   4.491 -1.7133 -0.5341  0.3169
17768TIP3   OH274794   1.847   6.684   4.102 -0.8266  0.5796 -0.4884
17768TIP3    H174795   1.802   6.669   4.019 -0.2521 -0.6954 -0.5896
17768TIP3    H274796   1.839   6.779   4.117 -0.2415  0.9677 -2.3923
17769TIP3   OH274797   2.866   6.226   2.104  0.4729 -0.0389 -0.3230
17769TIP3    H174798   2.820   6.144   2.122 -2.4107  1.2596 -1.1575
17769TIP3    H274799   2.854   6.240   2.010 -0.4154  2.0315  0.0496
17770TIP3   OH274800   6.511   4.984   0.143  0.0734 -0.2031 -0.4660
17770TIP3    H174801   6.491   4.899   0.103 -2.2062 -0.2660  0.6452
17770TIP3    H274802   6.532   4.964   0.234  2.6042  0.1906 -0.8914
17771TIP3   OH274803   6.104   3.367   6.402  0.1706 -0.1622 -0.2370
17771TIP3    H174804   6.055   3.287   6.416  1.4971 -0.9919 -0.1598
17771TIP3    H274805   6.173   3.343   6.340  0.1377  1.1078 -0.7940
17772TIP3   OH274806   4.751   4.498  16.389 -0.2612 -0.0990  0.0160
17772TIP3    H174807   4.657   4.511  16.403 -0.5055 -0.1299 -1.4343
17772TIP3    H274808   4.779   4.446  16.465 -1.2715  0.4497  0.7987
17773TIP3   OH274809   5.001   4.528   6.562  0.1842 -0.0828 -0.3010
17773TIP3    H174810   4.975   4.597   6.622 -1.3424 -0.2173 -0.7702
17773TIP3    H274811   4.993   4.447   6.613  1.7832  0.0264  0.1885
17774TIP3   OH274812   5.581   5.999   4.284 -0.3945  0.1609  0.1475
17774TIP3    H174813   5.557   6.056   4.356 -3.2916 -0.0115 -0.5543
17774TIP3    H274814   5.581   6.056   4.207 -1.7517 -0.4435 -0.3262
17775TIP3   OH274815   0.326   5.121  16.238 -0.5189 -0.9293  0.0369
17775TIP3    H174816   0.256   5.179  16.268 -1.1571 -2.1643  1.0507
17775TIP3    H274817   0.287   5.070  16.168 -0.6742 -1.6706  0.6524
17776TIP3   OH274818   4.917   1.041   1.531  0.4233 -0.3346  1.0389
17776TIP3    H174819   4.988   1.082   1.581  0.0967  0.3324  0.9572
17776TIP3    H274820   4.847   1.106   1.530  0.6352 -0.0908 -0.8073
17777TIP3   OH274821   1.940   2.001  14.970  0.1246 -0.5039  0.1068
17777TIP3    H174822   2.018   2.049  14.997 -0.7218  1.2926 -0.5013
17777TIP3    H274823   1.933   2.017  14.876 -2.4982  1.8446  0.5671
17778TIP3   OH274824   1.032   1.408  15.144 -0.0677 -0.0672  0.3254
17778TIP3    H174825   1.043   1.484  15.201 -0.7393  0.4713 -0.2493
17778TIP3    H274826   1.117   1.398  15.102 -0.5048  1.5646 -1.0339
17779TIP3   OH274827   2.797   3.291  14.539 -0.2484  0.4172 -0.3946
17779TIP3    H174828   2.869   3.348  14.511 -0.0041  0.9988  1.2734
17779TIP3    H274829   2.801   3.293  14.635 -2.9205  1.0396 -0.2128
17780TIP3   OH274830   1.134   0.816  11.606  0.3640 -0.1356 -0.2940
17780TIP3    H174831   1.139   0.725  11.577 -1.6542  0.4972 -3.0031
17780TIP3    H274832   1.194   0.863  11.548 -0.7909  0.6310 -0.9023
17781TIP3   OH274833   2.178   0.320  13.186  0.0217  0.1045  0.0304
17781TIP3    H174834   2.258   0.326  13.237  0.0027 -0.4452  0.1323
17781TIP3    H274835   2.158   0.410  13.161  1.1582  0.1545 -0.7617
17782TIP3   OH274836   2.741   6.561   0.457  0.3530  0.5273  0.5285
17782TIP3    H174837   2.658   6.519   0.435  0.1900  0.0804  1.8898
17782TIP3    H274838   2.735   6.579   0.551  0.8270  2.7089  0.1825
17783TIP3   OH274839   3.301   4.713   6.508 -0.8893  0.2895 -0.2461
17783TIP3    H174840   3.247   4.641   6.541 -2.2793  0.9592 -0.9680
17783TIP3    H274841   3.382   4.671   6.481 -0.8145 -0.6696  1.3568
17784TIP3   OH274842   3.457   2.621   0.417  0.3818  0.3811 -0.0070
17784TIP3    H174843   3.430   2.536   0.383 -0.9446  0.8157 -0.1241
17784TIP3    H274844   3.396   2.683   0.376  0.6099  1.2486  0.9229
17785TIP3   OH274845   3.831   1.548  12.840  0.1492 -0.8939 -0.1841
17785TIP3    H174846   3.827   1.635  12.881 -1.0298 -0.4509 -1.1562
17785TIP3    H274847   3.761   1.499  12.883  0.0414 -0.9791 -0.4551
17786TIP3   OH274848   5.353   1.771  15.990  0.0054 -0.0050  0.2168
17786TIP3    H174849   5.441   1.744  16.018  0.4539 -0.0664 -1.1989
17786TIP3    H274850   5.363   1.863  15.965 -0.3385 -0.0046  0.0841
17787TIP3   OH274851   2.546   6.439   4.436  0.3150  0.2378  0.3119
17787TIP3    H174852   2.638   6.466   4.436  0.4239 -0.1387  1.1121
17787TIP3    H274853   2.545   6.355   4.481 -0.3722  0.0468 -0.0468
17788TIP3   OH274854   3.351   2.442  11.515 -0.1900 -0.5539 -0.5472
17788TIP3    H174855   3.274   2.499  11.513 -0.9568 -1.4429  1.4480
17788TIP3    H274856   3.423   2.500  11.540 -0.8614 -0.2899  0.8978
17789TIP3   OH274857   0.555   1.550   0.913  0.3850 -0.3322  0.1252
17789TIP3    H174858   0.513   1.588   0.836 -0.3228 -1.2998  0.0151
17789TIP3    H274859   0.483   1.516   0.966  0.8348  0.5349  1.3516
17790TIP3   OH274860   4.582   4.739  15.359 -0.4500 -0.1515  1.0654
17790TIP3    H174861   4.535   4.682  15.297  1.1799  0.9337 -1.3254
17790TIP3    H274862   4.526   4.816  15.367 -0.9834 -0.5785  1.4682
17791TIP3   OH274863   1.898   3.154  14.503  0.0881  0.1904  0.3645
17791TIP3    H174864   1.906   3.059  14.499 -0.0974  0.1984 -0.2643
17791TIP3    H274865   1.950   3.180  14.579  1.2519 -0.2870 -0.2483
17792TIP3   OH274866   2.431   1.830  15.512 -0.0107  0.5499 -0.3698
17792TIP3    H174867   2.488   1.858  15.441  2.4908  0.2509  1.3947
17792TIP3    H274868   2.405   1.911  15.555  1.6516  0.5999  0.6325
17793TIP3   OH274869   3.673   4.189  11.856 -1.0239 -0.1432 -0.0227
17793TIP3    H174870   3.673   4.231  11.942  1.2234  0.3102 -0.1945
17793TIP3    H274871   3.631   4.253  11.798 -3.3008 -0.7731  0.7983
17794TIP3   OH274872   1.747   6.449  16.747  0.7802 -0.1101 -0.2185
17794TIP3    H174873   1.803   6.484  16.677  0.1595  0.9380 -0.2102
17794TIP3    H274874   1.713   6.526  16.791  0.9187 -0.7590  1.0692
17795TIP3   OH274875   1.606   2.851   3.083  0.2498 -0.1432  0.0541
17795TIP3    H174876   1.635   2.794   3.154  1.5110  0.5931  0.1754
17795TIP3    H274877   1.538   2.905   3.122  3.0939  2.5371  1.8469
17796TIP3   OH274878   5.910   2.634  12.838 -0.3855  0.4239 -0.2170
17796TIP3    H174879   5.959   2.716  12.839 -0.1536  0.3073 -1.0404
17796TIP3    H274880   5.911   2.607  12.746 -2.1128  0.4787 -0.2725
17797TIP3   OH274881   3.262   1.722  16.708  0.3157 -0.6630 -0.4334
17797TIP3    H174882   3.353   1.724  16.739  0.0261 -0.3013  0.4255
17797TIP3    H274883   3.262   1.656  16.638  1.5484  0.4185 -1.5028
17798TIP3   OH274884   3.511   6.072   3.401 -0.5852  0.0300  0.3472
17798TIP3    H174885   3.531   6.004   3.465 -0.2313 -0.7765 -0.5895
17798TIP3    H274886   3.416   6.069   3.390 -0.6188  0.0051  0.6527
17799TIP3   OH274887   6.372   6.677   6.492  0.4950 -0.3640  0.6747
17799TIP3    H174888   6.294   6.629   6.519 -0.1343 -1.2026 -2.2615
17799TIP3    H274889   6.416   6.620   6.429  2.6214  0.7803  0.9969
17800TIP3   OH274890   3.293   1.937  13.432 -0.2365  0.0809  0.5563
17800TIP3    H174891   3.297   1.941  13.528 -1.4706  0.8576  0.5990
17800TIP3    H274892   3.266   2.024  13.405  2.0807  0.4864 -0.6785
17801TIP3   OH274893   4.377   3.381   0.686 -0.3823 -0.7944 -0.6625
17801TIP3    H174894   4.450   3.328   0.654  0.9686  0.2541  0.5743
17801TIP3    H274895   4.338   3.328   0.755  1.0017 -0.2275  0.6127
17802TIP3   OH274896   0.585   4.268  15.924 -0.8274  0.5197  0.6776
17802TIP3    H174897   0.602   4.307  16.009 -3.0468  0.6188  1.1323
17802TIP3    H274898   0.492   4.249  15.924 -0.7345 -0.2460 -1.4287
17803TIP3   OH274899   6.085   5.322   5.354  0.1467 -0.0592 -0.2442
17803TIP3    H174900   6.055   5.313   5.263 -0.8036 -0.4645  0.0914
17803TIP3    H274901   6.137   5.244   5.370  0.4230  0.0753 -0.4774
17804TIP3   OH274902   1.581   5.728   1.089  0.4567 -0.6034 -0.1244
17804TIP3    H174903   1.513   5.662   1.098  0.7229 -0.7981  0.5459
17804TIP3    H274904   1.570   5.784   1.166  0.8094 -0.4083 -0.2126
17805TIP3   OH274905   5.592   2.194   3.762 -0.8627 -0.1099 -0.0337
17805TIP3    H174906   5.673   2.240   3.786 -0.6237 -0.4160 -0.2366
17805TIP3    H274907   5.533   2.263   3.732 -0.5017  0.0679 -0.3546
17806TIP3   OH274908   0.060   5.117  14.422 -0.2509  0.0912  0.5103
17806TIP3    H174909  -0.003   5.074  14.365 -0.0266 -1.7687  1.5982
17806TIP3    H274910   0.124   5.155  14.362 -0.2312 -1.4627 -0.4969
17807TIP3   OH274911   1.786   6.556  14.152 -0.1571 -0.2621 -0.3532
17807TIP3    H174912   1.729   6.618  14.199 -1.6315 -2.9970  1.7548
17807TIP3    H274913   1.874   6.575  14.183 -0.6793  0.3010  0.8345
17808TIP3   OH274914   2.623   1.476   4.597 -0.0361 -0.4965 -0.1274
17808TIP3    H174915   2.623   1.487   4.692  0.0825 -1.4657 -0.0026
17808TIP3    H274916   2.557   1.408   4.581  0.3085 -0.7076 -0.6927
17809TIP3   OH274917   1.231   3.805   3.960 -0.3859 -0.0725 -0.0342
17809TIP3    H174918   1.289   3.746   4.008  1.1787  0.7554 -0.8307
17809TIP3    H274919   1.288   3.849   3.897 -1.4733  2.2951  0.5276
17810TIP3   OH274920   1.894   1.333   6.693 -0.3419 -0.1930  0.1234
17810TIP3    H174921   1.953   1.342   6.769  0.7653  1.2065 -0.8580
17810TIP3    H274922   1.953   1.331   6.618 -1.5150  1.1890 -0.8838
17811TIP3   OH274923   5.032   0.692   5.480 -0.0027  0.4380  0.1881
17811TIP3    H174924   4.956   0.658   5.528  1.0317 -0.4314  1.2690
17811TIP3    H274925   5.084   0.737   5.547  2.1780 -2.0039  0.2983
17812TIP3   OH274926   6.717   6.818  15.221 -0.3400 -0.0143 -0.0417
17812TIP3    H174927   6.666   6.890  15.258  1.3729  1.9163 -1.2113
17812TIP3    H274928   6.656   6.774  15.161 -1.9513 -0.7543  2.0078
17813TIP3   OH274929   4.409   1.354   3.569  0.8626  0.3191 -0.6368
17813TIP3    H174930   4.446   1.433   3.609  0.0495 -0.4336  1.7777
17813TIP3    H274931   4.470   1.284   3.593 -1.1790 -0.6821  2.1527
17814TIP3   OH274932   1.863   1.985   4.898  0.1718  0.8029 -0.5238
17814TIP3    H174933   1.854   1.919   4.966  0.8095  2.5769  1.3676
17814TIP3    H274934   1.782   2.036   4.902  0.2607  0.9966 -1.0338
17815TIP3   OH274935   5.260   1.425   1.655  0.2479 -0.0329 -0.5891
17815TIP3    H174936   5.297   1.453   1.739 -1.2190 -0.1030  0.1112
17815TIP3    H274937   5.303   1.481   1.590 -0.1623  1.5331  0.4275
17816TIP3   OH274938   2.613   6.283   0.791  0.2824 -0.3478 -0.1916
17816TIP3    H174939   2.604   6.188   0.779 -0.2831 -0.2266 -0.7572
17816TIP3    H274940   2.654   6.292   0.877  0.0161 -1.0964  0.0221
17817TIP3   OH274941   3.722   5.318   2.038 -0.2322 -0.1154 -0.1516
17817TIP3    H174942   3.646   5.377   2.042 -0.2072  0.0379 -1.5619
17817TIP3    H274943   3.776   5.344   2.113 -0.3209  1.5453 -0.6254
17818TIP3   OH274944   6.126   0.291  10.461 -0.1339  0.5948  0.7707
17818TIP3    H174945   6.076   0.358  10.414  0.7341  0.2902 -0.6464
17818TIP3    H274946   6.112   0.211  10.411 -1.5058 -0.4405  2.6919
17819TIP3   OH274947   0.246   1.492   1.380  0.5330  0.0208  0.1445
17819TIP3    H174948   0.293   1.564   1.338  1.7003 -1.2398 -0.8076
17819TIP3    H274949   0.314   1.436   1.416 -0.4253  0.6898  3.2481
17820TIP3   OH274950   4.795   5.849   6.044  0.3799  0.3396 -0.6448
17820TIP3    H174951   4.787   5.940   6.014 -1.5765  0.6452  0.6007
17820TIP3    H274952   4.758   5.797   5.973  0.9319  0.5547 -1.0972
17821TIP3   OH274953   0.444   4.338   5.626  1.1684 -0.1862 -0.1517
17821TIP3    H174954   0.479   4.255   5.659 -0.1594 -0.6288  0.1983
17821TIP3    H274955   0.357   4.345   5.666 -0.4788 -0.6698 -3.3184
17822TIP3   OH274956   0.740   2.944   4.979 -0.2701  0.6197 -0.0994
17822TIP3    H174957   0.806   2.932   4.911  0.2134  0.2899  0.4176
17822TIP3    H274958   0.686   2.866   4.975 -1.1323  1.2400 -1.0472
17823TIP3   OH274959   0.002   2.089   5.757 -1.0257  0.1799  0.1648
17823TIP3    H174960  -0.043   2.173   5.766  1.5904  1.8011 -0.6962
17823TIP3    H274961  -0.032   2.052   5.676  1.1619  2.8335 -2.1669
17824TIP3   OH274962   6.733   3.401  14.020 -0.6397  0.2750 -0.2997
17824TIP3    H174963   6.663   3.463  13.997 -0.7771  0.1431 -0.2356
17824TIP3    H274964   6.785   3.448  14.085 -0.0919  0.7596 -1.0618
17825TIP3   OH274965   6.008   0.770  14.772  0.1880  0.8241  0.1568
17825TIP3    H174966   5.918   0.759  14.741 -0.3865 -0.9943  2.2166
17825TIP3    H274967   6.001   0.837  14.841 -0.0505 -0.7425  1.7420
17826TIP3   OH274968   4.024   1.118  12.408 -0.5568 -0.1369  0.8848
17826TIP3    H174969   4.011   1.099  12.501  0.4867 -0.0778  1.0605
17826TIP3    H274970   3.981   1.045  12.362  0.5790 -1.2225  1.4707
17827TIP3   OH274971   5.201   1.414  15.630 -0.3660  0.3663 -0.5479
17827TIP3    H174972   5.168   1.413  15.720  0.2630  0.3413 -0.3136
17827TIP3    H274973   5.271   1.479  15.631  0.6181 -0.6607 -0.6565
17828TIP3   OH274974   3.090   1.391   0.463 -0.2863  0.0231 -0.2884
17828TIP3    H174975   3.041   1.471   0.444 -0.6820  0.2533  1.4973
17828TIP3    H274976   3.045   1.323   0.412 -2.3867  0.2697  1.1074
17829TIP3   OH274977   5.708   4.891   4.803  0.2750  0.1448 -0.0358
17829TIP3    H174978   5.680   4.878   4.713  0.7232  0.7216 -0.2626
17829TIP3    H274979   5.627   4.914   4.850 -0.6209 -3.3652  0.4291
17830TIP3   OH274980   4.514   6.799  16.468 -0.4516 -0.0335 -0.1845
17830TIP3    H174981   4.563   6.878  16.490 -1.7941  0.0287  2.9947
17830TIP3    H274982   4.432   6.806  16.517 -1.2039 -2.7698 -0.8755
17831TIP3   OH274983   5.496   5.894   5.042  0.0233 -0.4802  0.4269
17831TIP3    H174984   5.493   5.989   5.026  1.2358 -0.6634 -1.0892
17831TIP3    H274985   5.404   5.870   5.055 -0.5010  0.6581 -0.8709
17832TIP3   OH274986   0.687   2.767   3.714  0.1895 -0.0963  0.1077
17832TIP3    H174987   0.735   2.819   3.650  1.1199 -0.7902  0.2368
17832TIP3    H274988   0.630   2.711   3.661 -1.5779  1.7080 -0.0212
17833TIP3   OH274989   1.296   5.702   0.106 -0.0659 -0.3544  0.6677
17833TIP3    H174990   1.346   5.640   0.157  0.1597 -1.0428 -0.3620
17833TIP3    H274991   1.352   5.723   0.031 -0.0929  1.1703  1.0287
17834TIP3   OH274992   4.489   5.678   2.514 -0.0559 -0.1795  0.3375
17834TIP3    H174993   4.442   5.678   2.597  0.1184  1.2207  0.4694
17834TIP3    H274994   4.449   5.607   2.464 -1.5393  0.2330  0.8707
17835TIP3   OH274995   5.073   2.165   2.804  0.0366  0.5056  0.2845
17835TIP3    H174996   5.143   2.135   2.862 -0.4504 -1.4023 -0.0692
17835TIP3    H274997   5.070   2.100   2.734 -1.2219  1.2837 -0.4242
17836TIP3   OH274998   3.950   4.718   6.883  0.2069 -0.3402 -0.6448
17836TIP3    H174999   3.974   4.668   6.961 -0.1893 -1.6663 -1.3453
17836TIP3    H275000   4.033   4.740   6.842  0.4049  0.0541 -0.0465
17837TIP3   OH275001   4.656   1.082  16.028 -0.1789 -0.2258 -0.2986
17837TIP3    H175002   4.629   1.056  16.116 -1.7223  1.4050 -0.2247
17837TIP3    H275003   4.704   1.164  16.040  0.2559 -0.3810 -0.9167
17838TIP3   OH275004   3.704   2.903   0.638  0.3537 -0.6624 -0.2972
17838TIP3    H175005   3.617   2.913   0.600 -0.4702 -2.6909  0.9405
17838TIP3    H275006   3.712   2.810   0.657  2.0086 -0.2163  1.4667
17839TIP3   OH275007   2.434   0.952  15.494 -0.4517  0.1248 -0.1935
17839TIP3    H175008   2.370   0.882  15.505 -0.4152 -0.0024 -0.7667
17839TIP3    H275009   2.381   1.027  15.466 -0.5300  0.4165  0.6969
17840TIP3   OH275010   4.578   0.852  14.830  0.7443 -0.5337 -0.5366
17840TIP3    H175011   4.653   0.863  14.772  1.4120  0.0182  0.4116
17840TIP3    H275012   4.559   0.940  14.862  0.7364 -0.9015  0.5064
17841TIP3   OH275013   1.713   4.512  11.007 -0.0108  0.5645  0.2744
17841TIP3    H175014   1.751   4.558  11.082  0.4968 -0.0190  0.3816
17841TIP3    H275015   1.620   4.508  11.027  0.0468  0.8798  0.6249
17842TIP3   OH275016   5.160   6.627  15.131  0.0613 -0.2467 -0.6589
17842TIP3    H175017   5.226   6.581  15.183  0.9066  1.0445 -0.5274
17842TIP3    H275018   5.079   6.616  15.179  0.5062 -0.4904  0.0534
17843TIP3   OH275019   5.710   4.144   4.843  0.0078  0.2542  0.3702
17843TIP3    H175020   5.786   4.168   4.896 -0.7868 -0.7045  2.0127
17843TIP3    H275021   5.654   4.222   4.845  0.3480  0.5041  0.2499
17844TIP3   OH275022   3.166   0.244   4.130  0.4738 -0.0967  0.3208
17844TIP3    H175023   3.145   0.183   4.201  0.1364  0.3658  0.6235
17844TIP3    H275024   3.081   0.267   4.092  0.5482  0.6630  0.6058
17845TIP3   OH275025   3.771   3.502  15.156 -0.5109  0.0774  0.0065
17845TIP3    H175026   3.727   3.586  15.158  1.0885  0.9369  1.0908
17845TIP3    H275027   3.864   3.524  15.149 -0.0469 -1.5956  0.5118
17846TIP3   OH275028   2.794   1.826  15.045  0.0581  0.5699 -0.6168
17846TIP3    H175029   2.813   1.745  14.998  1.5752 -0.2718  1.2844
17846TIP3    H275030   2.880   1.864  15.063 -0.3067  0.2647  2.3200
17847TIP3   OH275031   6.828   2.028  12.635 -0.3923  0.3124 -0.6082
17847TIP3    H175032   6.908   2.080  12.640  0.3293 -0.8961  2.0433
17847TIP3    H275033   6.760   2.092  12.614  0.6813  2.1125  1.0018
17848TIP3   OH275034   2.911   5.467  11.885 -0.1355  0.2529 -0.3700
17848TIP3    H175035   2.892   5.546  11.935  0.6978  0.0156  0.3407
17848TIP3    H275036   2.959   5.411  11.945 -0.4001 -0.6536 -0.9815
17849TIP3   OH275037   0.109   6.836   3.695  0.1307  0.3486  0.4313
17849TIP3    H175038   0.090   6.751   3.733 -1.5545  1.0616  1.3271
17849TIP3    H275039   0.162   6.881   3.761 -0.6038  0.6571  0.8256
17850TIP3   OH275040   2.457   4.058   0.462  0.0407 -0.4778 -0.0293
17850TIP3    H175041   2.444   4.060   0.367 -1.5718  1.9423  0.1520
17850TIP3    H275042   2.528   4.120   0.477  0.8421 -1.4479  0.3312
17851TIP3   OH275043   4.154   3.265   1.172 -0.4737 -0.0513 -0.4410
17851TIP3    H175044   4.108   3.289   1.253  0.3542 -1.3450  0.4440
17851TIP3    H275045   4.129   3.175   1.155  1.1100 -0.5470 -0.3501
17852TIP3   OH275046   1.838   2.981  13.375  0.6687 -0.5227 -0.1461
17852TIP3    H175047   1.744   2.981  13.352  0.5260  2.3868  0.0444
17852TIP3    H275048   1.840   2.958  13.468 -0.1587  1.8040  0.5107
17853TIP3   OH275049   0.421   2.908  11.451 -0.0217  0.2343 -0.6388
17853TIP3    H175050   0.473   2.855  11.390  0.1111  1.0130 -1.2189
17853TIP3    H275051   0.393   2.983  11.400 -0.2521  0.7040  0.1533
17854TIP3   OH275052   4.219   3.451  13.943  0.4992  0.0530  0.1557
17854TIP3    H175053   4.247   3.481  13.856 -1.8156  0.9894 -0.3356
17854TIP3    H275054   4.300   3.445  13.993  1.6348  2.0233 -1.3051
17855TIP3   OH275055   6.208   1.563   5.361  0.2890 -0.4963  0.0636
17855TIP3    H175056   6.183   1.614   5.438 -2.5806  0.7826 -1.5805
17855TIP3    H275057   6.277   1.504   5.393  0.6677  1.3767  3.0735
17856TIP3   OH275058   2.620   5.409   5.888  0.5888  1.2065 -0.1414
17856TIP3    H175059   2.606   5.409   5.983 -2.1503  0.7474 -0.4559
17856TIP3    H275060   2.647   5.319   5.868  0.2252  1.0311  0.1267
17857TIP3   OH275061   3.491   4.623  14.645  0.3607  0.8204  0.3197
17857TIP3    H175062   3.569   4.659  14.687  0.5513  1.0352 -0.2130
17857TIP3    H275063   3.424   4.625  14.713  0.5694  1.5069  0.5129
17858TIP3   OH275064   3.782   4.189  15.468 -0.3642  0.6930 -0.3147
17858TIP3    H175065   3.837   4.145  15.533 -0.1731 -0.7742 -1.4108
17858TIP3    H275066   3.693   4.183  15.505 -0.1605  0.5738  0.1713
17859TIP3   OH275067   4.993   6.498   2.657  0.1528  0.2471 -0.0199
17859TIP3    H175068   5.071   6.553   2.670  0.1818  0.1415  0.2530
17859TIP3    H275069   4.936   6.551   2.602  1.1208 -0.3277 -1.6341
17860TIP3   OH275070   3.437   4.103  15.180  0.3445 -0.2945 -0.4677
17860TIP3    H175071   3.483   4.059  15.252 -0.5374 -3.2371 -1.5525
17860TIP3    H275072   3.437   4.195  15.205  1.7872 -0.9201  2.3180
17861TIP3   OH275073   3.978   3.203  13.053 -0.6867 -0.3070  0.3505
17861TIP3    H175074   3.931   3.253  13.120 -1.3089 -0.6471  0.1756
17861TIP3    H275075   4.015   3.129  13.100  1.3694  0.9715  0.8748
17862TIP3   OH275076   2.771   5.818   6.625 -0.2053  0.0735 -0.2200
17862TIP3    H175077   2.698   5.792   6.682  1.3964  0.9379  2.4292
17862TIP3    H275078   2.745   5.904   6.591 -0.1515  0.7600  1.3698
17863TIP3   OH275079   0.885   5.272   3.304 -0.1744 -0.2439  0.5493
17863TIP3    H175080   0.955   5.304   3.361  0.3420 -0.0878 -0.1507
17863TIP3    H275081   0.914   5.184   3.279 -0.4711 -0.3698  0.6517
17864TIP3   OH275082   2.535   2.264   5.956  0.6813 -0.1780 -0.1495
17864TIP3    H175083   2.480   2.342   5.949  1.6527  0.5188 -0.2477
17864TIP3    H275084   2.476   2.191   5.935 -0.7621  0.2982  1.9481
17865TIP3   OH275085   1.486   2.410  15.300  0.0699 -0.7859  0.6040
17865TIP3    H175086   1.394   2.386  15.308 -0.5928  0.4222 -2.2509
17865TIP3    H275087   1.533   2.327  15.304 -1.3167 -1.6219  0.1379
17866TIP3   OH275088   0.727   5.773  15.462  0.3255  0.0840 -0.2556
17866TIP3    H175089   0.786   5.716  15.412  1.3890 -0.3894  1.4758
17866TIP3    H275090   0.781   5.847  15.488 -0.2313  0.3509  0.1536
17867TIP3   OH275091   0.223   1.865   0.788  0.4995  0.3938 -0.4289
17867TIP3    H175092   0.254   1.852   0.698 -1.4340 -0.3996 -1.0191
17867TIP3    H275093   0.179   1.949   0.787  0.7135  0.5132 -0.1358
17868TIP3   OH275094   2.962   0.114   5.389  0.0272 -0.4811  0.3913
17868TIP3    H175095   2.961   0.058   5.311  0.9764  0.4329 -0.2923
17868TIP3    H275096   3.029   0.179   5.371 -0.6132  0.5026  1.4528
17869TIP3   OH275097   0.304   4.504  12.236  0.0225  0.0953 -0.6626
17869TIP3    H175098   0.288   4.450  12.313 -0.9794  1.2709 -0.0109
17869TIP3    H275099   0.398   4.492  12.217  0.1828 -0.5451  0.4622
17870TIP3   OH275100   5.903   3.833  10.308  0.0195 -0.0207 -0.3328
17870TIP3    H175101   5.925   3.892  10.381 -0.5856 -0.9138  0.6060
17870TIP3    H275102   5.913   3.887  10.230  1.5802  0.7125  0.3367
17871TIP3   OH275103   1.211   4.568  11.204  0.2512 -0.1197  0.0634
17871TIP3    H175104   1.149   4.509  11.161 -0.1082 -0.5298  1.1105
17871TIP3    H275105   1.219   4.533  11.293 -1.9692  2.8661  1.5977
17872TIP3   OH275106   6.342   4.834  15.777  0.1865  0.0273 -0.1525
17872TIP3    H175107   6.356   4.741  15.793  2.7264  0.4821  0.7171
17872TIP3    H275108   6.254   4.851  15.811  0.4355 -1.6770  1.5564
17873TIP3   OH275109   2.671   6.452  14.055  0.1110  0.6655 -0.6085
17873TIP3    H175110   2.753   6.410  14.083  0.2027  1.0167 -0.3449
17873TIP3    H275111   2.699   6.516  13.990 -0.2634 -1.4365 -3.0311
17874TIP3   OH275112   2.674   3.518   1.749 -0.2994  0.3456  0.6172
17874TIP3    H175113   2.629   3.470   1.680  1.5576  0.4705 -0.7626
17874TIP3    H275114   2.682   3.456   1.821 -1.7635  0.0232  0.5326
17875TIP3   OH275115   2.296   0.005  11.498  0.1766  0.0259  0.7878
17875TIP3    H175116   2.215   0.001  11.448 -0.0702 -0.4667  1.2153
17875TIP3    H275117   2.290   0.087  11.547  0.7266  0.8529 -0.4828
17876TIP3   OH275118   3.973   2.871   0.798 -0.0622  0.7501 -0.3406
17876TIP3    H175119   3.989   2.896   0.707 -0.4671  1.5766 -0.1983
17876TIP3    H275120   3.881   2.895   0.813 -0.2146 -0.0704  0.0696
17877TIP3   OH275121   3.084   5.374   2.099  0.2049  0.7783 -0.3573
17877TIP3    H175122   3.129   5.456   2.079  0.3369  0.6481 -0.5937
17877TIP3    H275123   2.991   5.397   2.097  0.1799  0.6083 -1.8732
17878TIP3   OH275124   3.231   4.345   0.240 -0.1306  0.2333  0.3956
17878TIP3    H175125   3.311   4.323   0.287 -0.9933  1.0255  2.3275
17878TIP3    H275126   3.202   4.262   0.202  0.9323 -0.3090  0.7328
17879TIP3   OH275127   1.623   6.542   5.246 -0.5375 -0.1048 -0.8593
17879TIP3    H175128   1.535   6.513   5.222  0.0428 -1.5193 -1.4506
17879TIP3    H275129   1.668   6.461   5.272  0.6883  0.5262 -0.9423
17880TIP3   OH275130   5.460   2.716   5.564 -0.3849 -0.4198  0.0581
17880TIP3    H175131   5.421   2.802   5.579  0.0065 -0.3143  0.4837
17880TIP3    H275132   5.438   2.695   5.473 -0.8954 -0.0894  0.1003
17881TIP3   OH275133   1.278   3.861   0.501  0.3154  0.2681 -0.0904
17881TIP3    H175134   1.372   3.872   0.509  0.1272  2.0957  0.0678
17881TIP3    H275135   1.258   3.884   0.411 -0.0206  0.2459 -0.0253
17882TIP3   OH275136   2.958   6.403  10.754  0.3497 -0.4198  0.3216
17882TIP3    H175137   2.973   6.309  10.766  0.0457 -0.2741  2.2858
17882TIP3    H275138   3.023   6.430  10.690  1.0932 -1.8062  0.4512
17883TIP3   OH275139   1.841   6.837  16.458  0.1096 -0.0799  0.2069
17883TIP3    H175140   1.799   6.795  16.383  0.3635 -0.4687  0.2782
17883TIP3    H275141   1.787   6.913  16.477 -0.2545 -0.2769 -0.0391
17884TIP3   OH275142   3.790   4.197   0.440 -0.3305  0.3001 -0.0768
17884TIP3    H175143   3.881   4.204   0.466 -0.6301 -0.2194  1.1679
17884TIP3    H275144   3.791   4.133   0.368  0.3797  0.9832 -0.6914
17885TIP3   OH275145   0.727   6.515  10.551  0.0010 -0.2985 -0.0939
17885TIP3    H175146   0.707   6.606  10.573  0.8392 -0.1378  0.0167
17885TIP3    H275147   0.689   6.464  10.622  1.2090  0.1019  0.8743
17886TIP3   OH275148   4.071   6.552   5.730 -0.4321 -1.2796  0.1629
17886TIP3    H175149   4.120   6.560   5.648  2.0016 -0.9205  1.5831
17886TIP3    H275150   4.113   6.480   5.777 -2.3405 -2.0572  0.7757
17887TIP3   OH275151   1.598   6.391   5.601 -0.0386  0.0165 -0.1884
17887TIP3    H175152   1.669   6.454   5.585  0.8304 -1.4654 -2.7022
17887TIP3    H275153   1.595   6.338   5.522 -3.1547 -0.8311  0.3727
17888TIP3   OH275154   4.800   0.709  13.313 -0.1574 -0.2691  0.2400
17888TIP3    H175155   4.803   0.620  13.349 -1.2284  0.5151  2.4598
17888TIP3    H275156   4.712   0.740  13.334 -0.2247  0.9246 -1.6063
17889TIP3   OH275157   2.305   1.255   3.634 -0.5998  0.3275  0.7186
17889TIP3    H175158   2.347   1.250   3.549  0.7620 -1.7064  1.4248
17889TIP3    H275159   2.213   1.236   3.617 -0.1243 -1.3574 -0.1994
17890TIP3   OH275160   5.627   5.244  13.946  0.4096  0.4688  0.8123
17890TIP3    H175161   5.690   5.186  13.988 -0.3054 -0.9239  0.0184
17890TIP3    H275162   5.659   5.255  13.857 -0.7963 -0.8181  0.1895
17891TIP3   OH275163   5.495   3.607  11.746  0.6392  0.5130  0.1054
17891TIP3    H175164   5.528   3.575  11.829  0.5967  1.2458  0.4074
17891TIP3    H275165   5.542   3.556  11.680  1.9074  1.0962  0.5371
17892TIP3   OH275166   0.075   1.036  14.385 -0.1795 -0.5974  0.0906
17892TIP3    H175167   0.062   0.971  14.315  1.2932 -0.9342  0.0894
17892TIP3    H275168   0.117   1.110  14.341  0.3119 -0.6158  0.5160
17893TIP3   OH275169   2.884   4.926   5.855  0.0259  0.0325  0.5491
17893TIP3    H175170   2.971   4.916   5.816  0.0835  3.3387 -0.4944
17893TIP3    H275171   2.826   4.881   5.794  0.4473  2.8260 -2.2378
17894TIP3   OH275172   4.813   0.729   2.295 -0.3980 -0.2020 -0.5037
17894TIP3    H175173   4.876   0.741   2.224 -0.4513  1.2388 -0.3456
17894TIP3    H275174   4.727   0.737   2.252 -0.4432 -0.1704 -0.4083
17895TIP3   OH275175   4.198   3.997  15.440  0.4703 -0.0755  0.4556
17895TIP3    H175176   4.173   4.048  15.517 -1.9167 -0.2709 -0.0933
17895TIP3    H275177   4.194   4.059  15.367 -0.3402 -0.5353  0.0892
17896TIP3   OH275178   2.307   6.475   2.278  0.3929 -0.8456  0.8088
17896TIP3    H175179   2.259   6.421   2.341  2.0156 -1.6623  1.4066
17896TIP3    H275180   2.303   6.425   2.196  0.6363 -1.1437  0.9789
17897TIP3   OH275181   0.007   5.366  13.066  0.0781  0.1656  0.0673
17897TIP3    H175182   0.042   5.425  12.999  0.1941 -0.1570 -0.1598
17897TIP3    H275183  -0.038   5.297  13.016  0.0215  0.0108  0.3268
17898TIP3   OH275184   1.973   0.835   3.193 -0.2359 -0.0683  0.0635
17898TIP3    H175185   1.919   0.888   3.252  1.1750  1.2796  0.1873
17898TIP3    H275186   2.030   0.897   3.148  1.1080 -1.3962 -0.1829
17899TIP3   OH275187   2.421   5.008  12.660  0.2836  0.2758 -0.4355
17899TIP3    H175188   2.345   4.996  12.604  1.3458 -0.5829 -1.7620
17899TIP3    H275189   2.482   4.939  12.633  1.1894  0.3857  1.1884
17900TIP3   OH275190   1.889   4.680  13.161 -0.7227  0.5086 -0.7269
17900TIP3    H175191   1.913   4.772  13.171  0.9742  0.2870 -2.1881
17900TIP3    H275192   1.889   4.665  13.066 -2.1924 -0.7128 -0.5761
17901TIP3   OH275193   4.474   5.204   4.286  0.4123 -0.0376  0.1807
17901TIP3    H175194   4.503   5.255   4.211 -0.1955  0.2453  0.1300
17901TIP3    H275195   4.520   5.242   4.361  1.8927 -1.0500 -0.1850
17902TIP3   OH275196   5.981   6.530  12.514 -0.4083  0.0350  0.0722
17902TIP3    H175197   6.037   6.603  12.487 -0.7841 -0.2114 -1.5114
17902TIP3    H275198   5.999   6.519  12.607  1.5593  0.4987 -0.1988
17903TIP3   OH275199   2.529   5.888  16.242  0.1035 -0.2538 -0.1138
17903TIP3    H175200   2.479   5.870  16.162  1.3133 -0.7028 -0.8037
17903TIP3    H275201   2.616   5.853  16.224  0.1813 -1.1072  1.7333
17904TIP3   OH275202   3.280   3.443  12.827 -0.7822  0.2961  0.0042
17904TIP3    H175203   3.271   3.348  12.835 -1.0377  0.2988 -0.1991
17904TIP3    H275204   3.369   3.456  12.794 -0.6939  0.1362  0.1777
17905TIP3   OH275205   5.874   1.113   5.791 -0.5814  0.3577  0.2234
17905TIP3    H175206   5.935   1.117   5.717 -2.3289  1.5604 -1.2475
17905TIP3    H275207   5.896   1.031   5.835  2.2425  0.8663 -0.0547
17906TIP3   OH275208   4.726   1.533   5.700 -0.0469 -0.5704  0.3179
17906TIP3    H175209   4.674   1.524   5.620 -0.7152  0.1421  0.6516
17906TIP3    H275210   4.816   1.517   5.673 -0.1403  0.6056 -0.7727
17907TIP3   OH275211   2.868   3.298   5.056 -0.0955 -0.0718  0.1931
17907TIP3    H175212   2.943   3.243   5.080 -0.3763 -0.5169  0.0794
17907TIP3    H275213   2.811   3.239   5.006 -0.4188  0.3214  0.0926
17908TIP3   OH275214   6.432   2.467  17.038 -0.5854  0.2064 -0.1424
17908TIP3    H175215   6.425   2.465  17.133 -0.0124 -0.9217 -0.0999
17908TIP3    H275216   6.465   2.554  17.018  1.0043 -0.1289  0.8462
17909TIP3   OH275217   2.588   3.874  13.419  0.0026 -0.3651 -0.7677
17909TIP3    H175218   2.612   3.964  13.395 -0.7941  0.1085  0.1739
17909TIP3    H275219   2.496   3.879  13.443  0.3692 -1.1050  0.9239
17910TIP3   OH275220   4.603   2.464   3.256 -0.3160  0.0084  0.3474
17910TIP3    H175221   4.514   2.449   3.226  0.0139 -1.8027  0.1384
17910TIP3    H275222   4.612   2.408   3.333  0.9266 -0.6449 -0.2346
17911TIP3   OH275223   6.050   6.549  13.367  0.1769  0.4690 -0.0042
17911TIP3    H175224   6.025   6.471  13.318  0.0137  1.6015 -1.8437
17911TIP3    H275225   5.970   6.601  13.373  0.6187  1.1740 -0.1413
17912TIP3   OH275226   2.708   1.759  16.779  0.0425 -0.1054  0.3270
17912TIP3    H175227   2.738   1.847  16.758  2.9314 -1.5084 -2.1116
17912TIP3    H275228   2.669   1.726  16.698  1.9955 -2.1378  0.1154
17913TIP3   OH275229   5.168   1.299   3.155  0.2047  0.2955  0.6130
17913TIP3    H175230   5.187   1.330   3.243 -0.0140  1.3843  0.2905
17913TIP3    H275231   5.252   1.264   3.123  0.8065  1.7291  0.5315
17914TIP3   OH275232   3.018   2.782   4.016  0.1299 -0.0238  0.2089
17914TIP3    H175233   3.041   2.715   3.952  0.6375 -0.3718  0.7342
17914TIP3    H275234   3.071   2.858   3.992 -2.2390  1.1104 -1.8883
17915TIP3   OH275235   2.431   4.441   2.038  0.3560 -0.3773  0.2512
17915TIP3    H175236   2.471   4.359   2.067 -0.9688 -1.5087 -0.9429
17915TIP3    H275237   2.481   4.466   1.960  0.8727  0.0771  0.7154
17916TIP3   OH275238   1.695   1.438  11.775 -0.3563  0.4342 -0.0036
17916TIP3    H175239   1.607   1.476  11.768 -1.0883 -1.2548 -0.4727
17916TIP3    H275240   1.707   1.425  11.869 -1.4118 -1.0015 -0.0228
17917TIP3   OH275241   0.097   1.933   3.946  0.3384 -0.4621 -0.0372
17917TIP3    H175242   0.050   1.858   3.910 -0.1934  0.7999 -2.1137
17917TIP3    H275243   0.045   1.960   4.022 -0.5271 -1.0183 -0.4232
17918TIP3   OH275244   6.713   0.350  12.840  0.3192  0.4279 -0.0888
17918TIP3    H175245   6.762   0.351  12.922  0.0006 -1.5307  0.1811
17918TIP3    H275246   6.627   0.314  12.863 -0.3750  1.4411 -0.9988
17919TIP3   OH275247   6.589   4.765  15.649  0.0707 -0.0616 -0.1636
17919TIP3    H175248   6.521   4.744  15.714 -0.3771  0.6659 -0.3883
17919TIP3    H275249   6.560   4.720  15.570  0.6672 -1.0296  0.1534
17920TIP3   OH275250   3.089   0.837  16.221 -0.2018 -0.2103 -0.7474
17920TIP3    H175251   3.040   0.866  16.298 -1.7822 -0.8073 -1.4701
17920TIP3    H275252   3.080   0.908  16.158 -1.3365 -0.8497 -1.3572
17921TIP3   OH275253   1.768   2.951  12.669 -0.2326  0.1831  0.3237
17921TIP3    H175254   1.733   3.003  12.742  0.8149  0.5185  0.6020
17921TIP3    H275255   1.794   2.868  12.710 -1.0074 -0.1992  0.0544
17922TIP3   OH275256   6.031   5.654   4.752  0.2239  0.5763 -0.6170
17922TIP3    H175257   6.049   5.564   4.778  1.0906  0.7790 -0.4862
17922TIP3    H275258   5.987   5.693   4.828  0.2928  0.3997 -0.4869
17923TIP3   OH275259   1.420   0.157   3.112  0.1828 -0.3940  0.3053
17923TIP3    H175260   1.468   0.158   3.195  0.2167 -1.6149  0.3259
17923TIP3    H275261   1.384   0.245   3.104 -1.2016 -0.6589  2.4534
17924TIP3   OH275262   6.775   4.530  14.224 -0.1250 -0.1088 -0.1807
17924TIP3    H175263   6.780   4.435  14.212  0.4151  0.1180 -1.9502
17924TIP3    H275264   6.708   4.542  14.292  1.4766 -1.8334  1.8481
17925TIP3   OH275265   6.266   4.762   2.699 -0.1259 -0.0930  0.0083
17925TIP3    H175266   6.188   4.817   2.711 -1.3025 -1.7981  0.4337
17925TIP3    H275267   6.287   4.732   2.787  0.3256 -0.5693 -0.2634
17926TIP3   OH275268   2.401   2.244   2.490  0.4684  0.0396  0.3868
17926TIP3    H175269   2.361   2.328   2.512  1.3326  0.2959  1.0359
17926TIP3    H275270   2.351   2.179   2.541 -0.1726  0.1549 -0.0839
17927TIP3   OH275271   1.558   3.368   4.651  0.1929  0.5142  0.8223
17927TIP3    H175272   1.623   3.390   4.585 -0.6406  0.5597 -0.0008
17927TIP3    H275273   1.555   3.445   4.708  1.6023  0.0981  1.5016
17928TIP3   OH275274   1.372   0.110  11.190  0.6535 -0.5195  1.0379
17928TIP3    H175275   1.333   0.034  11.148  0.4405 -1.4735  2.8629
17928TIP3    H275276   1.466   0.105  11.169  0.3568 -0.1543 -0.4703
17929TIP3   OH275277   3.438   0.368   3.177 -0.1399 -0.4016  0.0456
17929TIP3    H175278   3.354   0.385   3.135  0.1822 -2.9242 -1.8021
17929TIP3    H275279   3.482   0.454   3.178 -2.1126  0.6663 -0.2855
17930TIP3   OH275280   6.799   6.259   5.028  0.4574  0.3387  0.7498
17930TIP3    H175281   6.814   6.277   4.935  0.8110 -0.8991  0.5548
17930TIP3    H275282   6.725   6.316   5.052  0.2575  0.5457 -0.3246
17931TIP3   OH275283   4.220   0.521   2.421  0.1844  0.0983  0.2848
17931TIP3    H175284   4.310   0.548   2.402  0.3200  0.5886  1.5354
17931TIP3    H275285   4.200   0.561   2.505 -0.4398 -1.7684  1.0793
17932TIP3   OH275286   1.139   3.928  13.486  0.1776  0.5329  0.4725
17932TIP3    H175287   1.097   3.998  13.438  1.7029  0.5511 -0.9158
17932TIP3    H275288   1.131   3.954  13.578 -1.7402  1.0910  0.1865
17933TIP3   OH275289   4.841   1.835   2.878  0.0080 -0.0815 -0.7725
17933TIP3    H175290   4.767   1.776   2.890  1.3082 -2.1810 -2.5507
17933TIP3    H275291   4.812   1.896   2.810 -0.7644  0.3648 -0.0623
17934TIP3   OH275292   4.027   4.227  16.119  0.0804 -0.4061 -0.2566
17934TIP3    H175293   3.955   4.270  16.073  0.5325  0.3033 -0.3245
17934TIP3    H275294   4.054   4.290  16.186 -0.8268 -1.5870  1.2733
17935TIP3   OH275295   3.399   0.504   0.905 -0.0203 -0.6691  0.2311
17935TIP3    H175296   3.451   0.510   0.985  0.4550  0.4518 -0.1370
17935TIP3    H275297   3.462   0.515   0.834 -0.4154 -1.7862 -0.3174
17936TIP3   OH275298   2.138   0.498  12.630 -0.7880 -0.4059 -0.1547
17936TIP3    H175299   2.163   0.551  12.705 -2.0557  1.3807 -0.9283
17936TIP3    H275300   2.162   0.409  12.655  0.1884  0.3276  1.7394
17937TIP3   OH275301   1.065   1.837  12.009 -0.9032  0.2193 -0.2478
17937TIP3    H175302   0.984   1.812  12.054 -0.3541 -0.4832  0.3747
17937TIP3    H275303   1.122   1.871  12.079 -0.1718 -0.5342 -0.4635
17938TIP3   OH275304   0.466   3.633  14.036 -0.5169  0.1418  0.2421
17938TIP3    H175305   0.512   3.586  13.967 -0.3884 -1.3212  1.2544
17938TIP3    H275306   0.523   3.707  14.057 -0.8031  0.8847 -1.5226
17939TIP3   OH275307   0.929   2.653   5.019  0.4028  0.1071  0.4430
17939TIP3    H175308   0.912   2.642   4.926  1.2572  0.8161  0.1902
17939TIP3    H275309   0.923   2.565   5.056 -1.3969  0.0086 -0.0108
17940TIP3   OH275310   3.061   6.330   2.281 -0.0375  0.1187 -0.3640
17940TIP3    H175311   3.052   6.263   2.350  0.3267  0.7344  0.2997
17940TIP3    H275312   2.985   6.317   2.225  0.1712 -1.0364 -0.4120
17941TIP3   OH275313   0.608   1.835  16.374  0.0485  0.0373  0.1216
17941TIP3    H175314   0.597   1.857  16.467  0.5599  1.5798 -0.1444
17941TIP3    H275315   0.618   1.740  16.372 -0.3621 -0.0643  1.5986
17942TIP3   OH275316   1.515   2.076   0.055 -0.3983 -0.0417  0.2591
17942TIP3    H175317   1.603   2.074   0.093  0.1404 -0.5973 -0.9442
17942TIP3    H275318   1.527   2.042  -0.034 -1.8224 -0.0412  0.0431
17943TIP3   OH275319   4.277   3.423   4.582 -0.1423 -0.9236 -0.0282
17943TIP3    H175320   4.327   3.504   4.574 -0.3853 -0.5974  1.5127
17943TIP3    H275321   4.240   3.426   4.670 -1.7396 -1.8056 -0.6226
17944TIP3   OH275322   2.735   3.228   5.747  0.1166 -0.7722  0.0144
17944TIP3    H175323   2.747   3.319   5.774  1.0254 -1.3159  1.5883
17944TIP3    H275324   2.641   3.214   5.751 -0.0675  0.1929 -0.6101
17945TIP3   OH275325   4.280   1.917   0.810  0.7241  0.0535  0.2715
17945TIP3    H175326   4.265   1.928   0.904 -2.4990 -2.6892  0.2650
17945TIP3    H275327   4.241   1.995   0.770  1.4916  0.9038  1.1195
17946TIP3   OH275328   4.700   4.217   6.558 -0.8163 -0.3958  0.2512
17946TIP3    H175329   4.785   4.226   6.516 -0.9969 -1.7571 -0.4275
17946TIP3    H275330   4.666   4.133   6.528 -1.2557 -1.1178  2.5525
17947TIP3   OH275331   3.330   2.692   1.509  0.2781  0.6047  0.2090
17947TIP3    H175332   3.235   2.685   1.518  0.4559 -0.5282  1.6438
17947TIP3    H275333   3.357   2.606   1.477  0.7000  1.4142 -1.7173
17948TIP3   OH275334   2.811   3.055   1.323 -0.8457  0.2601  0.6548
17948TIP3    H175335   2.757   2.994   1.274  0.1291  0.9903 -1.4253
17948TIP3    H275336   2.771   3.140   1.309  0.0252  0.6163  0.2269
17949TIP3   OH275337   3.999   5.357  14.082  0.1377 -0.3516 -0.1469
17949TIP3    H175338   3.971   5.268  14.099  0.8568 -0.2595  1.6465
17949TIP3    H275339   4.089   5.361  14.114  1.1027  0.3041 -2.6565
17950TIP3   OH275340   4.519   1.399  16.495  0.7937 -0.1193  0.4183
17950TIP3    H175341   4.537   1.492  16.508  0.1516  0.0195  0.3259
17950TIP3    H275342   4.497   1.366  16.582  2.1645 -0.4486  0.6633
17951TIP3   OH275343   2.017   3.862  10.492 -0.3706  0.7402  0.2180
17951TIP3    H175344   2.069   3.814  10.556  1.2663 -0.3042 -1.7797
17951TIP3    H275345   1.928   3.828  10.502  0.5947 -2.3215 -0.6769
17952TIP3   OH275346   1.013   3.636   0.801 -0.2187 -0.0212 -0.0873
17952TIP3    H175347   1.061   3.716   0.780  0.0679 -0.6846 -2.1614
17952TIP3    H275348   1.049   3.607   0.885 -0.1440  1.8432  0.5642
17953TIP3   OH275349   1.821   6.292  12.025 -0.4951 -0.6575  1.0001
17953TIP3    H175350   1.798   6.205  12.058 -0.7165 -1.1320 -0.3743
17953TIP3    H275351   1.792   6.352  12.094 -3.5842 -1.4098  0.4764
17954TIP3   OH275352   2.897   0.968  12.920 -0.2947  0.4424  0.1155
17954TIP3    H175353   2.835   0.961  12.847 -1.2711  2.5637  0.6727
17954TIP3    H275354   2.847   0.939  12.996  0.5389 -1.1771  0.1027
17955TIP3   OH275355   1.545   6.715   1.895 -0.4099 -0.4761  0.4206
17955TIP3    H175356   1.451   6.701   1.881 -0.2445 -0.6000 -0.5991
17955TIP3    H275357   1.587   6.642   1.849  0.2866  0.9221 -1.2594
17956TIP3   OH275358   5.827   1.636  12.417 -0.3289  0.2147  0.4210
17956TIP3    H175359   5.736   1.616  12.439 -0.9385  0.8297 -1.3729
17956TIP3    H275360   5.867   1.660  12.500 -0.9582 -2.9967  1.8188
17957TIP3   OH275361   4.681   0.876  11.448 -0.6795  0.3059  0.0719
17957TIP3    H175362   4.685   0.780  11.456  1.5490  0.3757  0.6477
17957TIP3    H275363   4.617   0.903  11.514 -2.7343 -0.8539 -1.3502
17958TIP3   OH275364   2.990   4.399   5.722  0.2777 -0.2841  0.3343
17958TIP3    H175365   2.903   4.363   5.709  0.0782  0.1475  0.4658
17958TIP3    H275366   3.022   4.417   5.634 -0.1102  0.3552  0.3128
17959TIP3   OH275367   5.134   3.556   3.855 -0.3320  0.3030  0.0059
17959TIP3    H175368   5.206   3.614   3.879 -0.1076 -0.4766  1.3290
17959TIP3    H275369   5.089   3.539   3.938 -2.3110  1.1039 -0.8422
17960TIP3   OH275370   3.050   1.959   2.827  0.0879 -0.8902  0.1148
17960TIP3    H175371   2.976   1.925   2.777 -0.1975 -0.8377  0.5013
17960TIP3    H275372   3.124   1.954   2.766 -0.9029  2.5820 -1.6757
17961TIP3   OH275373   3.129   2.846  14.197  0.0132 -0.4807 -0.4857
17961TIP3    H175374   3.213   2.814  14.231  0.1505 -0.4495 -0.7944
17961TIP3    H275375   3.063   2.790  14.239 -0.0149  1.0760  1.7315
17962TIP3   OH275376   6.206   4.142  14.800 -0.0626 -0.4160  0.4644
17962TIP3    H175377   6.198   4.237  14.808 -0.6920 -0.4926  0.8653
17962TIP3    H275378   6.151   4.119  14.726  1.4522 -0.2961 -0.7356
17963TIP3   OH275379   2.182   6.102  12.123  0.6760  0.0062 -0.1598
17963TIP3    H175380   2.188   6.185  12.076  3.9081 -0.2268 -0.4224
17963TIP3    H275381   2.120   6.050  12.074 -0.0271  1.6295 -1.0562
17964TIP3   OH275382   2.893   4.729   5.114  0.0360 -0.3784 -0.2577
17964TIP3    H175383   2.827   4.695   5.053 -0.4399 -2.1179  1.1240
17964TIP3    H275384   2.976   4.718   5.067 -0.4146 -0.5417 -1.0484
17965TIP3   OH275385   3.250   0.844   5.740 -0.8700 -0.2797 -0.3852
17965TIP3    H175386   3.175   0.902   5.730  0.2206  1.1040 -0.9571
17965TIP3    H275387   3.289   0.870   5.824 -1.7582 -1.9091  0.5710
17966TIP3   OH275388   0.494   0.349  15.559 -0.3178  0.8609  0.1347
17966TIP3    H175389   0.553   0.406  15.608 -1.0709  1.6731  0.1188
17966TIP3    H275390   0.529   0.350  15.470 -1.2280  2.6235 -0.2449
17967TIP3   OH275391   6.712   0.319   0.860  0.1197 -0.4250  0.0178
17967TIP3    H175392   6.780   0.334   0.795  1.3595 -0.0068  1.3587
17967TIP3    H275393   6.738   0.238   0.903 -0.8140 -0.8244 -0.1401
17968TIP3   OH275394   5.933   4.744  16.265 -0.5937 -0.2177 -0.4370
17968TIP3    H175395   5.981   4.797  16.329  1.2636  0.1234 -1.9999
17968TIP3    H275396   5.858   4.709  16.313  0.2948  0.6446  1.6875
17969TIP3   OH275397   6.590   0.348  13.145  0.2560  0.1736 -0.2731
17969TIP3    H175398   6.678   0.314  13.127 -0.0335 -1.4254  1.0518
17969TIP3    H275399   6.531   0.278  13.115 -0.5290  0.8625 -0.3607
17970TIP3   OH275400   5.653   5.374   1.151 -0.3038  0.0712  0.6247
17970TIP3    H175401   5.650   5.317   1.075 -1.0057  0.4183  0.3880
17970TIP3    H275402   5.746   5.379   1.174  0.0766  0.9637 -0.9614
17971TIP3   OH275403   3.056   1.122   4.350 -0.5144  0.1296 -0.2176
17971TIP3    H175404   3.142   1.099   4.317 -0.3418 -0.6269  0.7210
17971TIP3    H275405   3.009   1.038   4.357 -0.6812  0.2973  1.0171
17972TIP3   OH275406   1.926   1.822  16.154 -0.1429 -0.2271  0.3121
17972TIP3    H175407   1.980   1.833  16.076 -0.5610  1.2227  0.2002
17972TIP3    H275408   1.975   1.761  16.209  1.0365  0.1593 -0.2803
17973TIP3   OH275409   1.583   2.018   1.218 -0.0261  0.1013 -0.1055
17973TIP3    H175410   1.489   2.030   1.207 -0.0343 -0.6053 -0.8819
17973TIP3    H275411   1.603   2.059   1.302 -1.3987 -1.7223  1.1570
17974TIP3   OH275412   4.597   0.561   5.375  0.3305 -0.8656 -0.2942
17974TIP3    H175413   4.606   0.609   5.293  1.1208 -0.2471  0.1345
17974TIP3    H275414   4.654   0.609   5.436 -1.0969 -0.6415  0.9018
17975TIP3   OH275415   0.755   6.436   1.429  0.0165  0.1175 -0.1818
17975TIP3    H175416   0.773   6.491   1.505  1.1046  0.0211 -0.3413
17975TIP3    H275417   0.737   6.497   1.358  1.4424  0.3139 -0.4117
17976TIP3   OH275418   3.466   2.950   0.058  0.0419  0.2512  0.0573
17976TIP3    H175419   3.540   2.892   0.079 -0.3300 -0.5501 -0.8109
17976TIP3    H275420   3.423   2.964   0.142  0.1496 -0.7175  0.2822
17977TIP3   OH275421   2.013   0.498  13.403  0.3471 -0.1000 -0.3454
17977TIP3    H175422   2.045   0.446  13.330  2.2436 -0.2385  0.4927
17977TIP3    H275423   1.954   0.562  13.364  1.7935  0.2505 -2.1074
17978TIP3   OH275424   6.650   0.914   3.873 -0.2620 -0.0576 -0.1886
17978TIP3    H175425   6.715   0.904   3.804 -0.3124 -1.5815 -0.0521
17978TIP3    H275426   6.680   0.989   3.924  0.4604  0.2950 -1.1188
17979TIP3   OH275427   5.952   6.398  12.027 -0.0540 -0.0915 -0.8054
17979TIP3    H175428   5.898   6.476  12.039 -1.0714 -0.5385 -2.2314
17979TIP3    H275429   5.977   6.373  12.116 -0.4884  1.3073 -0.2591
17980TIP3   OH275430   6.229   1.477  15.008 -0.1367  0.6171 -0.2383
17980TIP3    H175431   6.156   1.491  15.068  0.3615  0.6216  0.3738
17980TIP3    H275432   6.287   1.551  15.024  0.6241 -0.0626  0.2066
17981TIP3   OH275433   2.244   4.270   1.520  0.1134  0.8801  0.4255
17981TIP3    H175434   2.209   4.225   1.443 -0.9403  0.3659  1.1862
17981TIP3    H275435   2.187   4.347   1.531 -0.3599  0.4189  1.2594
17982TIP3   OH275436   4.698   2.698   4.179 -0.1835  0.8814 -0.4751
17982TIP3    H175437   4.761   2.758   4.221  1.2694 -0.7858 -0.1553
17982TIP3    H275438   4.651   2.659   4.253 -1.0676  1.5152 -0.6821
17983TIP3   OH275439   0.277   3.671   5.493  0.4597 -0.4450  0.4897
17983TIP3    H175440   0.256   3.680   5.586 -0.2646 -1.7621  0.4675
17983TIP3    H275441   0.199   3.631   5.454  1.2533 -1.1282 -0.4446
17984TIP3   OH275442   5.966   4.954  14.642 -0.1301  0.2580  0.2719
17984TIP3    H175443   5.911   5.019  14.598  0.2928  0.9523  0.7439
17984TIP3    H275444   6.025   5.006  14.697  0.3393 -0.5206  0.5209
17985TIP3   OH275445   3.800   3.592  12.400  0.0280  0.1435  0.0294
17985TIP3    H175446   3.813   3.502  12.370 -0.2002  0.6242 -1.6003
17985TIP3    H275447   3.712   3.592  12.438 -0.4397 -0.0574 -1.0349
17986TIP3   OH275448   2.729   0.294   4.711  0.3563  0.0226 -0.1318
17986TIP3    H175449   2.729   0.301   4.616  1.3025 -0.6680 -0.1965
17986TIP3    H275450   2.821   0.286   4.735  0.0323 -2.7398  0.5917
17987TIP3   OH275451   0.406   3.453   2.242  0.4868  0.6300 -0.5196
17987TIP3    H175452   0.448   3.531   2.279  0.9456  0.4431 -0.6315
17987TIP3    H275453   0.464   3.427   2.170  1.2169 -0.7318  0.4984
17988TIP3   OH275454   4.664   6.051   4.806  0.1291  0.3161 -0.1364
17988TIP3    H175455   4.570   6.065   4.810  0.1978  0.9928 -0.7275
17988TIP3    H275456   4.679   6.006   4.723  0.5715  2.5886 -1.3883
17989TIP3   OH275457   0.436   5.130   2.353 -0.2289  0.1087  0.2602
17989TIP3    H175458   0.447   5.195   2.422  0.9952 -0.5115  0.6811
17989TIP3    H275459   0.509   5.148   2.293 -1.1043  0.4504 -0.7269
17990TIP3   OH275460   2.315   0.563   2.736 -0.2345 -0.5328 -0.3605
17990TIP3    H175461   2.400   0.576   2.693 -0.0970 -2.1655 -0.6133
17990TIP3    H275462   2.251   0.569   2.665 -0.5315  2.1069  0.0098
17991TIP3   OH275463   4.622   2.529   2.176 -0.3762  0.1081  0.1523
17991TIP3    H175464   4.625   2.590   2.103 -2.0307 -0.3553 -0.3518
17991TIP3    H275465   4.535   2.543   2.214 -0.3640 -1.1831  0.6831
17992TIP3   OH275466   0.311   6.125  15.405  0.6200  0.0547  0.0373
17992TIP3    H175467   0.241   6.158  15.460  0.0457 -1.6832  0.3885
17992TIP3    H275468   0.380   6.099  15.467  1.5947  1.7016 -0.2990
17993TIP3   OH275469   5.405   4.459  11.910 -0.3446  0.0260 -0.1478
17993TIP3    H175470   5.460   4.408  11.970 -0.3087 -0.2944 -0.4514
17993TIP3    H275471   5.450   4.543  11.902 -0.7631  0.3756  0.9018
17994TIP3   OH275472   0.130   2.893   5.534 -0.2914 -0.1315  0.3778
17994TIP3    H175473   0.104   2.889   5.626 -1.0115 -0.0010  0.1869
17994TIP3    H275474   0.070   2.957   5.495 -0.4863 -0.7340 -0.3331
17995TIP3   OH275475   2.972   1.388   3.846 -0.2866 -0.0888 -0.1846
17995TIP3    H175476   2.951   1.340   3.926  0.9041  1.2921  1.0104
17995TIP3    H275477   2.954   1.326   3.775 -2.6973 -0.8943  1.0370
17996TIP3   OH275478   4.067   5.162   5.277  0.3076  0.4663 -0.3821
17996TIP3    H175479   4.109   5.081   5.307 -2.7405 -0.4427  1.9348
17996TIP3    H275480   4.099   5.229   5.336 -0.1236  0.1374  0.2335
17997TIP3   OH275481   5.441   3.113   0.768  0.2032 -0.5911 -0.3887
17997TIP3    H175482   5.524   3.114   0.817 -0.0301  0.1697  0.0161
17997TIP3    H275483   5.407   3.202   0.778 -0.6436 -0.8866 -0.5860
17998TIP3   OH275484   1.768   2.490   0.986  0.2869 -0.5531 -0.2321
17998TIP3    H175485   1.810   2.436   1.053  0.6233 -0.7718 -0.6121
17998TIP3    H275486   1.842   2.527   0.937  0.0582  0.0848 -0.1102
17999TIP3   OH275487   2.182   3.833  12.558 -0.3116  0.8158  0.3412
17999TIP3    H175488   2.109   3.772  12.547  1.0460 -0.7616 -0.5500
17999TIP3    H275489   2.191   3.843  12.653 -0.3600 -0.6844  0.5258
18000TIP3   OH275490   4.775   3.147  14.557  0.0757  0.0148  0.5436
18000TIP3    H175491   4.824   3.153  14.474  0.4249 -0.6674  0.6955
18000TIP3    H275492   4.695   3.100  14.534 -0.3044  0.7369  0.3860
18001TIP3   OH275493   0.410   6.208   0.412  0.0876 -0.1676  0.0155
18001TIP3    H175494   0.431   6.201   0.505  2.1693 -1.1170 -0.4490
18001TIP3    H275495   0.474   6.151   0.369 -1.5058 -0.6009 -1.9300
18002TIP3   OH275496   0.277   6.420   1.952 -0.1552  0.0994 -0.4999
18002TIP3    H175497   0.362   6.441   1.991 -1.2439 -0.4491  2.4507
18002TIP3    H275498   0.278   6.324   1.943 -0.9392 -0.0928  1.0125
18003TIP3   OH275499   0.278   5.037  10.983  0.5156  0.2780  0.7264
18003TIP3    H175500   0.301   4.944  10.984 -0.0831  0.1263  1.1453
18003TIP3    H275501   0.188   5.039  10.950 -0.5162  0.4278  3.2807
18004TIP3   OH275502   3.627   2.785   2.662 -0.4382 -1.0878  0.0527
18004TIP3    H175503   3.702   2.802   2.719 -0.8725 -0.7309  0.5301
18004TIP3    H275504   3.569   2.730   2.715 -0.1418 -2.0726 -0.6160
18005TIP3   OH275505   5.103   3.988   5.023 -0.4726  0.6954  0.0365
18005TIP3    H175506   5.142   4.071   4.998  0.7407  0.6590  1.6456
18005TIP3    H275507   5.049   3.963   4.948  0.9747  1.7784 -1.4344
18006TIP3   OH275508   2.610   2.068   4.104 -0.7604 -0.3267 -0.6803
18006TIP3    H175509   2.686   2.029   4.148  1.2008  1.5975 -2.1635
18006TIP3    H275510   2.549   2.088   4.175  1.3768  0.7522  0.9626
18007TIP3   OH275511   1.801   0.216  16.618 -0.3220 -0.2644 -0.0111
18007TIP3    H175512   1.890   0.250  16.609 -0.6695  0.3346 -1.5027
18007TIP3    H275513   1.746   0.282  16.575 -1.2996 -1.4165 -0.5919
18008TIP3   OH275514   2.205   4.503  13.377 -0.3478 -0.3388  0.0869
18008TIP3    H175515   2.255   4.563  13.321  0.4262 -0.2398  0.8704
18008TIP3    H275516   2.170   4.558  13.447 -0.3652 -0.6570  0.3296
18009TIP3   OH275517   1.326   6.707  11.880  0.5635  0.1152 -0.4572
18009TIP3    H175518   1.292   6.619  11.896  0.2010 -0.1115 -2.3370
18009TIP3    H275519   1.419   6.694  11.861  0.2521 -0.0185 -1.9550
18010TIP3   OH275520   2.757   2.675   5.205 -0.3036  0.2744 -0.4895
18010TIP3    H175521   2.836   2.654   5.155  0.2858 -0.0627  0.5359
18010TIP3    H275522   2.753   2.770   5.204 -0.3460  0.2689 -1.2414
18011TIP3   OH275523   0.793   3.036   0.282  0.6175 -0.2865  0.0842
18011TIP3    H175524   0.829   3.097   0.217  1.9763 -1.7627 -0.6205
18011TIP3    H275525   0.836   3.060   0.364  1.0107 -0.1693 -0.1520
18012TIP3   OH275526   6.007   0.820  16.811  0.1258  0.0855 -0.0260
18012TIP3    H175527   6.012   0.822  16.907  1.0515 -1.9655  0.0175
18012TIP3    H275528   5.914   0.805  16.792 -0.0111  0.1501  0.5728
18013TIP3   OH275529   3.703   1.546  10.380  0.0407  0.5823 -0.1078
18013TIP3    H175530   3.676   1.455  10.387 -0.3096  0.7125  0.2570
18013TIP3    H275531   3.651   1.580  10.307 -0.8179  0.8408  0.6142
18014TIP3   OH275532   1.851   6.399  13.746  0.6690  0.1268  0.1080
18014TIP3    H175533   1.875   6.311  13.715 -1.2951  0.1192 -1.6401
18014TIP3    H275534   1.855   6.454  13.667 -0.5720  1.0318  0.6354
18015TIP3   OH275535   1.651   4.521  17.005  0.3430 -0.1640  0.0009
18015TIP3    H175536   1.560   4.550  17.005  1.1168  2.6840 -2.2003
18015TIP3    H275537   1.688   4.559  17.085  0.0031  0.0530  0.0583
18016TIP3   OH275538   1.964   1.569  12.375 -0.3412 -0.4593  0.6829
18016TIP3    H175539   1.949   1.534  12.287  0.1154 -0.6122  0.6636
18016TIP3    H275540   2.031   1.512  12.412  0.2994  0.2902  0.7142
18017TIP3   OH275541   3.729   1.096   3.807  0.1424  0.0438 -0.5909
18017TIP3    H175542   3.749   1.131   3.894  1.6707 -0.7023 -0.5991
18017TIP3    H275543   3.775   1.154   3.746  0.8205 -0.6291 -0.7430
18018TIP3   OH275544   6.771   1.745  12.529  0.0985 -0.1995  0.7900
18018TIP3    H175545   6.785   1.812  12.596 -0.1578  1.2042 -0.4844
18018TIP3    H275546   6.753   1.795  12.449 -2.2284 -1.8100  0.2147
18019TIP3   OH275547   0.002   2.511  14.719 -0.1251 -0.3982  0.7269
18019TIP3    H175548  -0.060   2.540  14.652 -1.7349  0.3570  2.4706
18019TIP3    H275549  -0.029   2.424  14.744  0.5265 -0.7148  0.4614
18020TIP3   OH275550   5.372   0.833  15.403  0.0049 -0.2359  0.6211
18020TIP3    H175551   5.408   0.838  15.315  1.3894 -0.4203  1.1513
18020TIP3    H275552   5.444   0.862  15.460 -0.9656  0.2118  1.6700
18021TIP3   OH275553   2.436   5.505   2.958  0.1699  0.4560 -0.1353
18021TIP3    H175554   2.397   5.592   2.956 -0.0256  0.3685 -0.1113
18021TIP3    H275555   2.388   5.459   3.027  0.9493  0.6550  0.5647
18022TIP3   OH275556   2.044   3.903   1.909 -0.2771 -0.0900 -0.5088
18022TIP3    H175557   1.990   3.981   1.897  0.5135  0.4150 -0.8766
18022TIP3    H275558   2.011   3.841   1.844 -1.0985 -0.1842 -0.0216
18023TIP3   OH275559   4.028   3.580  13.052 -0.1991  0.1711 -0.4692
18023TIP3    H175560   4.012   3.606  12.962  0.1924  2.5177  0.0795
18023TIP3    H275561   4.121   3.594  13.066  0.2204 -2.3252 -0.2883
18024TIP3   OH275562   1.811   3.452   0.381  0.5208 -0.5007 -0.2055
18024TIP3    H175563   1.738   3.393   0.403 -0.9926  1.6454  0.8672
18024TIP3    H275564   1.781   3.497   0.301  0.7509  0.2532  0.1320
18025TIP3   OH275565   4.197   5.708  15.195 -1.0797  0.2718 -0.1671
18025TIP3    H175566   4.242   5.792  15.208  0.3378  0.1950 -3.4630
18025TIP3    H275567   4.237   5.649  15.258 -1.4592  1.7776  1.5966
18026TIP3   OH275568   3.371   6.205   6.175  0.5185  1.0923 -0.6014
18026TIP3    H175569   3.278   6.225   6.186 -0.1345 -2.5968  3.8520
18026TIP3    H275570   3.415   6.267   6.233  0.4596  0.9230 -0.3723
18027TIP3   OH275571   5.031   3.850   1.128  0.0580  0.0124 -0.0896
18027TIP3    H175572   5.098   3.873   1.192 -0.8515  0.6511  0.6598
18027TIP3    H275573   4.956   3.904   1.151 -0.9058 -1.0705 -0.5704
18028TIP3   OH275574   1.195   1.074  14.710 -0.5272  0.0465 -0.1290
18028TIP3    H175575   1.279   1.068  14.756 -0.7793  0.3344  0.3790
18028TIP3    H275576   1.136   1.017  14.760 -1.0397  1.0509  0.4582
18029TIP3   OH275577   6.035   5.315   6.156  0.6971  0.3626  0.2584
18029TIP3    H175578   6.051   5.405   6.185  1.0869  0.4090 -0.0919
18029TIP3    H275579   5.947   5.294   6.188  1.3972  0.1282  2.1986
18030TIP3   OH275580   1.973   2.144   2.518 -0.2828 -0.0551 -0.4025
18030TIP3    H175581   1.908   2.136   2.588  2.5390 -0.8543  2.3826
18030TIP3    H275582   2.008   2.055   2.507  1.6405  0.6436 -0.3477
18031TIP3   OH275583   6.313   6.328  14.502 -0.5457  0.0287  0.1788
18031TIP3    H175584   6.325   6.242  14.461 -1.1969 -0.4682  0.9750
18031TIP3    H275585   6.230   6.320  14.550 -1.7810  1.8252 -1.5206
18032TIP3   OH275586   6.162   6.293  14.874 -0.2938 -0.4546 -0.6838
18032TIP3    H175587   6.139   6.206  14.840 -0.1200 -1.1505  0.9026
18032TIP3    H275588   6.255   6.286  14.896 -0.1414  0.3168 -1.0643
18033TIP3   OH275589   6.744   2.527  16.482  0.2021  0.1214 -0.3967
18033TIP3    H175590   6.761   2.577  16.401  1.3893  0.4308  0.0189
18033TIP3    H275591   6.695   2.588  16.537 -2.3503 -0.7224 -1.5470
18034TIP3   OH275592   6.367   0.741   2.433 -0.1805  0.1364 -0.8588
18034TIP3    H175593   6.273   0.733   2.415  0.1951 -0.2803 -2.8880
18034TIP3    H275594   6.409   0.712   2.352  1.6698  2.8643 -1.0077
18035TIP3   OH275595   5.975   4.127   0.771  0.1921 -0.1897  0.1546
18035TIP3    H175596   5.959   4.122   0.677  0.5448  0.0645  0.0797
18035TIP3    H275597   6.070   4.127   0.779  0.1689 -0.9886  0.5535
18036TIP3   OH275598   4.871   2.184   5.185  0.1378 -0.4744  0.0777
18036TIP3    H175599   4.866   2.239   5.106  1.1969 -2.0019 -1.1312
18036TIP3    H275600   4.959   2.146   5.181 -0.9077 -3.0919  0.2223
18037TIP3   OH275601   0.856   0.637  12.745 -0.1642 -0.4349  0.4602
18037TIP3    H175602   0.828   0.630  12.654  1.5604  0.0575 -0.1570
18037TIP3    H275603   0.852   0.547  12.778 -1.0945 -0.5734  0.0093
18038TIP3   OH275604   0.181   0.684  14.993  0.0748 -0.0368  0.1082
18038TIP3    H175605   0.131   0.746  14.941  1.5469  1.2382  0.1396
18038TIP3    H275606   0.247   0.650  14.933  1.9141  1.5886  1.0797
18039TIP3   OH275607   2.106   2.984   2.756  0.4998  0.3614  0.4467
18039TIP3    H175608   2.079   3.067   2.716 -3.9508 -1.5944 -1.2952
18039TIP3    H275609   2.170   2.947   2.695 -0.1451  1.0093 -0.6554
18040TIP3   OH275610   4.933   2.251  10.914 -0.7590 -0.3012 -0.0252
18040TIP3    H175611   4.913   2.245  10.821 -0.2728  0.1462 -0.1598
18040TIP3    H275612   5.011   2.197  10.926 -0.9050 -0.4773  0.1523
18041TIP3   OH275613   6.440   2.376   3.735  0.3209 -0.2994 -0.7987
18041TIP3    H175614   6.501   2.445   3.758 -1.6316  1.5393 -0.8068
18041TIP3    H275615   6.474   2.340   3.653  1.9964 -0.1679 -0.1926
18042TIP3   OH275616   0.470   1.642   0.671  0.1132 -0.3115 -0.3201
18042TIP3    H175617   0.469   1.639   0.575  2.0853  0.1301 -0.4019
18042TIP3    H275618   0.451   1.734   0.692  2.9657  0.4157 -0.4920
18043TIP3   OH275619   1.913   2.946  16.880 -0.2232  0.1593  0.7859
18043TIP3    H175620   1.982   2.911  16.937 -0.8019 -0.5374  1.0764
18043TIP3    H275621   1.960   2.978  16.803  0.3734 -1.0794  0.5925
18044TIP3   OH275622   3.216   6.177   0.013  0.1984 -0.2997 -0.3463
18044TIP3    H175623   3.218   6.081   0.018 -1.6362 -0.3231  0.9271
18044TIP3    H275624   3.256   6.197  -0.072 -0.4884 -2.2746 -1.1986
18045TIP3   OH275625   1.715   2.993  13.075 -0.0947  0.5196  0.1096
18045TIP3    H175626   1.748   2.908  13.102  1.3026  0.6823 -0.9565
18045TIP3    H275627   1.736   3.051  13.149  0.1489  0.2009  0.2942
18046TIP3   OH275628   3.371   3.263  11.728 -0.0677 -0.3441 -0.7006
18046TIP3    H175629   3.445   3.297  11.678  1.0815 -0.8772  0.6115
18046TIP3    H275630   3.377   3.168  11.719  1.4786 -0.6166  2.1650
18047TIP3   OH275631   0.673   2.025   0.657 -0.0618 -0.0635  0.3021
18047TIP3    H175632   0.617   2.056   0.728  0.8006 -1.0681  1.4600
18047TIP3    H275633   0.730   2.099   0.637 -0.5856  0.3601  0.3460
18048TIP3   OH275634   5.168   0.478   5.372  0.2095  0.6538 -0.2005
18048TIP3    H175635   5.109   0.544   5.407  2.1438  1.2228  2.2957
18048TIP3    H275636   5.201   0.515   5.291  0.5511  2.3936  0.6813
18049TIP3   OH275637   3.919   4.663   3.657  0.4626  0.0785  0.0050
18049TIP3    H175638   3.947   4.571   3.650  0.4015  0.1315 -1.2116
18049TIP3    H275639   3.829   4.658   3.689 -0.0269 -0.3793 -1.3747
18050TIP3   OH275640   1.854   0.667  11.345  0.0662  0.3895  0.1281
18050TIP3    H175641   1.899   0.617  11.413  0.5662  2.3912  1.3530
18050TIP3    H275642   1.895   0.639  11.263  2.6150  1.0966  1.0747
18051TIP3   OH275643   3.568   6.713  12.139  0.5035  0.0559 -0.4338
18051TIP3    H175644   3.497   6.660  12.176  1.0170 -0.1962  0.1986
18051TIP3    H275645   3.575   6.788  12.199  1.8020 -0.7013  0.3947
18052TIP3   OH275646   5.112   6.590   6.263 -0.4344 -0.3964 -0.0021
18052TIP3    H175647   5.155   6.523   6.317  0.5827 -0.5942 -1.0031
18052TIP3    H275648   5.130   6.672   6.308 -3.1141 -0.8608  2.1569
18053TIP3   OH275649   3.748   1.608  14.984  0.0890 -0.1712  0.0369
18053TIP3    H175650   3.786   1.524  14.956  0.4688 -0.2606  0.7937
18053TIP3    H275651   3.655   1.600  14.962  0.3512 -0.2468 -1.1466
18054TIP3   OH275652   2.557   4.844   2.472  0.5820 -0.3193  0.3803
18054TIP3    H175653   2.642   4.863   2.512  1.1390 -1.9219  0.0021
18054TIP3    H275654   2.505   4.923   2.489  2.0046  0.5308  0.9589
18055TIP3   OH275655   6.233   1.805   4.135  0.6858  0.1274  0.0962
18055TIP3    H175656   6.303   1.748   4.167  0.1537 -0.3085  0.5158
18055TIP3    H275657   6.211   1.769   4.049  0.7901  0.0914  0.0842
18056TIP3   OH275658   4.427   4.266   5.927 -0.5118 -0.4074 -0.8972
18056TIP3    H175659   4.341   4.256   5.966  1.3028 -0.0047  3.8831
18056TIP3    H275660   4.442   4.361   5.926  0.0523 -0.4918 -1.3683
18057TIP3   OH275661   4.138   6.265  15.363 -0.8132  0.0704  0.0411
18057TIP3    H175662   4.052   6.236  15.335 -1.3347  1.3260  0.2797
18057TIP3    H275663   4.174   6.312  15.288 -1.2207  1.3551  0.6157
18058TIP3   OH275664   2.951   3.755  16.928  0.1385 -0.1681 -0.7677
18058TIP3    H175665   2.948   3.834  16.981 -1.0178 -0.3279 -0.5539
18058TIP3    H275666   2.859   3.734  16.912  0.2754 -2.6679  1.0199
18059TIP3   OH275667   2.970   5.041   4.384 -0.2318  0.3803 -0.3127
18059TIP3    H175668   2.984   5.134   4.402 -0.8291  0.6474 -1.1791
18059TIP3    H275669   3.048   4.997   4.419  0.3048  1.2617 -0.3944
18060TIP3   OH275670   1.886   3.188   0.889 -0.0033  0.0705 -0.1450
18060TIP3    H175671   1.885   3.154   0.800 -0.8313 -1.6696  0.4868
18060TIP3    H275672   1.872   3.111   0.945 -1.2526  1.3429  1.3973
18061TIP3   OH275673   4.608   5.593  15.674 -0.1826  0.1091 -0.4012
18061TIP3    H175674   4.565   5.678  15.675 -0.9795 -0.2854 -0.2769
18061TIP3    H275675   4.682   5.602  15.734  0.1438  0.9102 -0.9129
18062TIP3   OH275676   3.656   0.951   5.195  0.4099 -0.6245 -0.1314
18062TIP3    H175677   3.616   0.955   5.283  0.2647 -3.4280  0.0391
18062TIP3    H275678   3.733   0.896   5.207  1.7518  0.9063 -1.3686
18063TIP3   OH275679   5.649   6.500   5.412 -0.2437 -0.0127 -0.0291
18063TIP3    H175680   5.577   6.551   5.374  0.2705  0.1741 -0.7647
18063TIP3    H275681   5.669   6.543   5.495 -1.1703 -0.2362  0.3233
18064TIP3   OH275682   5.568   3.137  16.081  0.0336 -0.0218 -0.4034
18064TIP3    H175683   5.579   3.231  16.074  0.4204 -0.1062 -0.9699
18064TIP3    H275684   5.646   3.106  16.128 -1.1617  0.1916  1.8596
18065TIP3   OH275685   4.930   1.786  15.285  0.5648 -0.3520 -0.0800
18065TIP3    H175686   4.955   1.782  15.193 -2.9005  1.3558 -1.2557
18065TIP3    H275687   4.888   1.701  15.302  0.5752 -0.3908 -0.2502
18066TIP3   OH275688   3.854   2.476   1.008  0.2542 -0.1236  0.5509
18066TIP3    H175689   3.855   2.558   0.959 -0.7684 -0.9577 -0.9292
18066TIP3    H275690   3.767   2.473   1.048  1.0013  0.4483  2.3219
18067TIP3   OH275691   4.729   0.432  13.755 -0.1598 -0.0405 -0.5165
18067TIP3    H175692   4.797   0.404  13.816 -0.3749  0.3340 -0.1028
18067TIP3    H275693   4.738   0.373  13.681 -2.0849 -2.8748  1.2758
18068TIP3   OH275694   6.526   4.325  16.987  0.1200  0.1181 -0.4893
18068TIP3    H175695   6.502   4.235  17.009 -1.1743  0.2965 -1.0690
18068TIP3    H275696   6.444   4.365  16.957  0.6400  1.5339 -0.1084
18069TIP3   OH275697   5.686   2.822   2.203  0.3403 -0.0562  0.0859
18069TIP3    H175698   5.730   2.749   2.247  0.9898 -0.5076 -1.2593
18069TIP3    H275699   5.754   2.888   2.193 -0.2766  0.8090  1.4046
18070TIP3   OH275700   6.780   2.095  13.439 -0.2865 -0.0520 -0.0662
18070TIP3    H175701   6.715   2.055  13.498 -0.5668  1.5533  0.7875
18070TIP3    H275702   6.857   2.039  13.447 -0.1185  0.4127  2.3207
18071TIP3   OH275703   4.490   1.502  15.494  0.1639  0.2672 -0.1020
18071TIP3    H175704   4.561   1.562  15.472 -0.1852  0.5235 -0.5443
18071TIP3    H275705   4.429   1.556  15.544 -0.2726  0.3495 -0.7208
18072TIP3   OH275706   4.105   5.737   4.845  0.0438 -0.4201  0.0685
18072TIP3    H175707   4.106   5.661   4.903 -1.1496  0.3167  1.0891
18072TIP3    H275708   4.056   5.707   4.768  1.1001 -1.2094 -0.3254
18073TIP3   OH275709   4.302   4.497  14.498  0.1316 -0.6788 -0.0694
18073TIP3    H175710   4.346   4.414  14.518  0.4470 -0.4946  0.0069
18073TIP3    H275711   4.210   4.473  14.489  0.3537 -1.2169 -1.0538
18074TIP3   OH275712   3.979   5.394  13.222  0.9679  0.1906 -0.1418
18074TIP3    H175713   3.917   5.328  13.251  2.4481 -0.2068  2.4270
18074TIP3    H275714   3.931   5.477  13.227  0.0321 -0.3341 -0.3092
18075TIP3   OH275715   5.176   2.089  10.854 -0.2586  0.2706 -0.0887
18075TIP3    H175716   5.105   2.052  10.907 -0.2405  1.0386  0.4889
18075TIP3    H275717   5.196   2.021  10.791 -0.3158 -0.6587  0.8610
18076TIP3   OH275718   1.201   6.729   2.716  0.9383 -0.0471  0.1897
18076TIP3    H175719   1.154   6.646   2.722 -0.1641  0.5767  0.4176
18076TIP3    H275720   1.292   6.706   2.737  0.5565 -1.0944  0.7914
18077TIP3   OH275721   2.833   6.289  17.106 -0.0923 -0.2014  0.2751
18077TIP3    H175722   2.806   6.278  17.197  1.9530  0.4565  1.0093
18077TIP3    H275723   2.849   6.200  17.075  0.6338 -0.3520  1.0463
18078TIP3   OH275724   0.533   6.230  13.827  0.3123  0.1754 -0.0913
18078TIP3    H175725   0.554   6.286  13.902 -0.9072  1.0482 -0.3654
18078TIP3    H275726   0.536   6.289  13.751  0.0082 -0.3458 -0.5142
18079TIP3   OH275727   2.224   0.363   5.489  0.1666 -0.1122 -0.5667
18079TIP3    H175728   2.248   0.438   5.434  0.8830 -0.6996 -1.0851
18079TIP3    H275729   2.274   0.375   5.570 -0.4110  0.4272 -0.2793
18080TIP3   OH275730   1.253   1.960   1.895 -0.4886 -0.3196  0.0352
18080TIP3    H175731   1.211   1.881   1.929  1.1960 -1.0467  0.5693
18080TIP3    H275732   1.209   2.032   1.939  1.9254 -1.2158  4.4429
18081TIP3   OH275733   5.008   2.637   6.014  0.2909  0.5505  0.0771
18081TIP3    H175734   4.926   2.647   6.062  0.1624 -1.7615  0.4710
18081TIP3    H275735   5.071   2.609   6.080  0.4377 -1.3807 -0.8058
18082TIP3   OH275736   4.998   5.882   6.583  0.0196 -0.3814 -0.2328
18082TIP3    H175737   5.075   5.837   6.547  0.2683  0.8406 -1.3241
18082TIP3    H275738   4.991   5.962   6.531 -1.0200  0.3370  0.9580
18083TIP3   OH275739   1.291   3.717  11.863 -0.6787  0.5155  0.2471
18083TIP3    H175740   1.210   3.668  11.851  0.0503 -0.1629 -2.8751
18083TIP3    H275741   1.283   3.791  11.802  1.1103  0.2651 -0.3499
18084TIP3   OH275742   2.304   0.037  12.358  0.4528 -0.0669  0.3892
18084TIP3    H175743   2.283  -0.055  12.376  2.3723 -0.2297  2.1379
18084TIP3    H275744   2.320   0.040  12.264 -1.5478 -1.0698 -0.0396
18085TIP3   OH275745   4.105   1.979  11.833 -0.0843  0.5930  0.2347
18085TIP3    H175746   4.059   2.061  11.818 -1.3156 -0.1885 -0.5124
18085TIP3    H275747   4.148   1.960  11.750 -1.9830 -0.7815 -0.5093
18086TIP3   OH275748   1.468   1.591  16.794  0.1533 -0.0826  0.3600
18086TIP3    H175749   1.412   1.559  16.865  2.6706  0.4408  2.7546
18086TIP3    H275750   1.508   1.670  16.829  0.5877  0.9194 -2.1884
18087TIP3   OH275751   0.899   0.526   0.896 -0.1686 -0.0410 -0.0560
18087TIP3    H175752   0.811   0.563   0.897 -0.2749 -0.2594 -0.8675
18087TIP3    H275753   0.903   0.475   0.815  0.4183 -0.7273  0.3922
18088TIP3   OH275754   3.291   1.064  10.969  0.0065  0.4167 -0.5386
18088TIP3    H175755   3.204   1.089  10.999  0.5489 -0.4729  2.0113
18088TIP3    H275756   3.340   1.146  10.965 -0.5412  0.7440 -0.6123
18089TIP3   OH275757   3.863   0.786   4.567 -0.7342  0.2254  0.2111
18089TIP3    H175758   3.837   0.697   4.593  0.1709  0.3119  1.5391
18089TIP3    H275759   3.864   0.784   4.471 -2.2222 -0.7337  0.1745
18090TIP3   OH275760   1.753   4.328   5.482 -0.0867  0.8578  0.0915
18090TIP3    H175761   1.769   4.248   5.531  1.8057  2.1906  1.7886
18090TIP3    H275762   1.829   4.338   5.426 -1.7045 -0.0431 -2.4407
18091TIP3   OH275763   0.783   1.633   5.954  0.1025 -0.1463  0.1863
18091TIP3    H175764   0.822   1.665   6.035 -0.1207  0.6308  0.0013
18091TIP3    H275765   0.827   1.550   5.936  0.9322  0.2166  0.5194
18092TIP3   OH275766   1.729   0.371   2.638  0.1934  0.5197 -0.1006
18092TIP3    H175767   1.736   0.349   2.545 -0.9148  0.8785 -0.2913
18092TIP3    H275768   1.812   0.342   2.676  0.3900 -0.2544 -1.0706
18093TIP3   OH275769   6.630   1.515   1.978 -0.2855 -0.6422 -0.0104
18093TIP3    H175770   6.546   1.488   1.940  0.0863 -0.8254 -0.7241
18093TIP3    H275771   6.695   1.485   1.915  0.5177 -2.7378  1.6914
18094TIP3   OH275772   2.296   0.011   0.031  0.1288 -0.6323 -0.1109
18094TIP3    H175773   2.355  -0.008  -0.041  0.6989 -1.0443  0.4533
18094TIP3    H275774   2.333   0.090   0.072  0.1456 -0.7384  0.0813
18095TIP3   OH275775   3.992   0.043   1.899 -0.6619 -1.0065  0.0288
18095TIP3    H175776   3.909   0.087   1.884  0.2830  0.7957 -0.1295
18095TIP3    H275777   4.037   0.097   1.963  0.6411 -1.6002 -0.3546
18096TIP3   OH275778   4.753   6.540  14.355  0.2255  0.1336 -0.0343
18096TIP3    H175779   4.769   6.455  14.315 -1.6136  0.0960 -0.8048
18096TIP3    H275780   4.763   6.602  14.283  3.5316  0.8710  0.9159
18097TIP3   OH275781   4.649   6.260   6.624 -0.1289 -0.0129 -0.1046
18097TIP3    H175782   4.607   6.185   6.582  0.5271 -0.4805  0.0566
18097TIP3    H275783   4.709   6.221   6.687 -0.5221  0.6605  0.7138
18098TIP3   OH275784   1.386   5.904  10.716  0.2408 -0.7521 -0.2089
18098TIP3    H175785   1.311   5.946  10.758  0.7383  1.2042 -1.1362
18098TIP3    H275786   1.365   5.810  10.716 -0.4192 -0.6963  2.9930
18099TIP3   OH275787   1.233   1.194   6.487 -0.5679  0.3449 -0.4245
18099TIP3    H175788   1.228   1.111   6.440 -0.1094 -1.1506  1.9767
18099TIP3    H275789   1.158   1.244   6.455 -0.9714 -1.0577 -1.8057
18100TIP3   OH275790   0.753   5.895  12.772 -0.4306  0.4618 -0.5833
18100TIP3    H175791   0.673   5.945  12.755 -0.0193  1.1878 -0.4109
18100TIP3    H275792   0.823   5.959  12.766  0.2895 -0.4024 -2.0438
18101TIP3   OH275793   4.872   1.562  11.763  0.4485 -0.2317  0.4973
18101TIP3    H175794   4.943   1.624  11.779  0.1706  0.2251 -0.0024
18101TIP3    H275795   4.826   1.598  11.687 -0.9168  0.0065  1.4184
18102TIP3   OH275796   4.003   6.322   4.171 -0.0281  0.9368  0.3002
18102TIP3    H175797   3.975   6.231   4.167 -0.6392  1.1528 -1.9023
18102TIP3    H275798   3.933   6.370   4.127  2.5130  1.8145 -3.2610
18103TIP3   OH275799   6.639   4.516   0.750 -0.2122  0.0503  0.2365
18103TIP3    H175800   6.714   4.466   0.782  0.9487 -0.4898 -2.9271
18103TIP3    H275801   6.677   4.596   0.713 -1.0466 -0.3891 -1.7377
18104TIP3   OH275802   4.577   3.261  14.365  0.4418 -0.1543  0.0241
18104TIP3    H175803   4.502   3.320  14.377  1.0529  0.4909  0.7384
18104TIP3    H275804   4.637   3.284  14.436  1.1291 -0.9626 -0.2855
18105TIP3   OH275805   2.824   6.251   1.363  0.8424 -0.4750 -0.1450
18105TIP3    H175806   2.883   6.324   1.340 -0.0142  0.0094 -0.8773
18105TIP3    H275807   2.869   6.206   1.434  2.4431 -0.5428 -1.1471
18106TIP3   OH275808   5.035   3.097  14.016  0.2448  0.0903  0.0878
18106TIP3    H175809   5.016   3.003  14.019  0.8392 -0.0191  0.7302
18106TIP3    H275810   5.129   3.103  14.032  0.0164  0.8627  1.2893
18107TIP3   OH275811   5.556   2.987   3.562 -0.3214  0.6297 -0.3609
18107TIP3    H175812   5.509   3.042   3.625 -1.4083 -0.3136 -0.3251
18107TIP3    H275813   5.645   3.023   3.561 -0.2268  0.5982  1.8078
18108TIP3   OH275814   0.646   4.764  13.629  0.4456  0.3548 -0.8334
18108TIP3    H175815   0.643   4.827  13.701  0.1788  2.2193 -2.4089
18108TIP3    H275816   0.725   4.788  13.580  0.2955 -0.5081 -1.5086
18109TIP3   OH275817   1.806   4.432   2.563 -0.4101 -0.2250  0.6367
18109TIP3    H175818   1.726   4.389   2.532 -1.1069  1.3630  0.1073
18109TIP3    H275819   1.869   4.421   2.492 -0.7795  0.1316  0.2481
18110TIP3   OH275820   6.452   4.635  12.518 -0.1083 -0.2160  0.4217
18110TIP3    H175821   6.375   4.581  12.532 -0.3258 -0.5484 -1.7542
18110TIP3    H275822   6.422   4.706  12.461  1.0719 -0.1106 -0.1122
18111TIP3   OH275823   3.822   5.994   3.118 -0.5412  0.5614  0.0229
18111TIP3    H175824   3.903   5.972   3.165 -1.4315 -1.6462  0.6132
18111TIP3    H275825   3.772   6.047   3.181  0.1914  1.4815 -0.1500
18112TIP3   OH275826   3.976   1.347  15.853 -0.2483 -0.4278  0.7141
18112TIP3    H175827   4.047   1.321  15.796 -1.3009 -0.2293 -0.7574
18112TIP3    H275828   3.994   1.305  15.937  1.8152  0.0046  0.5220
18113TIP3   OH275829   1.735   2.695  13.573 -0.2681 -0.2117 -0.3985
18113TIP3    H175830   1.675   2.705  13.499 -0.5407  0.5694 -0.0865
18113TIP3    H275831   1.820   2.681  13.533 -0.1357  1.7933 -0.9044
18114TIP3   OH275832   0.852   0.906  10.658  0.3455  0.7408  0.6449
18114TIP3    H175833   0.840   0.896  10.753  1.1795 -2.0450  0.5475
18114TIP3    H275834   0.943   0.936  10.649 -0.1155  2.2418  0.7211
18115TIP3   OH275835   4.544   3.760   2.283  0.0964  0.7276 -0.8588
18115TIP3    H175836   4.508   3.680   2.246 -2.0570  1.7928 -1.2058
18115TIP3    H275837   4.492   3.776   2.362  2.7995 -0.0291  1.2412
18116TIP3   OH275838   4.006   0.848  15.236 -0.1000  0.1117  0.6096
18116TIP3    H175839   3.939   0.839  15.303 -1.5853  1.1512 -0.6583
18116TIP3    H275840   4.068   0.912  15.271  0.1680 -0.7279  1.7181
18117TIP3   OH275841   2.655   1.761  13.026  0.2653 -0.0134  0.1507
18117TIP3    H175842   2.734   1.741  12.976  0.2647 -0.5982  0.3719
18117TIP3    H275843   2.583   1.741  12.966  0.2286 -1.9455  0.7731
18118TIP3   OH275844   3.417   4.188   4.338 -0.2127  0.2786  0.1072
18118TIP3    H175845   3.364   4.254   4.295  0.4456  0.0385 -1.1359
18118TIP3    H275846   3.355   4.121   4.365 -0.7051  0.6728 -0.0431
18119TIP3   OH275847   0.644   2.074   3.564 -0.6075 -0.1303  0.0823
18119TIP3    H175848   0.653   2.150   3.506  0.8716 -0.4013 -0.0661
18119TIP3    H275849   0.731   2.060   3.600 -1.1275 -1.0196  1.0712
18120TIP3   OH275850   4.637   3.619   0.580 -0.5872 -0.8591 -0.6449
18120TIP3    H175851   4.570   3.666   0.630  1.4394 -1.0571  2.5697
18120TIP3    H275852   4.678   3.561   0.645  1.0302 -2.6014 -3.0567
18121TIP3   OH275853   6.260   0.594  14.987 -0.0137 -0.2483  0.0704
18121TIP3    H175854   6.294   0.593  14.897 -0.0505 -0.1183  0.0545
18121TIP3    H275855   6.166   0.602  14.977 -0.3317 -3.0391  0.0423
18122TIP3   OH275856   1.423   0.334  12.488 -0.1578  0.0961 -0.4002
18122TIP3    H175857   1.481   0.405  12.517 -1.5438  1.3120 -0.4608
18122TIP3    H275858   1.423   0.341  12.392 -0.4036  0.1199 -0.4005
18123TIP3   OH275859   4.736   3.646  15.316 -0.0516 -0.1667  1.0922
18123TIP3    H175860   4.660   3.692  15.352 -0.5051 -0.0274 -0.0044
18123TIP3    H275861   4.700   3.564  15.282  0.3907 -0.3644  1.1032
18124TIP3   OH275862   5.820   3.448  15.512  0.1745  0.1733  0.3054
18124TIP3    H175863   5.876   3.525  15.507  0.3639 -0.0508 -2.7578
18124TIP3    H275864   5.751   3.464  15.448 -0.1523 -1.9156  0.0562
18125TIP3   OH275865   6.317   1.862  16.533 -0.2661  0.1458 -0.6303
18125TIP3    H175866   6.342   1.881  16.443 -0.0333 -1.0118 -0.8150
18125TIP3    H275867   6.359   1.931  16.584  0.2668  0.3430 -1.3236
18126TIP3   OH275868   5.011   4.685  15.807  0.4268  0.1178 -0.0127
18126TIP3    H175869   4.937   4.624  15.801  1.0694 -0.6228 -0.6516
18126TIP3    H275870   5.089   4.629  15.800  1.0784  0.8001  1.3555
18127TIP3   OH275871   4.892   6.733  16.576  0.5187 -0.1347 -0.5644
18127TIP3    H175872   4.866   6.826  16.579 -0.3527 -0.3934  0.4608
18127TIP3    H275873   4.826   6.692  16.521 -0.8190 -0.6359  1.3282
18128TIP3   OH275874   1.929   2.901  10.748 -0.1355 -0.3211  0.4198
18128TIP3    H175875   1.953   2.847  10.823  0.9366 -1.1991 -0.5233
18128TIP3    H275876   1.994   2.972  10.749 -1.0836  0.5835  1.2104
18129TIP3   OH275877   0.191   1.502  17.047  0.5709  0.3527 -0.0814
18129TIP3    H175878   0.109   1.552  17.044  0.9286  0.9204 -0.8167
18129TIP3    H275879   0.200   1.476  17.139  0.8527  2.5041  0.5607
18130TIP3   OH275880   2.764   5.757  14.993 -1.1324  0.5438 -0.3315
18130TIP3    H175881   2.708   5.679  14.994 -1.7145  0.9567 -0.1174
18130TIP3    H275882   2.775   5.780  15.085  2.4309 -1.6360 -0.0394
18131TIP3   OH275883   4.348   6.413  14.250  0.6801  0.5541  0.1662
18131TIP3    H175884   4.330   6.341  14.190 -0.1981  0.5847  0.3825
18131TIP3    H275885   4.364   6.370  14.334  0.2271  0.6059  0.2797
18132TIP3   OH275886   1.996   1.120  11.149 -0.2936 -0.3934  0.3880
18132TIP3    H175887   1.908   1.136  11.116 -0.3119 -1.0335  0.1165
18132TIP3    H275888   2.053   1.145  11.077 -0.1037  2.2176  1.3273
18133TIP3   OH275889   0.786   3.553   0.119 -0.5430  0.0911 -0.5064
18133TIP3    H175890   0.746   3.633   0.085 -1.7070  0.2578  1.1652
18133TIP3    H275891   0.718   3.486   0.108 -0.3585 -0.1900  0.0727
18134TIP3   OH275892   1.705   4.153  14.521 -0.0378  0.2959  0.3861
18134TIP3    H175893   1.615   4.129  14.541  0.2508 -1.8682 -0.5731
18134TIP3    H275894   1.700   4.200  14.438 -0.4057  1.5439  1.1009
18135TIP3   OH275895   1.320   4.277   6.116 -0.0599  0.0753 -0.0158
18135TIP3    H175896   1.368   4.207   6.161 -0.8841 -1.0359 -0.8393
18135TIP3    H275897   1.355   4.277   6.027  1.5012  2.2152  0.5000
18136TIP3   OH275898   5.701   4.914  12.515 -0.1219 -0.0621  0.0265
18136TIP3    H175899   5.635   4.904  12.584  0.1968 -2.2495  0.0650
18136TIP3    H275900   5.698   4.832  12.467  2.4150 -0.1306 -0.1275
18137TIP3   OH275901   6.615   3.896   1.614  0.0799  0.0519 -0.0320
18137TIP3    H175902   6.653   3.813   1.641  0.4218 -0.9319 -3.1302
18137TIP3    H275903   6.688   3.943   1.572 -1.0667 -0.0604 -2.2935
18138TIP3   OH275904   1.756   4.366   3.320  0.0579  0.3814 -0.2240
18138TIP3    H175905   1.767   4.289   3.376 -1.0095  0.9407  0.7969
18138TIP3    H275906   1.678   4.346   3.267 -1.2023  1.3808  1.1825
18139TIP3   OH275907   0.803   6.186   2.046 -0.0468  0.3166 -0.1867
18139TIP3    H175908   0.828   6.202   2.137  0.1016  1.3246 -0.3888
18139TIP3    H275909   0.786   6.092   2.041  2.1002 -0.1485  0.3439
18140TIP3   OH275910   6.581   5.418   3.039  0.1417 -0.2503 -0.4543
18140TIP3    H175911   6.634   5.406   2.960 -0.2371  1.5874 -1.0436
18140TIP3    H275912   6.644   5.429   3.110  0.4998 -0.5018 -0.7317
18141TIP3   OH275913   0.464   6.059  15.962 -0.3176 -0.1453 -0.0961
18141TIP3    H175914   0.371   6.036  15.961 -0.3698 -0.0794 -2.3561
18141TIP3    H275915   0.465   6.154  15.954 -0.0606 -0.0863  0.6431
18142TIP3   OH275916   6.723   0.202  15.571  0.5115 -0.5868  0.8226
18142TIP3    H175917   6.736   0.111  15.596  1.0989 -0.6851  0.1896
18142TIP3    H275918   6.719   0.200  15.475 -1.0009 -0.1411  0.8431
18143TIP3   OH275919   3.789   1.509   2.760  0.2799 -0.0211 -0.0130
18143TIP3    H175920   3.870   1.476   2.722 -0.3952 -0.3054 -1.2539
18143TIP3    H275921   3.797   1.490   2.854  1.7693  0.2476 -0.0677
18144TIP3   OH275922   6.207   4.386   1.415 -0.3227 -0.3055  0.5500
18144TIP3    H175923   6.282   4.340   1.376  1.7038  3.0472  0.1219
18144TIP3    H275924   6.233   4.401   1.506 -0.2661  1.2438  0.2914
18145TIP3   OH275925   0.227   4.774  12.914 -0.2797  0.8590  0.2379
18145TIP3    H175926   0.144   4.732  12.892 -0.6062  1.6805 -0.1594
18145TIP3    H275927   0.217   4.801  13.005  0.4095 -0.9895  0.9146
18146TIP3   OH275928   5.102   1.417   1.140 -0.2815 -0.1457  0.2078
18146TIP3    H175929   5.090   1.389   1.231 -1.0035  0.7461  0.4001
18146TIP3    H275930   5.197   1.415   1.126 -0.1835 -0.5183  0.8998
18147TIP3   OH275931   0.810   3.134  11.838  0.5096 -0.0217 -0.0777
18147TIP3    H175932   0.767   3.124  11.753  0.8866 -0.5483 -0.2150
18147TIP3    H275933   0.775   3.216  11.874  0.4036  0.2417 -0.7726
18148TIP3   OH275934   0.157   3.896   0.901 -0.4402 -0.1052 -0.3949
18148TIP3    H175935   0.179   3.807   0.873 -1.7075 -0.8911  1.0079
18148TIP3    H275936   0.239   3.931   0.936 -0.0576 -0.8998 -0.4712
18149TIP3   OH275937   1.156   5.101  11.952  0.3063  0.4257  0.1998
18149TIP3    H175938   1.112   5.183  11.979  1.0991  0.7437  0.5508
18149TIP3    H275939   1.241   5.129  11.919  0.4557 -0.2377  0.0099
18150TIP3   OH275940   6.418   2.031   1.513 -0.2646 -0.3334  0.1084
18150TIP3    H175941   6.424   2.107   1.571  0.9616  0.7444 -1.3454
18150TIP3    H275942   6.457   1.959   1.564 -0.1130  0.3491  0.9767
18151TIP3   OH275943   1.288   2.527  14.585  0.0758 -0.3565  0.2000
18151TIP3    H175944   1.326   2.515  14.499  2.2199 -0.3930  1.0963
18151TIP3    H275945   1.204   2.481  14.581 -0.5994  0.9508 -2.2915
18152TIP3   OH275946   3.801   2.909  14.248 -0.1098 -0.4390  0.0534
18152TIP3    H175947   3.728   2.877  14.195 -0.2842  0.2031 -0.1036
18152TIP3    H275948   3.779   3.000  14.266  1.0701  0.0327 -0.7632
18153TIP3   OH275949   0.971   1.187  16.499  0.5933  0.0776 -0.2643
18153TIP3    H175950   0.883   1.223  16.501  0.4140 -0.3362 -0.6389
18153TIP3    H275951   1.015   1.235  16.428  0.4636 -0.1983 -0.5284
18154TIP3   OH275952   4.098   5.461   2.272 -0.1637  0.3104 -0.3223
18154TIP3    H175953   4.006   5.437   2.266 -0.6298  1.9288  0.0447
18154TIP3    H275954   4.143   5.378   2.290 -1.5844 -0.4306 -0.0569
18155TIP3   OH275955   6.110   6.768  11.881 -0.1326 -0.4339  0.3170
18155TIP3    H175956   6.049   6.794  11.950 -1.6327 -2.1748 -0.2803
18155TIP3    H275957   6.155   6.849  11.857 -0.2196  0.3851  2.6788
18156TIP3   OH275958   3.516   6.304  15.256 -0.1492  0.4162 -0.4786
18156TIP3    H175959   3.516   6.375  15.321 -1.4028 -0.2270  0.2775
18156TIP3    H275960   3.607   6.294  15.230  0.8164 -0.7375  2.8523
18157TIP3   OH275961   1.801   1.285  16.391  0.3883 -0.1323 -0.4245
18157TIP3    H175962   1.819   1.216  16.327  0.3750 -0.4982 -0.0344
18157TIP3    H275963   1.749   1.242  16.459 -0.4740  0.4932 -0.6655
18158TIP3   OH275964   3.990   0.204   1.049 -0.2195 -0.1096 -0.1189
18158TIP3    H175965   3.895   0.211   1.062 -0.0791  1.1241  0.3864
18158TIP3    H275966   4.010   0.268   0.981  0.2362 -0.4012 -0.2601
18159TIP3   OH275967   5.242   2.532  16.508 -0.4914 -0.0253  0.0688
18159TIP3    H175968   5.327   2.528  16.466 -0.9565 -0.2833 -0.8797
18159TIP3    H275969   5.243   2.462  16.573  0.0792  0.1010  0.2030
18160TIP3   OH275970   1.846   2.693   1.967  0.2842 -0.5214 -0.3204
18160TIP3    H175971   1.889   2.756   1.910  2.1298 -0.7847  0.6916
18160TIP3    H275972   1.908   2.619   1.971  0.7710 -0.0678  2.7974
18161TIP3   OH275973   0.526   3.753   2.635  0.3447 -0.1982 -0.0133
18161TIP3    H175974   0.436   3.730   2.612 -0.1652  1.5865  0.0972
18161TIP3    H275975   0.517   3.806   2.714  1.4531  0.4954 -0.3411
18162TIP3   OH275976   5.788   1.601  14.703 -0.3075  0.2443 -0.2611
18162TIP3    H175977   5.813   1.597  14.795 -2.9983 -1.3165  0.5337
18162TIP3    H275978   5.869   1.588  14.655  1.1179  0.7535  1.8802
18163TIP3   OH275979   4.963   3.809   1.757 -0.2463 -0.2902 -0.9017
18163TIP3    H175980   4.888   3.787   1.702 -0.8262  0.4860 -0.4574
18163TIP3    H275981   4.989   3.726   1.796 -0.6543 -0.6293 -1.3349
18164TIP3   OH275982   4.270   1.293  15.437  0.2144 -0.3167 -0.0395
18164TIP3    H175983   4.192   1.331  15.397 -0.8162 -1.5283  0.7393
18164TIP3    H275984   4.339   1.358  15.421 -1.6299  2.3879  1.9980
18165TIP3   OH275985   1.417   5.048   0.958 -0.4159  0.0570 -0.0765
18165TIP3    H175986   1.465   4.966   0.969  0.7409  0.7518  0.1917
18165TIP3    H275987   1.356   5.030   0.887  0.3278 -0.8196 -0.5197
18166TIP3   OH275988   3.851   4.787   0.971 -1.2238  0.0623  0.3022
18166TIP3    H175989   3.943   4.811   0.966 -1.1678 -0.1309  0.3995
18166TIP3    H275990   3.823   4.814   1.059 -1.2247  0.0013  0.3212
18167TIP3   OH275991   5.827   0.248  16.304  0.1783 -0.4807 -0.4400
18167TIP3    H175992   5.914   0.251  16.344  0.2102 -1.3137 -0.4377
18167TIP3    H275993   5.783   0.326  16.338  0.9254 -0.0437 -0.4538
18168TIP3   OH275994   3.613   3.897  12.566 -0.1347  0.0950 -0.8184
18168TIP3    H175995   3.564   3.891  12.483 -1.2290 -0.2725 -0.1709
18168TIP3    H275996   3.577   3.826  12.620  2.0534 -1.0613 -0.7636
18169TIP3   OH275997   0.648   0.388  17.013  0.2165  0.0865 -0.3801
18169TIP3    H175998   0.685   0.476  17.003 -1.1636  0.6746 -0.5271
18169TIP3    H275999   0.698   0.349  17.085  0.4791  1.1977  0.0596
18170TIP3   OH276000   0.470   5.867   3.289  0.0427  0.4028  0.0196
18170TIP3    H176001   0.457   5.844   3.381  0.4885  1.2903  0.3092
18170TIP3    H276002   0.462   5.783   3.243  3.0613 -0.6936  1.1720
18171TIP3   OH276003   6.803   0.675   2.590 -0.2689 -0.2816  0.1358
18171TIP3    H176004   6.868   0.727   2.639 -1.7532  1.5881  0.2619
18171TIP3    H276005   6.793   0.595   2.641  0.5684  0.2306  1.1504
18172TIP3   OH276006   5.894   2.434   5.118 -0.0259  0.8470 -0.3818
18172TIP3    H176007   5.951   2.455   5.193 -3.2143  0.9332  2.2556
18172TIP3    H276008   5.910   2.341   5.101  0.0400  0.5567  1.1348
18173TIP3   OH276009   2.523   3.242  11.227 -0.2060  0.4529 -0.4949
18173TIP3    H176010   2.571   3.241  11.309  0.3508  2.6706 -0.7192
18173TIP3    H276011   2.528   3.152  11.194 -1.1775 -0.6914  2.2510
18174TIP3   OH276012   0.417   6.483   5.051 -0.4840 -0.1247  0.1039
18174TIP3    H176013   0.511   6.496   5.039 -0.5487  1.3219  0.9880
18174TIP3    H276014   0.409   6.441   5.137 -0.7195  1.8858  1.1347
18175TIP3   OH276015   2.370   2.569   4.983  0.0162 -0.1789  0.0942
18175TIP3    H176016   2.413   2.633   5.040 -0.2471  0.2054 -0.1382
18175TIP3    H276017   2.304   2.528   5.040 -0.1651  0.1196  0.1008
18176TIP3   OH276018   4.080   0.804   3.132  0.0681 -0.2560 -0.1100
18176TIP3    H176019   4.031   0.739   3.083  1.9713 -1.4032 -0.5778
18176TIP3    H276020   4.171   0.772   3.132  1.2360  2.7202 -0.9583
18177TIP3   OH276021   0.300   2.084  11.526  0.1193  0.6263  0.1170
18177TIP3    H176022   0.376   2.050  11.479 -0.1247 -2.8872  1.9071
18177TIP3    H276023   0.233   2.016  11.516 -1.5001  1.8894  1.6600
18178TIP3   OH276024   2.113   6.412  10.869 -0.3196  0.2466  0.2373
18178TIP3    H176025   2.182   6.465  10.910 -0.9491  1.1963  0.1055
18178TIP3    H276026   2.161   6.349  10.814  0.4533  0.6914  0.3832
18179TIP3   OH276027   2.153   6.138   1.036 -0.1687 -0.2875  0.2075
18179TIP3    H176028   2.217   6.079   0.997  0.3808 -0.5062  1.3960
18179TIP3    H276029   2.090   6.081   1.079  0.4594 -0.0394  1.5095
18180TIP3   OH276030   5.018   4.534   2.977 -0.1325  0.4773 -0.0281
18180TIP3    H176031   5.077   4.564   3.046  0.2105  0.4380 -0.2998
18180TIP3    H276032   5.017   4.606   2.914  0.7831 -0.1034 -0.7391
18181TIP3   OH276033   2.953   3.637  16.270 -0.1733 -0.4598  0.3717
18181TIP3    H176034   2.915   3.700  16.209 -1.6919 -2.4265 -0.8497
18181TIP3    H276035   2.900   3.646  16.349  0.5406  0.7469  0.7303
18182TIP3   OH276036   4.854   5.732  11.400 -0.0660  0.5941  0.0553
18182TIP3    H176037   4.827   5.668  11.335  0.4695 -0.7750  1.1404
18182TIP3    H276038   4.860   5.683  11.482  1.3494  1.8018  0.7244
18183TIP3   OH276039   1.951   6.610  15.343 -0.0286  0.3916 -0.5607
18183TIP3    H176040   1.895   6.663  15.400 -0.6721 -0.1597 -0.6743
18183TIP3    H276041   1.972   6.668  15.270  0.9931  1.1852  0.3190
18184TIP3   OH276042   4.279   1.970  11.616  0.8017 -0.4158 -0.3074
18184TIP3    H176043   4.266   2.049  11.564  1.6620  0.2293  0.4427
18184TIP3    H276044   4.369   1.976  11.648  0.0872 -0.4047  1.8755
18185TIP3   OH276045   2.384   4.017   4.851 -0.2238 -0.1061 -0.0501
18185TIP3    H176046   2.462   3.994   4.902 -0.7095 -0.5396  0.5205
18185TIP3    H276047   2.390   3.962   4.772 -0.8275 -1.4695  0.8091
18186TIP3   OH276048   3.708   1.583   1.105 -0.5326  0.2389  0.0712
18186TIP3    H176049   3.784   1.612   1.055 -1.2483  0.0481 -1.1773
18186TIP3    H276050   3.744   1.532   1.177  0.5336  0.3302 -0.3832
18187TIP3   OH276051   4.304   6.320  11.356 -0.2297  1.1240 -0.4029
18187TIP3    H176052   4.323   6.323  11.263 -1.0331 -0.3200 -0.6526
18187TIP3    H276053   4.239   6.389  11.370  0.1606  1.5838 -0.8305
18188TIP3   OH276054   1.336   5.970   0.238 -0.8205 -0.0231 -0.1729
18188TIP3    H176055   1.317   5.911   0.165  0.5797  1.1980 -1.6023
18188TIP3    H276056   1.383   6.043   0.198  0.5361  0.4165  2.0428
18189TIP3   OH276057   5.483   3.292  12.222  0.0583 -0.0306 -0.2752
18189TIP3    H176058   5.452   3.204  12.240  1.2464 -0.5555 -0.6843
18189TIP3    H276059   5.574   3.280  12.192 -0.1510  1.2096 -1.5301
18190TIP3   OH276060   4.026   3.164  15.035  0.0249 -0.2835  0.1489
18190TIP3    H176061   4.020   3.221  14.958  0.7634  0.0770  0.3447
18190TIP3    H276062   4.028   3.075  14.999 -4.3045 -0.4827 -0.0481
18191TIP3   OH276063   0.094   0.215  13.404  0.4984 -0.1676  0.2509
18191TIP3    H176064   0.137   0.194  13.321  0.5232  0.4607  0.1020
18191TIP3    H276065   0.165   0.213  13.469  0.5373 -0.3222  0.2057
18192TIP3   OH276066   4.230   4.589  13.875 -0.4720 -0.6641  0.5705
18192TIP3    H176067   4.134   4.584  13.875 -0.4745 -0.6144  0.8297
18192TIP3    H276068   4.249   4.682  13.864 -0.4437 -0.7913 -0.6271
18193TIP3   OH276069   2.976   6.704   2.351 -0.1289 -0.1553  0.4690
18193TIP3    H176070   3.043   6.672   2.411  2.4807  1.6427 -1.2883
18193TIP3    H276071   2.927   6.625   2.326  2.9638 -2.0905 -0.0707
18194TIP3   OH276072   0.363   4.548  16.227 -0.0927 -0.0333 -0.3606
18194TIP3    H176073   0.347   4.628  16.178 -1.3236 -0.6159 -0.9546
18194TIP3    H276074   0.312   4.558  16.308 -1.0419 -0.6099 -0.8741
18195TIP3   OH276075   6.449   2.599  11.644 -0.1318 -0.0530  0.3967
18195TIP3    H176076   6.463   2.669  11.707  0.0285 -0.1496  0.4696
18195TIP3    H276077   6.449   2.519  11.696  0.4370 -0.1686  0.2221
18196TIP3   OH276078   1.095   4.507   5.151 -0.3865 -0.1526  0.0412
18196TIP3    H176079   1.083   4.561   5.073 -0.7326 -1.3350 -0.7425
18196TIP3    H276080   1.024   4.534   5.210 -0.5019  0.3069 -0.3032
18197TIP3   OH276081   3.803   0.048  13.726 -0.0841 -0.0382  0.1284
18197TIP3    H176082   3.779   0.126  13.776 -1.6394 -0.6580  0.4251
18197TIP3    H276083   3.830  -0.015  13.793  0.8054  0.1104 -0.0820
18198TIP3   OH276084   2.502   6.262   5.761 -0.0938 -0.1917 -0.2246
18198TIP3    H176085   2.460   6.195   5.815  1.9471 -0.7752  0.7091
18198TIP3    H276086   2.534   6.327   5.823  0.0346  0.4535 -0.9482
18199TIP3   OH276087   6.276   0.709   0.037 -0.0844  0.2465  0.2682
18199TIP3    H176088   6.339   0.667   0.096 -0.1694 -0.7076 -0.2989
18199TIP3    H276089   6.194   0.710   0.086  0.2775  1.2125  0.8907
18200TIP3   OH276090   2.618   1.296  14.623  0.5254 -0.1415  0.2396
18200TIP3    H176091   2.682   1.303  14.553  0.4858  1.0512  0.3161
18200TIP3    H276092   2.668   1.310  14.704  0.6765 -2.0402  0.5351
18201TIP3   OH276093   2.629   0.640  15.295 -1.0539 -0.1226 -0.1742
18201TIP3    H176094   2.648   0.698  15.369 -2.5848 -0.4124  0.4923
18201TIP3    H276095   2.540   0.609  15.312 -0.3098 -2.6628 -0.5107
18202TIP3   OH276096   1.843   6.130   4.341  0.1641 -0.4416 -0.1121
18202TIP3    H176097   1.766   6.186   4.351  0.3368 -0.0176 -0.9915
18202TIP3    H276098   1.875   6.116   4.430 -1.4261 -1.3511  0.3565
18203TIP3   OH276099   3.406   1.266  14.740  0.2435  0.1523 -0.2186
18203TIP3    H176100   3.341   1.335  14.756 -0.1863 -0.9237  3.8012
18203TIP3    H276101   3.368   1.214  14.670 -0.9517  2.1532 -1.1668
18204TIP3   OH276102   5.056   0.277   1.678  0.3866  0.8298 -0.0678
18204TIP3    H176103   5.119   0.273   1.607  0.3896 -0.7681 -0.0149
18204TIP3    H276104   4.973   0.251   1.637  0.5578 -1.0092  0.6356
18205TIP3   OH276105   3.238   5.750   0.773 -0.4060  0.0239 -0.1482
18205TIP3    H176106   3.278   5.685   0.831 -1.1491 -0.4561 -0.1636
18205TIP3    H276107   3.221   5.825   0.829  1.6707  0.7584 -0.3991
18206TIP3   OH276108   3.919   3.186   3.948  0.2614 -0.5216  0.6828
18206TIP3    H176109   3.911   3.104   3.900  0.3857 -0.3905  0.4339
18206TIP3    H276110   3.830   3.203   3.981  0.1086 -0.4732  0.2583
18207TIP3   OH276111   1.625   4.616   3.808 -0.6900 -0.3901  0.1409
18207TIP3    H176112   1.623   4.526   3.775 -1.7418 -0.5072  0.4724
18207TIP3    H276113   1.534   4.646   3.802 -0.7762 -0.1145  2.0953
18208TIP3   OH276114   0.558   4.442   2.754  0.0255  0.4967  0.2616
18208TIP3    H176115   0.519   4.521   2.717 -0.7408  1.1706  2.3272
18208TIP3    H276116   0.501   4.371   2.725 -2.0315  1.3013  2.0458
18209TIP3   OH276117   1.807   6.036  12.159  0.1257 -0.0761 -0.0822
18209TIP3    H176118   1.848   6.086  12.229 -1.1922  0.7247  0.1484
18209TIP3    H276119   1.880   6.004  12.106  1.0950  0.0451  1.1499
18210TIP3   OH276120   3.887   3.781   4.480 -0.5033 -0.0859  0.2493
18210TIP3    H176121   3.834   3.713   4.440  1.1368  0.0175 -2.3662
18210TIP3    H276122   3.824   3.846   4.512 -1.9905 -1.3184 -0.1030
18211TIP3   OH276123   0.906   3.038  15.386  0.7299  0.3249  0.2956
18211TIP3    H176124   0.971   3.069  15.323  1.3401 -0.5336  0.4862
18211TIP3    H276125   0.920   2.943  15.390 -1.5880 -0.1218 -0.8497
18212TIP3   OH276126   2.271   5.291   0.963 -0.1832 -0.1582  0.1135
18212TIP3    H176127   2.359   5.322   0.944  0.3465 -1.5872  0.1682
18212TIP3    H276128   2.277   5.252   1.050 -0.9783  0.1067  0.3026
18213TIP3   OH276129   5.794   1.951  12.728 -0.3527 -0.1315  0.0673
18213TIP3    H176130   5.859   1.992  12.671 -0.6276  1.5319  0.8774
18213TIP3    H276131   5.710   1.971  12.687 -0.4543 -0.6304  0.0272
18214TIP3   OH276132   6.626   5.297   2.032  0.2343  0.1302  0.0138
18214TIP3    H176133   6.690   5.227   2.041  0.6660  0.5600  0.3565
18214TIP3    H276134   6.563   5.264   1.968  1.2864  0.0593 -1.0149
18215TIP3   OH276135   5.346   0.352  12.346 -0.2732  0.5917  0.4379
18215TIP3    H176136   5.357   0.437  12.305 -2.7561  0.4936 -0.6052
18215TIP3    H276137   5.414   0.348  12.413  1.8862  2.0748 -1.5492
18216TIP3   OH276138   4.772   2.108  15.209  0.0495  1.2606 -0.2106
18216TIP3    H176139   4.821   2.111  15.291 -0.3828  1.7210  0.0371
18216TIP3    H276140   4.701   2.047  15.226  0.2641  0.9480 -0.4203
18217TIP3   OH276141   1.433   5.373  12.678 -0.2261 -0.2373  0.1454
18217TIP3    H176142   1.426   5.399  12.586 -0.6643 -0.9981 -0.0452
18217TIP3    H276143   1.500   5.430  12.714  2.1402 -1.8821 -1.3826
18218TIP3   OH276144   4.501   1.814   1.344  0.2882  0.4610 -0.6392
18218TIP3    H176145   4.469   1.891   1.390  0.6993  0.2692 -0.0139
18218TIP3    H276146   4.438   1.746   1.365  0.4661  0.3782 -0.3573
18219TIP3   OH276147   4.899   1.450   5.971 -0.8850  0.9259 -0.1218
18219TIP3    H176148   4.845   1.473   5.896  0.1341  0.6739 -0.9590
18219TIP3    H276149   4.977   1.504   5.963  0.0296 -0.3524 -0.2524
18220TIP3   OH276150   6.091   5.757  13.490  0.3688  0.7093  0.1126
18220TIP3    H176151   6.064   5.829  13.547 -0.2631  1.4259 -1.0712
18220TIP3    H276152   6.178   5.783  13.459  0.2947  0.7870 -0.0294
18221TIP3   OH276153   6.423   1.467  12.618 -0.7154 -0.2994  0.2927
18221TIP3    H176154   6.512   1.432  12.623  0.0306  1.4605  0.2824
18221TIP3    H276155   6.388   1.434  12.536  0.7885  0.7712 -0.8489
18222TIP3   OH276156   6.742   4.614  10.991 -0.1183  0.1228 -0.7884
18222TIP3    H176157   6.744   4.677  10.919  0.4334 -1.4837 -2.2526
18222TIP3    H276158   6.678   4.650  11.053 -2.7831  0.2375 -3.3612
18223TIP3   OH276159   4.927   2.220   1.668  0.4121  0.1971 -0.0272
18223TIP3    H176160   4.951   2.130   1.647  0.7812  0.4488 -0.7080
18223TIP3    H276161   5.004   2.272   1.645  0.9100  0.4914  2.0777
18224TIP3   OH276162   1.747   3.805  10.562 -0.0244  0.1397  0.1540
18224TIP3    H176163   1.683   3.741  10.595 -0.2579  0.0149 -0.5336
18224TIP3    H276164   1.695   3.883  10.545 -0.0866 -0.1111 -0.8534
18225TIP3   OH276165   1.592   4.503   5.153  0.5312 -0.2851  0.0712
18225TIP3    H176166   1.638   4.521   5.071  1.6911 -0.2306  0.7018
18225TIP3    H276167   1.654   4.531   5.221 -0.0136 -1.2130  0.9731
18226TIP3   OH276168   6.517   2.593  11.958 -0.3551  0.0380 -0.8967
18226TIP3    H176169   6.609   2.591  11.931 -0.1344  0.8364 -0.2479
18226TIP3    H276170   6.495   2.686  11.958 -0.9932 -0.1101 -0.4838
18227TIP3   OH276171   1.873   2.430  12.225  0.0719 -0.1132  0.2656
18227TIP3    H176172   1.958   2.388  12.233 -0.1316 -0.7961 -0.9997
18227TIP3    H276173   1.892   2.523  12.219  0.5747 -0.0371  2.2693
18228TIP3   OH276174   2.479   6.064   3.575  0.3210 -0.4366  0.0999
18228TIP3    H176175   2.535   5.988   3.555  0.6678 -0.2634  0.3964
18228TIP3    H276176   2.458   6.101   3.489  1.0601 -0.2231  0.0069
18229TIP3   OH276177   0.455   6.099   4.992  0.1346  0.5430  0.1671
18229TIP3    H176178   0.467   6.009   5.022  1.1505  0.6425  0.0872
18229TIP3    H276179   0.365   6.121   5.017 -1.5389 -1.7378 -3.0711
18230TIP3   OH276180   5.258   2.407  14.835 -0.0494  0.2287 -0.3060
18230TIP3    H176181   5.175   2.452  14.821 -0.4364 -0.6585 -0.9872
18230TIP3    H276182   5.273   2.360  14.753  0.2179 -1.0466  0.4489
18231TIP3   OH276183   3.113   2.376  12.619 -0.4834  0.3980  0.0400
18231TIP3    H176184   3.041   2.425  12.578 -0.1563  0.4804 -0.4456
18231TIP3    H276185   3.162   2.339  12.546 -1.4844 -1.8151  0.3991
18232TIP3   OH276186   5.180   2.751  16.670  1.4088  0.3510 -0.0180
18232TIP3    H176187   5.162   2.679  16.610 -0.5960  1.1129 -0.3949
18232TIP3    H276188   5.097   2.769  16.712  2.7626 -0.2679  3.2247
18233TIP3   OH276189   4.136   2.378  16.600 -0.2370 -0.2124  0.6879
18233TIP3    H176190   4.178   2.404  16.682 -0.5562 -0.4189  0.9185
18233TIP3    H276191   4.191   2.308  16.565 -1.1341 -1.4411  1.6808
18234TIP3   OH276192   4.997   5.145   4.350  0.2489  0.5010  0.0764
18234TIP3    H176193   4.921   5.182   4.304  0.2743  0.7813  0.2535
18234TIP3    H276194   4.992   5.051   4.333  0.2126  0.5885 -0.4343
18235TIP3   OH276195   1.449   2.342  10.923  0.4254 -0.2812 -0.7343
18235TIP3    H176196   1.523   2.323  10.982  0.0186 -1.2119 -0.4994
18235TIP3    H276197   1.487   2.340  10.835  0.8516  0.1531 -0.5626
18236TIP3   OH276198   5.216   0.170  14.803 -0.2182 -0.1073 -0.0495
18236TIP3    H176199   5.286   0.159  14.868 -0.2690  0.6511  0.1395
18236TIP3    H276200   5.246   0.120  14.727  0.8643  0.7636 -0.2258
18237TIP3   OH276201   4.972   0.311   3.296 -0.5513 -0.5789  0.2611
18237TIP3    H176202   4.978   0.219   3.322 -0.6810 -1.3048 -2.0646
18237TIP3    H276203   5.019   0.358   3.364 -1.3907 -2.2261  2.0960
18238TIP3   OH276204   4.774   5.610  11.168 -0.2660 -0.3766  0.6267
18238TIP3    H176205   4.810   5.636  11.083  0.2143 -2.0479  0.2950
18238TIP3    H276206   4.732   5.526  11.152 -2.7662  0.6303  1.4237
18239TIP3   OH276207   1.255   5.038  14.042 -0.5654  0.1906  0.9614
18239TIP3    H176208   1.291   5.038  14.131 -0.1231  2.0538  0.8287
18239TIP3    H276209   1.176   5.091  14.048 -2.4436 -2.3869  0.8638
18240TIP3   OH276210   2.193   6.730   4.883 -0.2103 -0.1858  0.2698
18240TIP3    H176211   2.140   6.653   4.902  0.6948 -0.7671  0.5338
18240TIP3    H276212   2.149   6.802   4.928  0.3721 -1.0439  2.3296
18241TIP3   OH276213   6.777   4.289  13.935 -0.3131  0.6225 -0.1239
18241TIP3    H176214   6.845   4.287  14.002 -0.5527  1.4821  0.1488
18241TIP3    H276215   6.698   4.317  13.981 -1.1038 -1.2881 -0.2345
18242TIP3   OH276216   3.423   6.370  12.785 -0.3653 -0.2931  0.0958
18242TIP3    H176217   3.461   6.283  12.772 -1.4006 -0.6574 -0.6743
18242TIP3    H276218   3.478   6.429  12.735  1.7872 -0.0704  2.4996
18243TIP3   OH276219   1.441   1.046   0.874 -0.2663 -0.1557 -0.2682
18243TIP3    H176220   1.414   0.958   0.848  0.6207 -1.1874  2.0175
18243TIP3    H276221   1.510   1.070   0.812  1.7287 -2.4550  0.9004
18244TIP3   OH276222   2.513   3.574   4.169  0.2531 -0.1680 -0.3333
18244TIP3    H176223   2.465   3.636   4.224 -0.0522 -1.4337  0.8866
18244TIP3    H276224   2.454   3.556   4.096 -0.4299 -0.4116  0.2671
18245TIP3   OH276225   3.015   5.600   3.232 -0.0646  0.0685 -0.1378
18245TIP3    H176226   3.003   5.506   3.248 -0.6758 -0.0139 -0.9920
18245TIP3    H276227   3.003   5.610   3.137  0.5667  0.9285 -0.1395
18246TIP3   OH276228   0.125   5.692   4.285 -1.3947  0.0387  0.5922
18246TIP3    H176229   0.104   5.740   4.365 -0.5331  0.5562  0.5160
18246TIP3    H276230   0.040   5.678   4.242 -1.7439  0.7204  1.0482
18247TIP3   OH276231   5.912   3.246   3.867  0.1602  0.7919 -0.1204
18247TIP3    H176232   5.938   3.186   3.937 -0.0179  1.3133  0.3959
18247TIP3    H276233   5.995   3.285   3.837  0.1445  1.2761  0.4520
18248TIP3   OH276234   0.483   6.385  11.468  0.2819 -0.2431  1.0435
18248TIP3    H176235   0.563   6.402  11.518 -0.7752  0.3924  2.5824
18248TIP3    H276236   0.414   6.430  11.517 -0.8531  0.2171 -0.8912
18249TIP3   OH276237   2.108   1.188   6.842  0.1724  0.2972 -0.5686
18249TIP3    H176238   2.133   1.097   6.860  1.0060  0.4620 -0.8248
18249TIP3    H276239   2.154   1.210   6.761  0.7769  1.2499  0.0150
18250TIP3   OH276240   2.661   1.218   4.779  0.2985  0.2506  0.0247
18250TIP3    H176241   2.754   1.235   4.797  0.6122  0.1989 -1.4356
18250TIP3    H276242   2.656   1.124   4.766  0.1862  0.3401 -0.6185
18251TIP3   OH276243   1.695   5.465   1.267 -0.3803 -0.2373 -0.5136
18251TIP3    H176244   1.616   5.512   1.242  0.0270  1.2168  0.7789
18251TIP3    H276245   1.696   5.468   1.363  1.1963 -0.2733 -0.4943
18252TIP3   OH276246   6.392   6.768  14.852  0.0108 -0.0265  0.6037
18252TIP3    H176247   6.331   6.722  14.910  1.8599  0.1153  2.7935
18252TIP3    H276248   6.418   6.846  14.901  0.9453  0.5972 -0.8238
18253TIP3   OH276249   2.700   4.202  14.186 -0.3767  0.2358 -0.0244
18253TIP3    H176250   2.614   4.197  14.227 -0.2324  2.5494  0.7102
18253TIP3    H276251   2.742   4.278  14.227  0.6408  1.3337 -2.8601
18254TIP3   OH276252   5.563   4.368   6.046 -0.2672  0.2786 -0.1403
18254TIP3    H176253   5.622   4.391   6.118 -0.0985 -1.2538  0.2537
18254TIP3    H276254   5.482   4.340   6.089 -0.0533 -0.9708 -0.4944
18255TIP3   OH276255   3.264   0.189  12.430  0.0995  0.9508 -0.2108
18255TIP3    H176256   3.352   0.224  12.447 -0.5124  1.3579  2.6588
18255TIP3    H276257   3.253   0.120  12.495 -1.7452  0.9868 -0.4394
18256TIP3   OH276258   6.058   2.054  17.162  0.2286  0.2141 -0.2344
18256TIP3    H176259   6.118   2.016  17.097 -0.4479 -0.8345 -0.2740
18256TIP3    H276260   6.099   2.035  17.246  0.2982  0.1304 -0.2869
18257TIP3   OH276261   0.812   3.909  13.717 -0.1141  0.2347  0.0105
18257TIP3    H176262   0.907   3.899  13.715 -0.1138  0.0453  0.6374
18257TIP3    H276263   0.795   3.963  13.794 -0.4460  1.1792 -0.7056
18258TIP3   OH276264   6.275   4.513  16.045 -0.1144  0.2394 -0.4006
18258TIP3    H176265   6.250   4.586  16.102 -0.6914 -0.4891  0.3074
18258TIP3    H276266   6.220   4.441  16.074  0.6185 -0.5484 -0.9329
18259TIP3   OH276267   5.919   1.634  16.330 -0.0604 -0.4067  0.0950
18259TIP3    H176268   5.975   1.703  16.296 -1.3613  0.4500 -0.4022
18259TIP3    H276269   5.909   1.654  16.423  0.1093 -0.3098  0.0930
18260TIP3   OH276270   2.902   0.621  14.306 -0.3701 -0.1971  0.3785
18260TIP3    H176271   2.951   0.635  14.225 -1.1915  0.1174 -0.0794
18260TIP3    H276272   2.817   0.663  14.290 -0.5389 -0.1282  1.4061
18261TIP3   OH276273   4.320   2.056   1.438  0.1751  0.0010  0.1031
18261TIP3    H176274   4.361   2.054   1.524  0.9883 -0.6638 -0.2739
18261TIP3    H276275   4.370   2.122   1.389  0.4837 -0.4538 -0.2058
18262TIP3   OH276276   3.064   3.661   0.499 -0.5814 -0.4267  0.1718
18262TIP3    H176277   3.018   3.745   0.503 -0.3846 -0.2997 -0.1887
18262TIP3    H276278   3.135   3.676   0.437 -0.7352 -0.9531 -0.1358
18263TIP3   OH276279   3.232   5.752  12.555  0.1526 -0.2422 -0.9213
18263TIP3    H176280   3.271   5.747  12.468 -0.0944  2.8599 -1.3289
18263TIP3    H276281   3.169   5.681  12.557 -1.7628  1.0797 -4.3829
18264TIP3   OH276282   5.860   6.234   3.709 -0.4580  0.4391  0.0819
18264TIP3    H176283   5.856   6.328   3.693 -2.4377  0.4434  0.4443
18264TIP3    H276284   5.855   6.195   3.621 -2.1041  0.6542  0.0459
18265TIP3   OH276285   2.842   6.470   3.634 -0.1271  0.0224 -0.1047
18265TIP3    H176286   2.885   6.555   3.644 -1.1289  0.3923  1.3326
18265TIP3    H276287   2.824   6.463   3.540  1.0305  0.8536 -0.4104
18266TIP3   OH276288   0.212   4.688  10.807  0.6690  0.0259  0.5424
18266TIP3    H176289   0.266   4.757  10.769 -0.4583 -0.2488 -1.7057
18266TIP3    H276290   0.129   4.732  10.827 -0.0833 -0.6346 -0.9806
18267TIP3   OH276291   1.016   3.353   5.796 -0.2502  0.5546 -0.7351
18267TIP3    H176292   0.935   3.363   5.746  0.0601  3.6329 -0.8149
18267TIP3    H276293   1.019   3.431   5.851  1.4856 -0.7081  1.0956
18268TIP3   OH276294   1.354   2.381   4.172  0.0170 -0.1276 -0.0716
18268TIP3    H176295   1.439   2.426   4.178 -0.3115  0.5903 -0.6690
18268TIP3    H276296   1.372   2.293   4.205  0.7133  0.3758  0.9546
18269TIP3   OH276297   5.571   3.353   3.596 -0.2906  0.5040 -0.0799
18269TIP3    H176298   5.543   3.422   3.656  0.3794  0.2479  0.5437
18269TIP3    H276299   5.494   3.297   3.587 -0.9968  1.5955 -0.9919
18270TIP3   OH276300   4.278   3.048  13.845  0.0655 -0.0117  0.2625
18270TIP3    H176301   4.340   3.087  13.905  0.6051 -0.2963 -0.0974
18270TIP3    H276302   4.293   2.954  13.853  1.5407 -0.0181 -1.7202
18271TIP3   OH276303   2.655   1.260   1.527 -0.2043 -1.2374 -0.0581
18271TIP3    H176304   2.720   1.329   1.539 -0.7735 -0.6522 -0.3318
18271TIP3    H276305   2.575   1.306   1.502 -0.6971 -1.9640  0.1658
18272TIP3   OH276306   1.165   0.628   5.846 -0.1054  0.8078  0.6344
18272TIP3    H176307   1.149   0.553   5.903  0.1597  1.0963  1.0949
18272TIP3    H276308   1.255   0.618   5.816 -0.3483  0.4825 -0.0042
18273TIP3   OH276309   6.787   0.852  15.997 -0.8820 -0.6405 -0.2555
18273TIP3    H176310   6.846   0.841  15.922  0.0583 -0.3779  0.4289
18273TIP3    H276311   6.837   0.905  16.059 -0.1646 -3.8227  2.1244
18274TIP3   OH276312   1.475   5.409  16.022  0.0621  0.7110  0.2425
18274TIP3    H176313   1.477   5.497  15.985 -4.0648  1.3879  1.0533
18274TIP3    H276314   1.461   5.423  16.115  0.5203 -0.8393  0.5620
18275TIP3   OH276315   0.146   5.724  11.643  0.1451  0.6979 -0.5785
18275TIP3    H176316   0.164   5.818  11.646 -2.1392  1.1588  0.5486
18275TIP3    H276317   0.231   5.683  11.661  1.1544  2.5205 -0.9084
18276TIP3   OH276318   6.261   3.941  10.696  0.0330 -0.1713  0.3075
18276TIP3    H176319   6.225   4.008  10.754 -0.2674 -1.6080  1.8631
18276TIP3    H276320   6.339   3.909  10.742 -0.2969 -1.4571  0.0106
18277TIP3   OH276321   1.915   5.758   3.953 -0.0616  0.2970  0.2867
18277TIP3    H176322   1.906   5.683   3.895 -0.5687 -0.9098  1.8513
18277TIP3    H276323   1.859   5.737   4.028 -0.1386  2.2019  0.8146
18278TIP3   OH276324   5.848   5.844  10.661 -0.7550 -0.2787  0.3838
18278TIP3    H176325   5.810   5.760  10.637 -2.3136  0.0465  1.5436
18278TIP3    H276326   5.807   5.866  10.745  1.3148  0.5757  1.2542
18279TIP3   OH276327   3.713   4.603   2.823  0.1317  0.3965  0.2191
18279TIP3    H176328   3.672   4.638   2.902  4.5793  2.0038  2.1719
18279TIP3    H276329   3.725   4.679   2.766  1.0563  0.1564  0.0808
18280TIP3   OH276330   1.410   0.183  11.806  0.3748  0.5317  0.0890
18280TIP3    H176331   1.368   0.206  11.889 -1.7007 -2.7577  0.1064
18280TIP3    H276332   1.362   0.233  11.740  0.4551  1.3273  0.6196
18281TIP3   OH276333   3.878   6.159  13.656 -0.0057  0.3481  0.2849
18281TIP3    H176334   3.798   6.117  13.625 -0.2253 -0.1205  1.4270
18281TIP3    H276335   3.905   6.106  13.732  1.5013  0.3786 -0.2033
18282TIP3   OH276336   4.803   1.796  14.119  0.2903 -0.5256 -0.5311
18282TIP3    H176337   4.853   1.876  14.102  0.7121 -0.4720  0.8014
18282TIP3    H276338   4.712   1.826  14.128  0.5072 -0.0969  0.4285
18283TIP3   OH276339   1.589   4.698  13.235  0.2309  0.0377  0.5367
18283TIP3    H176340   1.673   4.729  13.203 -0.4865  2.2439  0.6208
18283TIP3    H276341   1.569   4.754  13.310 -1.4735 -0.1507  0.2630
18284TIP3   OH276342   0.205   1.587   2.331  0.4627  0.9004 -0.3020
18284TIP3    H176343   0.237   1.534   2.404 -2.7371  0.4951  0.9724
18284TIP3    H276344   0.136   1.641   2.370  0.5751  2.7417 -2.5038
18285TIP3   OH276345   0.204   0.095   3.104 -0.3440  0.0571 -0.5688
18285TIP3    H176346   0.188   0.021   3.163 -1.0287 -1.1501 -2.1934
18285TIP3    H276347   0.242   0.055   3.026 -1.4347  1.3000 -1.7875
18286TIP3   OH276348   1.059   5.734   0.641  0.2916  0.2351 -1.1014
18286TIP3    H176349   1.001   5.761   0.713  0.6729 -0.1709 -0.6368
18286TIP3    H276350   1.093   5.649   0.668  0.0194 -0.1771 -2.0169
18287TIP3   OH276351   6.531   5.569  15.282  0.3049 -0.0665  0.4764
18287TIP3    H176352   6.609   5.533  15.241  0.0475 -0.8356  0.6381
18287TIP3    H276353   6.551   5.661  15.296  0.9561 -0.1298 -0.0178
18288TIP3   OH276354   2.152   1.449  14.727  0.8025  0.3839  1.0576
18288TIP3    H176355   2.184   1.538  14.711 -0.6810  0.6407 -0.7836
18288TIP3    H276356   2.232   1.396  14.731  1.6106  1.2300 -1.7715
18289TIP3   OH276357   6.496   4.898   1.610  0.5324 -0.2367  0.3810
18289TIP3    H176358   6.420   4.891   1.668 -0.1479  0.3238 -0.4273
18289TIP3    H276359   6.567   4.856   1.659  0.8364  3.0072  3.1033
18290TIP3   OH276360   5.348   4.269   3.294 -0.7490 -0.1668  0.3201
18290TIP3    H176361   5.411   4.296   3.227 -1.0294  0.1020  0.1638
18290TIP3    H276362   5.383   4.305   3.375 -0.0986 -0.9799  0.4230
18291TIP3   OH276363   0.033   6.095   5.663 -0.1656  0.2203  0.2577
18291TIP3    H176364   0.085   6.032   5.614  0.2845  0.0707  0.9112
18291TIP3    H276365  -0.043   6.044   5.693 -0.8382  0.5072 -0.9242
18292TIP3   OH276366   5.049   0.408  11.193  0.7665 -0.1262 -0.0271
18292TIP3    H176367   4.982   0.341  11.181  0.2898  0.7200 -2.6208
18292TIP3    H276368   5.123   0.362  11.233 -0.2210 -1.7371  0.0266
18293TIP3   OH276369   2.903   3.145  15.499  0.5623 -0.0376  0.2265
18293TIP3    H176370   2.818   3.190  15.501  1.1779  1.1563  0.0740
18293TIP3    H276371   2.882   3.057  15.468 -0.8279 -0.2254  1.5628
18294TIP3   OH276372   3.607   4.006  14.971 -0.8176  0.3930 -0.2331
18294TIP3    H176373   3.540   4.045  15.027 -0.3697  2.8452 -1.2758
18294TIP3    H276374   3.561   3.983  14.891 -0.9654 -0.7276  0.1629
18295TIP3   OH276375   6.806   4.976  14.832 -0.1666 -0.1766 -0.0621
18295TIP3    H176376   6.830   5.060  14.873 -0.7686  0.2412 -0.5476
18295TIP3    H276377   6.866   4.968  14.757 -0.6493  0.2284 -0.4998
18296TIP3   OH276378   3.912   0.805  15.669  0.0753 -0.0425  0.4992
18296TIP3    H176379   3.942   0.838  15.754 -0.9035  0.6790  0.5721
18296TIP3    H276380   3.860   0.727  15.690  1.1686 -0.8141  0.4295
18297TIP3   OH276381   6.563   3.211  17.145  0.3779  0.3191  0.0209
18297TIP3    H176382   6.574   3.171  17.231 -0.5658  0.8800  0.4101
18297TIP3    H276383   6.643   3.262  17.132  0.7442 -0.1647  0.3393
18298TIP3   OH276384   0.701   0.119  15.796  0.1660  0.5574 -0.0329
18298TIP3    H176385   0.731   0.165  15.718  1.0013 -2.0045 -1.2887
18298TIP3    H276386   0.725   0.177  15.869 -0.1843  2.7647 -1.5853
18299TIP3   OH276387   6.301   1.615  10.964 -0.1184 -0.3200 -0.1483
18299TIP3    H176388   6.367   1.664  11.013 -1.8421  0.7816  1.1870
18299TIP3    H276389   6.348   1.539  10.931  1.5762 -0.1646  1.6874
18300TIP3   OH276390   5.224   2.872  15.515  0.5555 -0.5414  0.1369
18300TIP3    H176391   5.299   2.918  15.552 -0.5260  1.1690  0.2854
18300TIP3    H276392   5.250   2.851  15.425  1.2163  0.0279  0.1868
18301TIP3   OH276393   0.498   0.513   1.689 -0.7545 -0.1140  0.2579
18301TIP3    H176394   0.523   0.605   1.693  0.3527 -0.3055 -1.3758
18301TIP3    H276395   0.507   0.489   1.597  0.3649 -2.2174  0.8385
18302TIP3   OH276396   6.379   4.094  12.639 -0.4518 -0.1094  0.8805
18302TIP3    H176397   6.377   4.121  12.731  1.7120  3.2812  0.1195
18302TIP3    H276398   6.460   4.044  12.631 -0.4717 -0.1238  0.7664
18303TIP3   OH276399   2.534   2.086   3.136  0.1266  0.1491 -0.4812
18303TIP3    H176400   2.587   2.088   3.216 -1.7523  1.1424  0.8087
18303TIP3    H276401   2.559   2.005   3.092 -0.1178 -1.4172  2.0731
18304TIP3   OH276402   4.870   1.152   1.935  0.3737  0.2340 -0.3522
18304TIP3    H176403   4.800   1.095   1.968 -0.3997  1.1843 -0.2936
18304TIP3    H276404   4.938   1.092   1.905 -1.2337 -0.8064 -2.1455
18305TIP3   OH276405   1.866   5.498   0.892  0.1680  0.0679 -0.1526
18305TIP3    H176406   1.880   5.466   0.981 -0.1879  0.5420  0.0815
18305TIP3    H276407   1.841   5.421   0.842 -0.5372 -0.0567  0.3671
18306TIP3   OH276408   5.892   1.673  13.952 -0.1742 -0.0928 -0.4974
18306TIP3    H176409   5.850   1.590  13.976 -0.4537  0.3596  0.6681
18306TIP3    H276410   5.820   1.731  13.929 -0.2990  0.7512  1.7203
18307TIP3   OH276411   4.546   6.195   6.137  0.4295 -0.4016  0.0836
18307TIP3    H176412   4.579   6.229   6.054 -1.3973 -0.3997 -0.6758
18307TIP3    H276413   4.470   6.142   6.114  0.6884 -1.5617  1.6422
18308TIP3   OH276414   3.674   3.822  13.508  0.0499  0.1357 -0.4724
18308TIP3    H176415   3.641   3.845  13.422 -2.8258  0.4366  0.5937
18308TIP3    H276416   3.658   3.728  13.516 -0.4363  0.2575  0.0177
18309TIP3   OH276417   2.561   2.574   5.517 -0.1494 -0.8253  0.3957
18309TIP3    H176418   2.506   2.515   5.567  0.6793 -2.0277 -0.0757
18309TIP3    H276419   2.559   2.656   5.566  0.1619 -1.7825  2.0797
18310TIP3   OH276420   4.369   4.215   4.864  0.0542  0.2220  0.1111
18310TIP3    H176421   4.354   4.234   4.771 -0.6454  1.0722  0.3854
18310TIP3    H276422   4.462   4.231   4.877  0.5525 -1.6195 -0.8214
18311TIP3   OH276423   2.632   1.020   5.460 -0.0078  0.6488 -0.4122
18311TIP3    H176424   2.591   1.017   5.547 -0.0983  1.0378 -0.4406
18311TIP3    H276425   2.563   0.992   5.400  0.7278 -1.9675 -0.1385
18312TIP3   OH276426   2.120   1.677  14.024  0.0654 -0.4450  0.2544
18312TIP3    H176427   2.193   1.614  14.028  1.0613  0.6327 -0.2799
18312TIP3    H276428   2.079   1.662  13.939  0.9385  0.2844 -0.3134
18313TIP3   OH276429   1.779   4.770   3.597 -0.8684 -0.0585  0.2024
18313TIP3    H176430   1.726   4.736   3.668  0.4644 -1.7878  0.4369
18313TIP3    H276431   1.743   4.730   3.518 -0.7418 -0.1817  0.2066
18314TIP3   OH276432   2.921   5.853  16.360  0.1827 -0.2103  0.5997
18314TIP3    H176433   3.004   5.892  16.334  0.4279 -1.8058 -1.2023
18314TIP3    H276434   2.924   5.764  16.326 -1.5306 -0.8949  2.0814
18315TIP3   OH276435   4.281   5.859   2.468  0.1993  0.1953 -0.2260
18315TIP3    H176436   4.210   5.801   2.494 -0.1911  0.8067  0.0880
18315TIP3    H276437   4.359   5.803   2.467 -0.1246 -0.2723  0.3498
18316TIP3   OH276438   0.644   1.629  15.099 -0.1486  0.1551  0.3226
18316TIP3    H176439   0.550   1.648  15.096 -0.1229  0.6003  1.7302
18316TIP3    H276440   0.685   1.713  15.115  0.3285 -0.3039  1.6823
18317TIP3   OH276441   2.487   2.532  14.431  0.3801  0.4415 -0.1774
18317TIP3    H176442   2.518   2.509  14.518  0.6073  1.5969  0.0665
18317TIP3    H276443   2.407   2.481  14.419 -0.2710  1.1115  1.1663
18318TIP3   OH276444   3.537   3.581  16.895  0.4257  0.4497 -0.5235
18318TIP3    H176445   3.597   3.651  16.921 -0.0651  1.1139 -1.1516
18318TIP3    H276446   3.510   3.541  16.978  0.8562  0.8729 -0.1698
18319TIP3   OH276447   4.275   2.180  11.445 -0.5241 -0.2133  0.3261
18319TIP3    H176448   4.242   2.196  11.356 -0.7370  0.0513  0.4521
18319TIP3    H276449   4.283   2.267  11.483  0.2651 -0.2722  0.3197
18320TIP3   OH276450   1.300   1.206  11.833  0.1091  0.5880 -0.0733
18320TIP3    H176451   1.349   1.260  11.771  0.1501  1.3374  0.5907
18320TIP3    H276452   1.210   1.208  11.801 -0.3504  2.9154  1.1119
18321TIP3   OH276453   3.528   0.385   2.279  0.6056 -0.3574  0.0051
18321TIP3    H176454   3.526   0.297   2.316 -0.4138 -0.8160 -1.0916
18321TIP3    H276455   3.525   0.371   2.184 -0.4067  0.8762 -0.1669
18322TIP3   OH276456   3.801   0.261   0.024 -0.0164  0.2616  0.1125
18322TIP3    H176457   3.832   0.330   0.083 -0.5835  1.1570 -0.6020
18322TIP3    H276458   3.779   0.188   0.082 -0.6311  1.1381  1.0340
18323TIP3   OH276459   3.788   3.191  16.679  0.7964 -0.1041 -0.1727
18323TIP3    H176460   3.766   3.098  16.667 -2.0088  0.3219  0.8780
18323TIP3    H276461   3.760   3.233  16.598 -3.3600  0.5034  1.3150
18324TIP3   OH276462   1.020   4.074  11.089 -0.6002 -0.4552 -0.0144
18324TIP3    H176463   1.113   4.054  11.083  0.1932  2.7716 -0.0719
18324TIP3    H276464   0.988   4.068  10.999 -0.0354  0.0792 -0.2540
18325TIP3   OH276465   6.622   2.095  13.880 -0.1224  0.1405  0.2955
18325TIP3    H176466   6.681   2.052  13.818 -0.3648  0.4686 -0.1652
18325TIP3    H276467   6.536   2.057  13.861 -0.1054 -0.1482  0.7903
18326TIP3   OH276468   3.889   5.891  11.700 -0.0185 -0.4162  0.5716
18326TIP3    H176469   3.898   5.799  11.679  0.1769 -0.5930  1.4039
18326TIP3    H276470   3.835   5.893  11.780  0.0455  0.1759  0.6088
18327TIP3   OH276471   5.840   5.031  11.710 -0.1921  0.9928 -0.8756
18327TIP3    H176472   5.797   5.114  11.732 -0.6857  0.9858 -1.7768
18327TIP3    H276473   5.796   4.966  11.765 -0.8111  1.1058 -1.2288
18328TIP3   OH276474   6.525   0.293   1.255 -0.2326 -0.0239  0.1916
18328TIP3    H176475   6.479   0.215   1.284  0.6653 -0.4521  0.5264
18328TIP3    H276476   6.476   0.366   1.292 -1.6846 -0.3528 -0.9836
18329TIP3   OH276477   3.372   2.433   1.891 -0.2504 -0.0328  0.0036
18329TIP3    H176478   3.389   2.527   1.897  0.6245 -0.2315  0.9219
18329TIP3    H276479   3.446   2.399   1.841 -0.8165 -0.1801 -0.7497
18330TIP3   OH276480   0.133   0.227   6.228  0.4244  0.5676 -0.3409
18330TIP3    H176481   0.123   0.311   6.274  3.1443  1.5407 -1.3208
18330TIP3    H276482   0.048   0.213   6.185 -1.5929  0.5717  3.2009
18331TIP3   OH276483   0.502   4.772   4.368  0.2082 -0.0010  0.2992
18331TIP3    H176484   0.421   4.730   4.340  0.3863  0.1378 -0.4234
18331TIP3    H276485   0.569   4.705   4.355  0.4097  0.3185 -0.3466
18332TIP3   OH276486   5.317   5.795  13.000  0.0343 -0.2128 -0.5748
18332TIP3    H176487   5.387   5.814  12.937 -0.2240  0.0378 -0.7881
18332TIP3    H276488   5.349   5.718  13.047  0.2887 -0.3308 -0.9256
18333TIP3   OH276489   3.595   3.212   4.936  0.0479  0.1940  0.6937
18333TIP3    H176490   3.629   3.177   4.854 -1.6475  0.6218 -0.2385
18333TIP3    H276491   3.637   3.160   5.004  4.5964  2.3126 -0.1228
18334TIP3   OH276492   0.678   3.720   3.473  0.4605  0.3349 -0.0823
18334TIP3    H176493   0.631   3.722   3.390  0.0208 -0.6312  0.1219
18334TIP3    H276494   0.691   3.626   3.491 -1.0568  0.4185  1.8128
18335TIP3   OH276495   1.214   1.334   2.431 -0.1032  0.3186  0.2112
18335TIP3    H176496   1.216   1.405   2.367 -1.4192 -0.8534 -1.2256
18335TIP3    H276497   1.288   1.278   2.407  0.4353  0.7581  0.8206
18336TIP3   OH276498   3.297   2.993  11.767  0.2561  0.2472 -0.0727
18336TIP3    H176499   3.302   2.897  11.758  0.5990  0.1746  0.8089
18336TIP3    H276500   3.219   3.008  11.821 -0.6181  0.5576 -1.3756
18337TIP3   OH276501   1.782   1.339   4.443 -0.0438 -0.2231 -0.2182
18337TIP3    H176502   1.707   1.390   4.473  0.9120  0.7209  0.6653
18337TIP3    H276503   1.855   1.372   4.495  1.0689 -0.8148 -1.3557
18338TIP3   OH276504   1.138   3.196  15.545  0.2640 -0.4966 -0.4083
18338TIP3    H176505   1.136   3.228  15.455  0.3596 -0.0968 -0.2720
18338TIP3    H276506   1.188   3.114  15.541  0.7838 -0.1740 -0.6266
18339TIP3   OH276507   0.225   2.171  11.805  0.5093  0.1553 -0.3188
18339TIP3    H176508   0.165   2.241  11.782 -0.5257  0.1079  1.9743
18339TIP3    H276509   0.248   2.130  11.722 -1.5984  1.0136 -1.3787
18340TIP3   OH276510   4.271   4.702  16.565 -0.2768  0.7052 -0.0039
18340TIP3    H176511   4.233   4.614  16.560 -1.4528  1.1104  1.0727
18340TIP3    H276512   4.195   4.760  16.560  0.5402  1.7180 -1.4931
18341TIP3   OH276513   6.181   1.605   1.236  0.5429 -0.3434 -0.3473
18341TIP3    H176514   6.223   1.679   1.281 -1.8862  0.3428  0.9723
18341TIP3    H276515   6.194   1.531   1.296 -1.5630  0.2778  0.9717
18342TIP3   OH276516   3.635   3.519   3.149  0.0610  0.3449 -0.0047
18342TIP3    H176517   3.619   3.488   3.238  0.6475  0.3870  0.1212
18342TIP3    H276518   3.550   3.549   3.118 -0.4902 -1.2254 -0.0676
18343TIP3   OH276519   0.899   6.765   1.371 -0.1974  0.1025  0.2828
18343TIP3    H176520   0.857   6.794   1.290 -2.3601 -3.2485 -0.0048
18343TIP3    H276521   0.938   6.680   1.349 -0.7531 -0.8649  2.6652
18344TIP3   OH276522   2.131   3.024  15.341 -0.3137 -0.7906  0.0375
18344TIP3    H176523   2.184   3.011  15.419 -1.4086 -0.0415  0.9359
18344TIP3    H276524   2.057   3.078  15.370  0.2623  1.2196 -1.9377
18345TIP3   OH276525   6.067   4.027  14.575  0.4600  0.2731  0.5140
18345TIP3    H176526   6.077   3.956  14.511 -0.3108 -0.3333  1.0361
18345TIP3    H276527   5.973   4.047  14.573  0.6163  1.0231  0.6454
18346TIP3   OH276528   3.735   3.182  11.459  0.0206 -0.2266 -0.1057
18346TIP3    H176529   3.693   3.137  11.386 -0.7252 -0.1434  0.2622
18346TIP3    H276530   3.681   3.260  11.474  0.8321  0.3664 -0.2071
18347TIP3   OH276531   0.223   4.758  13.963  0.9811 -0.0915  0.4109
18347TIP3    H176532   0.162   4.697  14.005  0.3860  1.4974  1.9919
18347TIP3    H276533   0.174   4.795  13.890  1.4805 -1.7211 -0.8130
18348TIP3   OH276534   4.897   4.052   1.220  0.6330 -0.4151  0.0600
18348TIP3    H176535   4.947   4.106   1.281  2.5523 -0.3744 -1.4744
18348TIP3    H276536   4.827   4.014   1.274  1.9357  0.0151  2.1728
18349TIP3   OH276537   2.230   3.963  13.536 -1.0854  0.3422 -0.7961
18349TIP3    H176538   2.241   3.868  13.529 -1.2442 -0.1397  2.9918
18349TIP3    H276539   2.156   3.975  13.595 -0.4185  2.7800 -0.3042
18350TIP3   OH276540   4.041   5.104  16.884 -0.5646  0.0260  0.2380
18350TIP3    H176541   4.072   5.163  16.953  0.0572  0.3176 -0.2866
18350TIP3    H276542   4.070   5.017  16.913  1.4644  0.3599 -0.5862
18351TIP3   OH276543   5.334   3.664  12.623 -0.1285  0.1022 -0.5005
18351TIP3    H176544   5.332   3.574  12.655  0.9633  0.4649  0.6654
18351TIP3    H276545   5.278   3.663  12.545 -1.2166 -1.2720  0.2521
18352TIP3   OH276546   4.946   2.651   0.917  0.4419 -0.1993  0.7247
18352TIP3    H176547   5.022   2.702   0.947  2.4453 -2.9263  0.7136
18352TIP3    H276548   4.953   2.652   0.822  1.1993 -1.3838  0.7466
18353TIP3   OH276549   0.967   2.459  16.711  0.4438 -0.0247 -0.1715
18353TIP3    H176550   1.017   2.406  16.649  0.0146 -0.2724 -0.3076
18353TIP3    H276551   0.954   2.543  16.666  1.0422  0.1701  0.0059
18354TIP3   OH276552   1.099   0.183  15.329  0.4785 -0.0182  0.2005
18354TIP3    H176553   1.008   0.165  15.306  0.3763 -0.4401  0.9160
18354TIP3    H276554   1.150   0.149  15.255  0.0077  1.3118 -0.7817
18355TIP3   OH276555   1.092   6.689   0.944 -0.3128 -0.0021  0.6522
18355TIP3    H176556   1.138   6.684   0.860 -1.9948  0.1817 -0.3250
18355TIP3    H276557   1.117   6.774   0.980  0.4610 -0.1009  0.3712
18356TIP3   OH276558   4.321   3.490  15.917  1.0278 -0.6361 -0.1876
18356TIP3    H176559   4.271   3.412  15.942  0.3991 -0.2465 -0.2166
18356TIP3    H276560   4.276   3.523  15.839 -0.3646  1.2767  1.3321
18357TIP3   OH276561   3.019   4.456  14.889  0.7112  0.2041  0.3714
18357TIP3    H176562   3.097   4.470  14.943  0.4660 -0.7571  1.0028
18357TIP3    H276563   2.971   4.387  14.935  0.2861 -0.3419 -0.8636
18358TIP3   OH276564   0.097   4.435   3.737 -0.1621 -0.0544  0.0036
18358TIP3    H176565   0.184   4.453   3.774 -0.2171  0.5688 -0.1640
18358TIP3    H276566   0.086   4.341   3.747  0.4135 -0.0946  0.2949
18359TIP3   OH276567   1.356   5.253  13.858  0.6433  0.4193  0.3702
18359TIP3    H176568   1.355   5.233  13.951 -1.7323  0.6944  0.4613
18359TIP3    H276569   1.339   5.347  13.853 -1.1060  0.1001 -0.3416
18360TIP3   OH276570   0.871   4.112  14.848  0.1202  0.2808  0.5694
18360TIP3    H176571   0.957   4.149  14.864  1.0479 -0.7336 -1.6099
18360TIP3    H276572   0.887   4.039  14.788 -1.9071 -1.9811  2.5583
18361TIP3   OH276573   0.656   0.315   2.505  0.3291 -0.1007  0.2117
18361TIP3    H176574   0.732   0.313   2.563  0.5622 -1.1375 -0.1144
18361TIP3    H276575   0.598   0.247   2.540  0.3974 -0.6180 -0.6640
18362TIP3   OH276576   6.289   4.784  11.092  0.3762  0.3138  0.2642
18362TIP3    H176577   6.348   4.817  11.160  2.3998 -0.7994 -0.8519
18362TIP3    H276578   6.211   4.755  11.140  0.7123  1.7687  1.8108
18363TIP3   OH276579   5.001   0.286  16.151 -0.2265 -0.4973 -0.6297
18363TIP3    H176580   5.033   0.217  16.208 -0.7396  0.2219  0.5706
18363TIP3    H276581   4.936   0.333  16.204 -0.4519  0.4243 -1.6773
18364TIP3   OH276582   6.599   0.952   2.916 -0.3589 -0.4673 -0.2364
18364TIP3    H176583   6.628   1.037   2.881 -0.4646 -1.0864 -1.9002
18364TIP3    H276584   6.658   0.936   2.990 -0.3531  1.0585  0.1356
18365TIP3   OH276585   1.612   2.395  11.784 -0.6056 -0.3027  0.0972
18365TIP3    H176586   1.525   2.355  11.787 -0.7584 -0.0289 -0.5186
18365TIP3    H276587   1.594   2.488  11.769 -0.2222 -0.1574  0.5407
18366TIP3   OH276588   1.898   0.884   0.087  0.0860  0.1837  0.0803
18366TIP3    H176589   1.980   0.899   0.134 -0.8863  0.5923  1.7479
18366TIP3    H276590   1.898   0.790   0.069  0.7737  0.1274  0.3507
18367TIP3   OH276591   5.303   2.050   4.224 -0.8033 -0.2090  0.4961
18367TIP3    H176592   5.325   1.958   4.215 -1.3862 -0.2200 -1.3086
18367TIP3    H276593   5.336   2.075   4.310  1.5271 -1.4787  0.0523
18368TIP3   OH276594   0.971   3.341  16.597 -0.2854  1.0319  0.0265
18368TIP3    H176595   1.063   3.316  16.597 -0.7361 -0.8141  0.6767
18368TIP3    H276596   0.971   3.436  16.609  1.4864  0.9077  1.2775
18369TIP3   OH276597   1.958   2.556   4.604 -0.2411 -0.2711 -0.2501
18369TIP3    H176598   2.015   2.515   4.669 -1.7270 -2.6131 -0.2969
18369TIP3    H276599   1.916   2.628   4.650  1.8188  0.7628  0.1098
18370TIP3   OH276600   6.680   0.835   1.102 -0.1168 -0.3130 -0.1913
18370TIP3    H176601   6.589   0.817   1.081 -0.4517  0.6650  0.3328
18370TIP3    H276602   6.729   0.763   1.063 -1.0330 -0.4055 -1.2092
18371TIP3   OH276603   6.260   2.220   2.151  0.3487 -0.3768 -0.2983
18371TIP3    H176604   6.338   2.187   2.106 -1.6274 -3.3092 -1.8539
18371TIP3    H276605   6.280   2.207   2.244  2.1768  0.2383 -0.5497
18372TIP3   OH276606   1.996   2.563   0.800 -0.1554  0.2521  0.2499
18372TIP3    H176607   2.054   2.637   0.781 -0.1877 -0.1278 -1.5683
18372TIP3    H276608   1.998   2.510   0.720 -1.1841 -1.0123  1.0122
18373TIP3   OH276609   2.590   1.544   4.891  0.4436 -0.2512  0.3974
18373TIP3    H176610   2.677   1.550   4.930  0.2261 -1.6154  1.1215
18373TIP3    H276611   2.529   1.560   4.963  0.0454  2.5238 -0.4270
18374TIP3   OH276612   4.976   2.526   3.097  0.5858  0.0243 -0.0643
18374TIP3    H176613   4.988   2.532   3.002 -0.4061  3.9251 -0.0919
18374TIP3    H276614   4.918   2.451   3.109  0.7265 -0.5591 -2.5145
18375TIP3   OH276615   3.186   3.307  14.381 -0.3771  0.0631 -0.1459
18375TIP3    H176616   3.179   3.393  14.340 -0.2126 -0.0913 -0.5089
18375TIP3    H276617   3.137   3.248  14.322  0.4311 -0.2801 -0.4927
18376TIP3   OH276618   2.186   3.221  13.159 -0.3075 -0.1022 -0.0925
18376TIP3    H176619   2.092   3.203  13.157 -0.1851 -0.8037 -2.4327
18376TIP3    H276620   2.198   3.294  13.097  0.5991  0.5585  0.8264
18377TIP3   OH276621   2.909   5.895   3.770  0.2186  0.6399 -0.3450
18377TIP3    H176622   2.833   5.943   3.737  0.4450  0.1072 -1.7056
18377TIP3    H276623   2.967   5.887   3.694  1.3664  0.5048  0.5150
18378TIP3   OH276624   4.271   5.027  15.173  0.2104 -0.0368 -0.5123
18378TIP3    H176625   4.265   5.060  15.083  1.0833  1.8108  0.0463
18378TIP3    H276626   4.350   4.974  15.174  0.3915  0.2222 -0.7599
18379TIP3   OH276627   4.523   5.607  13.257  0.4917  0.4845 -0.2923
18379TIP3    H176628   4.510   5.568  13.171 -1.3075  0.7806 -0.1946
18379TIP3    H276629   4.528   5.701  13.240  0.1481  0.5427 -0.0943
18380TIP3   OH276630   1.294   5.516   3.882  0.3231  0.0548 -0.1064
18380TIP3    H176631   1.273   5.523   3.975  2.6142 -1.3619  0.5811
18380TIP3    H276632   1.272   5.426   3.859 -0.0493  0.3363 -0.9145
18381TIP3   OH276633   4.729   5.120  15.759 -0.8871 -0.0292  0.4265
18381TIP3    H176634   4.733   5.076  15.843 -1.2082 -1.3099 -0.2096
18381TIP3    H276635   4.669   5.067  15.706 -0.1115  0.3084 -0.8483
18382TIP3   OH276636   5.258   3.738   5.385 -0.0541 -0.4044  0.1197
18382TIP3    H176637   5.326   3.752   5.451 -0.5213 -1.1066  0.7770
18382TIP3    H276638   5.299   3.682   5.319  0.2608 -0.1386  0.0906
18383TIP3   OH276639   0.840   0.883   5.499  0.2178 -0.5731 -0.1517
18383TIP3    H176640   0.888   0.829   5.436  0.6832 -1.8915  1.2879
18383TIP3    H276641   0.908   0.929   5.548 -0.1665  2.4908 -2.2114
18384TIP3   OH276642   6.093   0.408  14.253  0.3841 -0.9056  0.3148
18384TIP3    H176643   6.041   0.470  14.203 -0.7994 -2.2721 -0.2136
18384TIP3    H276644   6.165   0.384  14.194  0.3033 -0.7708  0.1613
18385TIP3   OH276645   0.830   5.988   2.282  0.2419  0.3709 -0.3635
18385TIP3    H176646   0.850   5.894   2.276 -0.7514  0.0164  1.2897
18385TIP3    H276647   0.909   6.031   2.250  0.8117 -1.0241 -0.9200
18386TIP3   OH276648   2.861   2.605  12.135  0.1927 -1.0472 -0.2073
18386TIP3    H176649   2.786   2.615  12.194 -0.3526 -0.5552 -0.9523
18386TIP3    H276650   2.892   2.516  12.149  0.9947 -0.4816  1.8612
18387TIP3   OH276651   5.124   3.199   2.011  0.1962  0.4958  0.0293
18387TIP3    H176652   5.099   3.140   1.940 -0.6045  0.9053 -0.0286
18387TIP3    H276653   5.211   3.231   1.985  0.8435 -0.9771  0.2746
18388TIP3   OH276654   2.616   5.660  17.044  0.6268  0.0796  0.0448
18388TIP3    H176655   2.631   5.627  16.956  1.0893  1.4613 -0.4156
18388TIP3    H276656   2.625   5.755  17.037 -0.9469  0.3722  1.2626
18389TIP3   OH276657   0.795   4.756   5.843 -0.3427  0.1782  0.6744
18389TIP3    H176658   0.712   4.768   5.890 -0.5814 -3.2448  1.3552
18389TIP3    H276659   0.830   4.674   5.876  1.8140 -0.0516 -1.8522
18390TIP3   OH276660   5.490   4.428   1.874 -1.2718 -0.2331 -0.3313
18390TIP3    H176661   5.512   4.443   1.782 -0.0902 -1.6097 -0.3006
18390TIP3    H276662   5.501   4.334   1.887 -0.0712  0.1173  1.5529
18391TIP3   OH276663   6.104   3.227  12.439  0.0825  0.4058 -0.0511
18391TIP3    H176664   6.182   3.281  12.430 -0.3058  1.0432  0.2572
18391TIP3    H276665   6.122   3.170  12.514  0.4011  0.2736 -0.2275
18392TIP3   OH276666   6.044   4.978   0.347  0.0245  0.2983 -0.3393
18392TIP3    H176667   6.043   4.904   0.285  0.2379  0.9656 -1.1609
18392TIP3    H276668   6.135   4.985   0.374  0.0040  0.2710 -0.2620
18393TIP3   OH276669   2.789   1.384  10.924  0.0293  1.1092  0.3891
18393TIP3    H176670   2.718   1.405  10.863  0.2410 -2.4049 -1.3273
18393TIP3    H276671   2.861   1.355  10.869  0.5127 -1.4595  2.1645
18394TIP3   OH276672   3.503   5.820  11.619 -0.1017  0.7056  0.0499
18394TIP3    H176673   3.506   5.888  11.552  0.3443 -0.2715 -0.9564
18394TIP3    H276674   3.429   5.844  11.675 -0.5913  1.4536 -0.8942
18395TIP3   OH276675   5.965   6.222   2.344 -0.4999  0.3928 -0.6212
18395TIP3    H176676   5.960   6.166   2.421 -0.2689  0.2814 -0.6876
18395TIP3    H276677   5.996   6.306   2.377 -0.8339  0.4769 -0.5237
18396TIP3   OH276678   1.872   2.276   6.369  0.3488  0.9837  0.1029
18396TIP3    H176679   1.932   2.204   6.352 -2.1828 -1.4271  0.5656
18396TIP3    H276680   1.850   2.267   6.462 -0.4321  1.9867  0.0279
18397TIP3   OH276681   4.154   1.256  13.428  0.1812  0.4527  1.0874
18397TIP3    H176682   4.079   1.208  13.464 -1.2170  2.1877  0.6011
18397TIP3    H276683   4.198   1.293  13.505 -0.5146  0.9145  1.2694
18398TIP3   OH276684   3.566   0.617   4.885  0.8388 -0.1907  0.4097
18398TIP3    H176685   3.527   0.586   4.803  1.7294  1.0654 -0.5439
18398TIP3    H276686   3.507   0.686   4.916  0.8439 -0.2088  0.4596
18399TIP3   OH276687   2.475   2.282   2.861  0.2104 -0.2865 -0.1958
18399TIP3    H176688   2.455   2.231   2.940  0.5695 -0.3200 -0.1271
18399TIP3    H276689   2.567   2.307   2.871  0.4603 -0.8968 -0.9499
18400TIP3   OH276690   1.503   1.325   5.398  0.0085 -0.6295  0.0240
18400TIP3    H176691   1.429   1.292   5.449 -0.5086 -0.1022 -0.3815
18400TIP3    H276692   1.520   1.256   5.333 -0.3913 -0.5707 -0.1463
18401TIP3   OH276693   5.832   3.354   1.920  0.2824 -0.2665  0.4378
18401TIP3    H176694   5.919   3.393   1.927 -0.5232  1.8393 -0.5374
18401TIP3    H276695   5.849   3.260   1.914  2.3961 -0.0481  1.5880
18402TIP3   OH276696   6.657   4.928   4.882 -0.3019  1.0653 -0.3819
18402TIP3    H176697   6.653   4.837   4.910 -1.8989  0.7918 -1.3781
18402TIP3    H276698   6.571   4.964   4.903 -0.0382  2.0634 -0.9128
18403TIP3   OH276699   5.863   1.769   1.472  0.1705 -0.2899  0.1584
18403TIP3    H176700   5.774   1.805   1.470  0.5702  0.7177 -0.6036
18403TIP3    H276701   5.912   1.824   1.411  1.4220 -0.5589  0.8844
18404TIP3   OH276702   3.218   6.739  16.202 -0.1784 -0.5684  0.1860
18404TIP3    H176703   3.266   6.737  16.119  0.3891  0.4898  0.4751
18404TIP3    H276704   3.175   6.825  16.204  0.0606 -0.4572  1.1182
18405TIP3   OH276705   3.580   6.530  11.933  0.1175  0.5732  0.0346
18405TIP3    H176706   3.644   6.564  11.871 -1.4924  1.2686 -1.3113
18405TIP3    H276707   3.570   6.600  11.997  0.7852  0.3993  0.3422
18406TIP3   OH276708   4.197   4.039  16.667 -0.0265 -0.2333 -0.1010
18406TIP3    H176709   4.225   4.057  16.577 -1.4826 -0.9280 -0.7377
18406TIP3    H276710   4.203   3.943  16.675 -1.0260 -0.2926  0.1191
18407TIP3   OH276711   2.569   0.651   6.335  0.4078 -0.2553 -0.0243
18407TIP3    H176712   2.615   0.595   6.397  1.3734  0.1459 -0.3664
18407TIP3    H276713   2.634   0.714   6.305 -0.3695  0.3528 -0.4985
18408TIP3   OH276714   2.676   0.552   2.881  0.6928 -0.0546 -0.3650
18408TIP3    H176715   2.722   0.519   2.804 -1.9245  1.2650 -2.6656
18408TIP3    H276716   2.585   0.561   2.853 -0.0155  2.5071  2.2128
18409TIP3   OH276717   0.876   0.459  13.741 -0.1910  0.9672  0.7563
18409TIP3    H176718   0.849   0.463  13.833 -0.5555  1.1561  0.6428
18409TIP3    H276719   0.970   0.440  13.745  0.1218  2.4377  1.1894
18410TIP3   OH276720   5.070   4.811   5.525  0.2855  0.2452  0.1972
18410TIP3    H176721   5.071   4.816   5.620 -1.0204 -0.6356  0.2713
18410TIP3    H276722   5.146   4.863   5.498  0.7544  0.3923  1.7105
18411TIP3   OH276723   0.635   3.336   5.148  0.3779 -0.3534  0.1260
18411TIP3    H176724   0.644   3.262   5.207  1.0356 -0.3483  0.0427
18411TIP3    H276725   0.692   3.403   5.185  1.1723 -0.5146 -0.7649
18412TIP3   OH276726   3.783   4.009   4.611  0.2987  0.3526 -0.1679
18412TIP3    H176727   3.740   4.083   4.568  0.3190  0.7122  0.4185
18412TIP3    H276728   3.820   4.046   4.691  0.7220 -0.1947 -0.1049
18413TIP3   OH276729   0.530   6.769   3.051  0.1224  0.1202  0.3592
18413TIP3    H176730   0.486   6.840   3.005  0.1495 -0.7432 -1.0697
18413TIP3    H276731   0.462   6.728   3.104 -0.3732 -0.0128 -0.3590
18414TIP3   OH276732   2.182   2.331  14.682 -0.0159  0.1561  0.0008
18414TIP3    H176733   2.113   2.279  14.722  0.6424 -1.8273 -1.2878
18414TIP3    H276734   2.216   2.276  14.611  2.2564  1.4238 -0.0084
18415TIP3   OH276735   0.746   4.378  15.358  0.0842 -0.1595 -0.0824
18415TIP3    H176736   0.813   4.439  15.388  0.2661 -0.5832  0.4036
18415TIP3    H276737   0.691   4.429  15.299 -0.8921  1.0159  1.7405
18416TIP3   OH276738   0.680   5.334   6.061 -0.4144 -0.4089 -0.6536
18416TIP3    H176739   0.604   5.332   6.119 -0.5463  0.7938 -0.7499
18416TIP3    H276740   0.704   5.427   6.057  2.8172 -0.9788  1.6553
18417TIP3   OH276741   1.549   0.592   3.328  0.7375 -0.0465 -0.5268
18417TIP3    H176742   1.553   0.497   3.339  3.2501  0.0738  0.1500
18417TIP3    H276743   1.640   0.620   3.321  0.1087  2.3949 -0.1034
18418TIP3   OH276744   2.729   2.620   5.917  0.4725 -0.1522  0.6501
18418TIP3    H176745   2.746   2.557   5.847  1.5712 -0.2663  0.9998
18418TIP3    H276746   2.791   2.691   5.901 -0.1225  0.4129  0.7947
18419TIP3   OH276747   2.087   2.818   4.957 -0.3550  0.1040 -0.0554
18419TIP3    H176748   2.099   2.875   5.033  2.0095  0.6501 -0.7473
18419TIP3    H276749   2.049   2.875   4.890 -0.3688  0.1952  0.0289
18420TIP3   OH276750   5.053   4.117   2.539  0.4526  0.2950  0.2324
18420TIP3    H176751   4.960   4.108   2.561  0.4555 -0.1538  0.0784
18420TIP3    H276752   5.099   4.073   2.610  0.4795 -0.7706 -0.4232
18421TIP3   OH276753   0.883   3.825   2.500 -0.2992 -0.4659  0.1292
18421TIP3    H176754   0.954   3.762   2.483 -0.9826 -1.1482 -0.2694
18421TIP3    H276755   0.828   3.781   2.564  0.2402  0.5468  1.3188
18422TIP3   OH276756   3.567   0.824  15.707  0.0867  0.5822  0.3087
18422TIP3    H176757   3.551   0.734  15.678  0.4077  0.0389  1.7552
18422TIP3    H276758   3.490   0.846  15.759 -1.1099  2.0270 -1.9009
18423TIP3   OH276759   6.105   1.672  13.293 -0.2220  0.7279 -0.0520
18423TIP3    H176760   6.068   1.597  13.339  0.5259  0.5545  0.2848
18423TIP3    H276761   6.033   1.735  13.288 -1.8743 -1.1861 -3.1543
18424TIP3   OH276762   4.315   3.207  14.503  0.4872 -0.2223  0.4697
18424TIP3    H176763   4.247   3.146  14.531  0.7537 -0.4727  0.5723
18424TIP3    H276764   4.317   3.275  14.570 -1.3804  1.1575 -0.7494
18425TIP3   OH276765   5.480   5.159  15.800 -0.2052  0.0230  0.8590
18425TIP3    H176766   5.479   5.187  15.891  1.4680 -2.7116  1.8470
18425TIP3    H276767   5.537   5.222  15.756 -2.6653  2.6213  1.1072
18426TIP3   OH276768   2.490   4.564   3.125 -0.0251  0.0978 -0.0567
18426TIP3    H176769   2.577   4.534   3.150 -0.5945 -0.8183  0.9202
18426TIP3    H276770   2.506   4.640   3.069  1.4323 -0.8854 -1.0727
18427TIP3   OH276771   2.354   1.502   4.486  0.1969  0.0438  0.6576
18427TIP3    H176772   2.304   1.420   4.493  0.5614 -0.2997 -0.4379
18427TIP3    H276773   2.358   1.536   4.575 -2.1982  0.2157  0.7411
18428TIP3   OH276774   5.888   6.232   0.186 -0.1092 -0.1282 -0.5344
18428TIP3    H176775   5.901   6.307   0.129  0.5659 -0.6131 -1.0363
18428TIP3    H276776   5.942   6.163   0.148 -0.6658 -0.8496 -0.0439
18429TIP3   OH276777   5.911   4.170   4.632  0.4589  0.1886 -0.2131
18429TIP3    H176778   5.873   4.111   4.698 -1.4046  1.8126  0.2540
18429TIP3    H276779   5.912   4.256   4.674  0.1917  1.0755 -1.9432
18430TIP3   OH276780   5.761   5.339  12.682  0.4001  0.1399  0.9505
18430TIP3    H176781   5.699   5.271  12.708 -0.0418 -0.0308 -0.4626
18430TIP3    H276782   5.844   5.292  12.670  0.3194  0.0077  0.9104
18431TIP3   OH276783   1.020   5.703  15.673  0.0307  0.4924 -0.0533
18431TIP3    H176784   1.068   5.777  15.710 -1.5896  0.4937  2.2552
18431TIP3    H276785   0.950   5.743  15.622 -0.4565  0.5679  0.6623
18432TIP3   OH276786   2.074   1.713  11.015 -0.3521  0.0333  0.1980
18432TIP3    H176787   2.088   1.752  10.928  1.1285  1.9153  1.1977
18432TIP3    H276788   1.992   1.751  11.045 -1.1749 -1.0755 -0.5750
18433TIP3   OH276789   2.763   1.424  16.329 -0.2026  0.2110 -0.2422
18433TIP3    H176790   2.723   1.397  16.412 -0.4071 -0.0155 -0.4127
18433TIP3    H276791   2.856   1.429  16.348  0.0968 -2.2818 -0.6034
18434TIP3   OH276792   3.633   2.399   2.449 -0.3646  0.8807 -0.2368
18434TIP3    H176793   3.717   2.388   2.405 -1.2364  1.1247 -2.0410
18434TIP3    H276794   3.588   2.467   2.398 -2.1561 -0.1588 -0.1156
18435TIP3   OH276795   5.311   1.492   4.313  0.6434 -0.4650  0.2638
18435TIP3    H176796   5.274   1.440   4.383  1.2581 -1.4824 -0.1438
18435TIP3    H276797   5.366   1.431   4.263  0.0981  0.1777 -1.1965
18436TIP3   OH276798   1.353   5.711  15.664  0.5731 -0.3279  0.2596
18436TIP3    H176799   1.317   5.777  15.723  2.0455 -1.5193  2.6262
18436TIP3    H276800   1.436   5.749  15.633  0.7229 -0.4736  0.4795
18437TIP3   OH276801   4.101   0.324  15.434 -0.6046 -0.3228  0.4644
18437TIP3    H176802   4.011   0.299  15.455 -0.1568 -0.8810  1.8388
18437TIP3    H276803   4.155   0.267  15.489  0.5690  0.5843  0.2817
18438TIP3   OH276804   6.622   1.150  11.865  0.5346  0.5211  0.1917
18438TIP3    H176805   6.547   1.209  11.859  0.9696  0.9407 -3.4623
18438TIP3    H276806   6.589   1.066  11.832  1.5649  0.6689 -1.3104
18439TIP3   OH276807   0.737   0.304   4.257 -0.3601 -0.0378 -0.0707
18439TIP3    H176808   0.818   0.305   4.309 -0.7877 -0.2453  0.6109
18439TIP3    H276809   0.696   0.389   4.275 -0.0322  0.2938 -0.8480
18440TIP3   OH276810   2.461   4.412  12.293 -0.2411 -0.3575  0.7078
18440TIP3    H176811   2.430   4.478  12.356  1.3313  0.1271  1.0202
18440TIP3    H276812   2.459   4.330  12.341 -0.9920 -0.3381  0.7240
18441TIP3   OH276813   6.110   4.120  13.373  0.1888  0.5546  0.3936
18441TIP3    H176814   6.087   4.029  13.355  4.1817 -0.7445  0.8816
18441TIP3    H276815   6.062   4.142  13.453 -0.6862 -1.2063  0.3933
18442TIP3   OH276816   1.055   3.329  14.410 -0.0713 -0.4833  0.3107
18442TIP3    H176817   1.086   3.417  14.389 -2.0786 -0.1932 -1.9855
18442TIP3    H276818   0.964   3.342  14.438 -1.0043 -1.8830 -1.8142
18443TIP3   OH276819   5.884   5.763   4.994  0.0949  0.0168  0.2195
18443TIP3    H176820   5.800   5.729   4.962 -0.2213  0.1966  0.8435
18443TIP3    H276821   5.862   5.809   5.074 -0.0562  4.5764 -2.1296
18444TIP3   OH276822   4.449   0.908  15.943  0.4391  0.3563 -0.2018
18444TIP3    H176823   4.535   0.916  15.985  0.6531 -1.7601 -0.1499
18444TIP3    H276824   4.454   0.827  15.893 -1.0336  0.9931 -1.4624
18445TIP3   OH276825   0.110   5.875  15.141  0.2434  0.1831  0.4065
18445TIP3    H176826   0.133   5.852  15.051  0.1498 -2.1296  0.9015
18445TIP3    H276827   0.074   5.794  15.178 -0.5336  1.3094  2.2739
18446TIP3   OH276828   6.687   4.281  16.119 -0.8860  0.0778  0.0311
18446TIP3    H176829   6.698   4.318  16.207 -1.2573 -0.4130  0.2895
18446TIP3    H276830   6.775   4.254  16.094 -0.3332  2.4144 -0.7638
18447TIP3   OH276831   1.470   4.525   1.809 -0.4796 -0.4999  0.1403
18447TIP3    H176832   1.514   4.578   1.743 -2.4141 -0.1230 -0.9520
18447TIP3    H276833   1.419   4.462   1.758 -0.4263 -1.5443  1.3482
18448TIP3   OH276834   6.532   0.716   2.646  0.2127 -0.3026 -0.2831
18448TIP3    H176835   6.627   0.707   2.631  0.2310 -1.3723  0.3690
18448TIP3    H276836   6.495   0.722   2.558  1.1184  3.3759 -0.5574
18449TIP3   OH276837   6.622   0.547   5.401  0.1116 -0.4644  0.2959
18449TIP3    H176838   6.593   0.491   5.473 -0.1316  0.7821  1.1844
18449TIP3    H276839   6.703   0.506   5.370 -1.3062 -2.7155 -0.7270
18450TIP3   OH276840   2.474   4.174  11.397  0.3098  0.3227 -0.5162
18450TIP3    H176841   2.425   4.190  11.317  0.6076  0.1875 -0.7295
18450TIP3    H276842   2.526   4.096  11.378  0.0466  0.0208 -0.0356
18451TIP3   OH276843   5.246   3.955   1.287  0.0791  0.0401  0.8840
18451TIP3    H176844   5.258   4.050   1.282  2.3191 -0.1823  1.0081
18451TIP3    H276845   5.264   3.933   1.379  2.2514 -0.7432  0.3489
18452TIP3   OH276846   1.839   3.485   2.294 -0.2095  0.3463 -0.5877
18452TIP3    H176847   1.769   3.422   2.309 -0.0356  0.4707  0.9461
18452TIP3    H276848   1.805   3.567   2.329 -0.3750  1.1108 -2.4284
18453TIP3   OH276849   4.793   5.415   3.444 -0.2337  0.0540  0.0439
18453TIP3    H176850   4.764   5.327   3.422  1.9208 -0.1664 -2.5235
18453TIP3    H276851   4.719   5.471   3.420 -1.3239 -0.9481  0.9449
18454TIP3   OH276852   6.296   2.321  12.657  0.0964 -0.1390 -0.1609
18454TIP3    H176853   6.322   2.261  12.727 -0.7617 -1.4111 -0.8764
18454TIP3    H276854   6.245   2.390  12.701 -0.1157 -0.7157  0.5157
18455TIP3   OH276855   0.623   6.690   2.428 -0.2792  0.1904 -0.3684
18455TIP3    H176856   0.642   6.622   2.492 -0.5162  0.1113 -0.3809
18455TIP3    H276857   0.699   6.749   2.432  0.0857 -0.2534 -0.5975
18456TIP3   OH276858   1.513   2.389   0.913  0.0407 -0.0805  0.1586
18456TIP3    H176859   1.595   2.430   0.940  0.0813  2.7996 -3.6088
18456TIP3    H276860   1.447   2.457   0.923 -1.5376 -1.6187  0.8898
18457TIP3   OH276861   5.087   4.723  14.338  0.7180 -0.0312 -0.4705
18457TIP3    H176862   5.006   4.719  14.388  1.2378 -1.2548  0.3504
18457TIP3    H276863   5.099   4.815  14.316  0.6898  0.6457  2.0790
18458TIP3   OH276864   6.585   4.051   4.521  0.7589 -0.2216 -0.7514
18458TIP3    H176865   6.530   3.977   4.494 -0.9867  0.1566  1.4429
18458TIP3    H276866   6.525   4.126   4.521  2.2167  1.0150 -1.7851
18459TIP3   OH276867   2.719   5.541  14.287 -0.0511 -0.5736  0.0865
18459TIP3    H176868   2.780   5.518  14.217 -0.3260 -1.6660  0.1809
18459TIP3    H276869   2.681   5.457  14.314 -2.2550  0.1412 -0.5622
18460TIP3   OH276870   3.174   2.852   2.669  0.1953  0.0822  0.0139
18460TIP3    H176871   3.133   2.935   2.645  0.0303 -0.5321 -2.0298
18460TIP3    H276872   3.183   2.805   2.586  1.7986 -1.2739  0.9009
18461TIP3   OH276873   0.322   0.584   5.203  0.4505 -0.3799  0.1181
18461TIP3    H176874   0.388   0.611   5.138 -0.6681  0.1033 -0.8571
18461TIP3    H276875   0.312   0.660   5.260  2.2134 -1.1615  1.6013
18462TIP3   OH276876   5.017   0.402  14.755  0.1257 -0.2298  0.3654
18462TIP3    H176877   5.050   0.315  14.730 -0.3773  0.6042 -3.9946
18462TIP3    H276878   4.922   0.394  14.749  0.0704  0.5965  0.1511
18463TIP3   OH276879   0.727   4.009   0.596  0.3419  0.2319  0.2345
18463TIP3    H176880   0.659   3.983   0.658  2.1670 -0.7969  1.9363
18463TIP3    H276881   0.681   4.023   0.513 -1.8406 -0.8975  1.1856
18464TIP3   OH276882   2.376   3.912   0.075  0.1847  0.2123  0.4566
18464TIP3    H176883   2.419   3.841   0.028 -0.9082 -1.5665  2.0282
18464TIP3    H276884   2.431   3.927   0.151 -0.8065 -0.6088  1.3607
18465TIP3   OH276885   0.179   5.580   3.442  0.1621  0.2978 -0.1418
18465TIP3    H176886   0.203   5.663   3.401 -1.1306 -0.2044 -2.0089
18465TIP3    H276887   0.152   5.604   3.531 -0.3249  1.8872 -0.6968
18466TIP3   OH276888   2.417   3.120  11.570 -0.0215 -1.1179  0.4260
18466TIP3    H176889   2.505   3.115  11.533 -0.2671 -2.8876 -0.0057
18466TIP3    H276890   2.359   3.126  11.494 -0.2548  1.6391  0.7325
18467TIP3   OH276891   1.546   3.594   4.317  0.5033  0.7328 -0.1359
18467TIP3    H176892   1.564   3.567   4.407  0.1211 -1.4246 -0.6552
18467TIP3    H276893   1.547   3.690   4.320 -1.6766  0.7973  2.6098
18468TIP3   OH276894   5.182   3.464   1.204 -0.4006 -0.2884  0.2853
18468TIP3    H176895   5.160   3.523   1.275 -0.2120  1.0187 -0.7159
18468TIP3    H276896   5.238   3.397   1.245  0.1373  0.7288  1.2620
18469TIP3   OH276897   2.438   6.446   3.200  0.0285  0.4788  0.3835
18469TIP3    H176898   2.497   6.491   3.261  0.0328  0.9771  0.0129
18469TIP3    H276899   2.442   6.354   3.227  1.8442  0.3051 -0.3137
18470TIP3   OH276900   0.995   2.502   0.087  0.3353  0.2764 -0.2502
18470TIP3    H176901   1.049   2.476   0.162  2.2706  0.9837 -1.3294
18470TIP3    H276902   0.986   2.422   0.035  1.1730  0.3633 -0.5379
18471TIP3   OH276903   1.016   2.999   3.878  0.1775 -0.0169  0.1391
18471TIP3    H176904   0.968   3.069   3.923  0.5922  0.5426 -0.2674
18471TIP3    H276905   1.058   2.949   3.948 -2.4096 -1.6261  0.6485
18472TIP3   OH276906   4.757   0.551   3.717 -0.0618  0.1354  0.5995
18472TIP3    H176907   4.761   0.494   3.639 -0.3271  0.0042  0.6800
18472TIP3    H276908   4.738   0.491   3.789  0.7111  0.1828  0.8521
18473TIP3   OH276909   6.201   3.618   2.901 -0.0591 -0.2993  0.0108
18473TIP3    H176910   6.268   3.622   2.969 -0.9571 -1.3495  1.0079
18473TIP3    H276911   6.171   3.527   2.903 -0.5536 -0.1895 -1.3701
18474TIP3   OH276912   4.668   5.655  17.008  0.0860  0.5834 -0.1558
18474TIP3    H176913   4.659   5.642  17.103 -0.9283  1.5403 -0.1003
18474TIP3    H276914   4.757   5.689  16.997  1.1766 -1.9925  0.1428
18475TIP3   OH276915   2.219   6.141  10.709  0.7871  0.0375  0.0639
18475TIP3    H176916   2.262   6.197  10.644  1.0018 -1.3684 -1.0763
18475TIP3    H276917   2.153   6.092  10.658  0.3533 -0.4664  1.0825
18476TIP3   OH276918   1.666   1.932  16.084 -0.1882 -0.3749 -1.1854
18476TIP3    H176919   1.758   1.904  16.081 -0.0339 -0.0159 -0.2349
18476TIP3    H276920   1.670   2.026  16.097 -0.6934 -0.3946 -0.8512
18477TIP3   OH276921   1.495   3.077  13.917  0.5515 -0.2136  0.9186
18477TIP3    H176922   1.480   3.015  13.989  2.5406 -0.7208  0.9411
18477TIP3    H276923   1.589   3.078  13.905  0.2341 -1.4785 -2.8780
18478TIP3   OH276924   0.721   2.100   1.754  0.1618 -0.3015 -0.7896
18478TIP3    H176925   0.705   2.109   1.848 -0.9991 -1.0954 -0.8959
18478TIP3    H276926   0.743   2.008   1.742  1.1901 -0.0159 -1.1866
18479TIP3   OH276927   0.860   5.497   2.686 -0.4231 -0.1050  0.2419
18479TIP3    H176928   0.885   5.425   2.744  0.7912  0.3641  0.3364
18479TIP3    H276929   0.837   5.569   2.746  0.2482  0.1887  0.1567
18480TIP3   OH276930   3.309   6.236   5.582 -0.2087 -0.5342  0.2871
18480TIP3    H176931   3.330   6.329   5.586  0.1031 -0.5378 -0.9165
18480TIP3    H276932   3.233   6.231   5.524 -0.3522 -1.0134  0.5092
18481TIP3   OH276933   5.284   4.182  15.246 -0.0190 -0.4972 -0.4878
18481TIP3    H176934   5.237   4.117  15.299 -0.5688 -0.5551 -1.0390
18481TIP3    H276935   5.258   4.266  15.283  0.8885 -0.5776  0.3889
18482TIP3   OH276936   2.106   6.288  11.950 -0.4291 -0.1279  0.2395
18482TIP3    H176937   2.026   6.236  11.957 -2.9612  3.4712  1.4222
18482TIP3    H276938   2.078   6.366  11.901  2.7386  0.7304 -0.4050
18483TIP3   OH276939   6.670   3.521   5.450 -0.1145 -0.5177  0.5120
18483TIP3    H176940   6.727   3.596   5.467  0.7390 -0.9192 -0.4506
18483TIP3    H276941   6.691   3.458   5.519 -1.3807  0.3997  1.7787
18484TIP3   OH276942   6.409   0.150   1.878  0.2545 -0.1535  0.2093
18484TIP3    H176943   6.317   0.169   1.858  0.1034  2.2757  2.6508
18484TIP3    H276944   6.421   0.059   1.853 -1.4615  0.6210 -4.6325
18485TIP3   OH276945   4.132   1.487  16.180 -0.2067  0.4334  0.2279
18485TIP3    H176946   4.106   1.566  16.133  0.6557  0.7336  0.2415
18485TIP3    H276947   4.092   1.416  16.131  0.9030  0.7105 -1.1457
18486TIP3   OH276948   2.184   6.824   4.001  0.0626 -0.8606  0.6988
18486TIP3    H176949   2.147   6.912   3.997  0.2330 -0.7559  1.2600
18486TIP3    H276950   2.140   6.775   3.932  0.5134 -0.1270 -0.1286
18487TIP3   OH276951   2.392   1.699   3.272  0.1377 -0.0998 -0.1170
18487TIP3    H176952   2.377   1.781   3.318  1.2432  0.4400 -0.6918
18487TIP3    H276953   2.436   1.724   3.191  0.3955 -1.2432 -0.3499
18488TIP3   OH276954   4.848   1.475   3.419 -0.2445  0.0485 -0.3632
18488TIP3    H176955   4.754   1.461   3.407  0.2062 -0.5702 -4.7635
18488TIP3    H276956   4.883   1.387   3.434 -0.1610 -0.0825 -1.2572
18489TIP3   OH276957   6.128   0.199   1.870  0.0081  0.8530 -0.5931
18489TIP3    H176958   6.091   0.245   1.946  0.8133  0.4631  0.0454
18489TIP3    H276959   6.082   0.236   1.795  0.5219  2.5950 -0.0897
18490TIP3   OH276960   4.818   1.263  15.263  0.1841  0.0428  0.2514
18490TIP3    H176961   4.861   1.212  15.331 -0.1055 -0.7104 -0.1276
18490TIP3    H276962   4.846   1.223  15.180 -1.1197 -0.3646 -0.0047
18491TIP3   OH276963   1.774   1.822   5.140  0.3617 -0.8741  0.2884
18491TIP3    H176964   1.779   1.878   5.218  0.4995 -0.9181  0.3115
18491TIP3    H276965   1.694   1.772   5.152 -0.5899  0.4206 -0.4721
18492TIP3   OH276966   3.580   1.237  13.218 -0.0151 -0.0104 -0.1524
18492TIP3    H176967   3.650   1.283  13.171 -1.2401  2.7805  0.5853
18492TIP3    H276968   3.577   1.279  13.304 -1.0813 -1.7056  0.7079
18493TIP3   OH276969   5.641   4.439  14.435  0.4324 -0.6109  0.2477
18493TIP3    H176970   5.711   4.478  14.488  2.5698 -1.1628 -1.9929
18493TIP3    H276971   5.670   4.452  14.345 -1.6665 -2.1976 -0.7214
18494TIP3   OH276972   4.475   3.279   3.608 -0.0747  0.1245  0.1324
18494TIP3    H176973   4.455   3.225   3.532  1.4142 -0.6772  0.2678
18494TIP3    H276974   4.520   3.219   3.669  0.3352  1.1642  0.8847
18495TIP3   OH276975   4.061   6.611  15.998  0.1016 -0.3668  0.1516
18495TIP3    H176976   4.048   6.685  16.058 -2.3390 -0.1266 -0.5650
18495TIP3    H276977   4.138   6.566  16.033  1.1116  1.9459  1.1603
18496TIP3   OH276978   3.381   1.515   4.675 -0.1728 -0.4378 -0.2882
18496TIP3    H176979   3.294   1.503   4.712  0.1494  0.6653  0.9263
18496TIP3    H276980   3.428   1.435   4.699  0.0199  0.2233  1.8062
18497TIP3   OH276981   5.471   0.206   0.249  0.0512 -0.2357  0.0462
18497TIP3    H176982   5.433   0.168   0.169  0.5439 -1.5840  0.4260
18497TIP3    H276983   5.401   0.201   0.314 -0.2646  0.6184 -0.2181
18498TIP3   OH276984   5.596   1.758  15.810 -0.6707 -0.8236  0.3315
18498TIP3    H176985   5.549   1.691  15.860 -0.7122 -2.2541 -1.4785
18498TIP3    H276986   5.687   1.751  15.840 -0.9100 -0.7956  1.0728
18499TIP3   OH276987   0.100   4.245   2.032  0.1085 -0.7861 -0.0005
18499TIP3    H176988   0.132   4.198   1.954  0.6249 -1.1416  0.4222
18499TIP3    H276989   0.005   4.250   2.019  0.1697 -0.9967 -0.5731
18500TIP3   OH276990   0.694   0.095  13.198  0.1760 -0.1036  0.3049
18500TIP3    H176991   0.643   0.168  13.232  2.2852  1.4251  0.3655
18500TIP3    H276992   0.697   0.032  13.270 -1.6878 -0.3384  0.2372
18501TIP3   OH276993   0.461   4.760  12.129 -0.0468 -0.1774 -0.6923
18501TIP3    H176994   0.473   4.849  12.164  0.7270 -0.0700 -1.1909
18501TIP3    H276995   0.414   4.713  12.198 -2.1120  1.0923 -1.1450
18502TIP3   OH276996   6.074   0.048  14.424  0.1946  0.2239  0.0470
18502TIP3    H176997   6.138  -0.002  14.475  0.0733  0.7023  0.6729
18502TIP3    H276998   6.115   0.058  14.338 -0.6067 -2.7131 -0.8033
18503TIP3   OH276999   1.653   5.992  11.685 -0.5283 -0.1547  0.3392
18503TIP3    H177000   1.571   6.031  11.716 -0.4652 -1.0155  1.6811
18503TIP3    H277001   1.715   6.065  11.682 -1.6755  0.8548 -2.2418
18504TIP3   OH277002   3.404   0.169  15.250  0.0527 -0.1238 -0.0528
18504TIP3    H177003   3.494   0.152  15.222  1.1629  0.4879  2.8368
18504TIP3    H277004   3.393   0.118  15.330 -1.9189  0.4705  0.1132
18505TIP3   OH277005   2.236   6.394  14.327 -0.2769  0.1337 -0.1303
18505TIP3    H177006   2.292   6.326  14.290  1.0411  0.4973  1.1360
18505TIP3    H277007   2.258   6.397  14.420 -0.8785  1.7324  0.0039
18506TIP3   OH277008   5.323   5.315  14.388  0.0243 -0.4996  0.3567
18506TIP3    H177009   5.390   5.361  14.438 -0.5205  0.4861  0.1998
18506TIP3    H277010   5.283   5.254  14.451  1.2187 -1.2760  0.3853
18507TIP3   OH277011   1.443   2.003   4.618  0.0211  0.0520 -0.8806
18507TIP3    H177012   1.367   1.945   4.612  1.1533 -1.5399 -0.4369
18507TIP3    H277013   1.447   2.045   4.532  0.3832 -2.1469 -2.0149
18508TIP3   OH277014   2.816   5.778   1.036  0.4077 -0.4780  0.4108
18508TIP3    H177015   2.896   5.727   1.054  0.2904 -0.2236  1.7723
18508TIP3    H277016   2.824   5.855   1.093  0.0225  0.4510 -0.7623
18509TIP3   OH277017   4.272   3.552   5.475  0.0075  0.7132 -0.5777
18509TIP3    H177018   4.215   3.566   5.551  1.6237  2.6427  0.3732
18509TIP3    H277019   4.335   3.485   5.504  0.6283  1.4545 -0.1632
18510TIP3   OH277020   4.125   0.239  10.856  0.2921  0.6866  0.0831
18510TIP3    H177021   4.126   0.159  10.804  0.2306  0.7957 -0.0848
18510TIP3    H277022   4.173   0.216  10.936 -0.8916  0.0685  0.6448
18511TIP3   OH277023   3.089   1.153  15.315  0.3480  0.3705 -0.1639
18511TIP3    H177024   3.183   1.166  15.309  0.4485 -0.6852 -0.9388
18511TIP3    H277025   3.074   1.127  15.406  1.2358 -2.6443 -0.7867
18512TIP3   OH277026   4.517   4.921   2.715  0.2469 -0.4810 -0.7669
18512TIP3    H177027   4.600   4.945   2.674  1.1650  0.2953  1.3937
18512TIP3    H277028   4.537   4.844   2.768  0.2669  1.0309  1.6003
18513TIP3   OH277029   4.525   2.968   2.799  0.1180  0.4865 -0.3203
18513TIP3    H177030   4.591   2.911   2.757 -0.0520 -0.2814  0.4187
18513TIP3    H277031   4.575   3.017   2.865  0.2289  1.0622 -0.8260
18514TIP3   OH277032   1.237   5.383  13.053  0.3191 -0.0070 -0.0622
18514TIP3    H177033   1.170   5.430  13.103  1.0427  1.3227 -0.3220
18514TIP3    H277034   1.220   5.406  12.962 -0.0582 -1.2354 -0.3284
18515TIP3   OH277035   3.780   4.047  16.060 -0.1628 -0.4006  0.0618
18515TIP3    H177036   3.718   3.979  16.087 -0.7882  0.7622  1.7145
18515TIP3    H277037   3.746   4.127  16.099  2.3215  0.3153  0.9215
18516TIP3   OH277038   5.271   6.413   3.843 -0.1723 -0.2181  0.1926
18516TIP3    H177039   5.325   6.452   3.774  0.6480 -0.4890  0.6707
18516TIP3    H277040   5.187   6.460   3.836 -0.1459 -0.3042 -1.0405
18517TIP3   OH277041   4.115   3.938   2.819 -0.2869  0.2175  0.6863
18517TIP3    H177042   4.204   3.970   2.803  0.2102 -1.3103  0.2166
18517TIP3    H277043   4.061   4.017   2.820  1.0694  1.1777  1.0013
18518TIP3   OH277044   3.070   4.862   3.067  0.7067  0.0357 -0.2773
18518TIP3    H177045   2.993   4.820   3.029 -1.1505  0.5621  2.6266
18518TIP3    H277046   3.133   4.791   3.079 -0.2862 -0.8938 -0.4178
18519TIP3   OH277047   0.790   6.714   2.977  0.0453  0.0938 -0.5388
18519TIP3    H177048   0.838   6.661   3.040 -0.8589 -0.0913  0.0234
18519TIP3    H277049   0.701   6.718   3.012 -0.4271  0.1850 -1.6862
18520TIP3   OH277050   3.251   1.086   5.524 -0.1450 -0.3732 -0.1535
18520TIP3    H177051   3.184   1.027   5.492 -2.1105  1.6720 -0.0844
18520TIP3    H277052   3.286   1.128   5.445 -1.0697  0.6551 -0.0488
18521TIP3   OH277053   3.910   5.039   3.681  0.0101 -0.0121  0.0220
18521TIP3    H177054   3.835   5.036   3.740  0.2638 -0.7836  0.3285
18521TIP3    H277055   3.882   5.093   3.607 -0.2892  1.0460  0.8774
18522TIP3   OH277056   3.453   1.657  14.996  0.0906  0.1106  0.0170
18522TIP3    H177057   3.359   1.644  15.002 -0.0158  0.4686 -0.7190
18522TIP3    H277058   3.464   1.752  14.987  0.5317  0.0919  0.3356
18523TIP3   OH277059   3.169   6.542  16.690  0.4384 -0.2910  0.7985
18523TIP3    H177060   3.081   6.526  16.723 -0.7558 -2.9323 -3.0167
18523TIP3    H277061   3.162   6.625  16.641  0.3641 -0.0022  1.2942
18524TIP3   OH277062   5.730   2.854  15.838  0.1520 -0.0364  0.1830
18524TIP3    H177063   5.761   2.907  15.764 -1.4800  1.1211  0.2809
18524TIP3    H277064   5.652   2.810  15.806 -0.3677  0.1891  1.0883
18525TIP3   OH277065   0.774   1.479  11.951 -0.4299 -0.1562  0.9060
18525TIP3    H177066   0.691   1.478  11.902 -0.3819  1.1710  0.7619
18525TIP3    H277067   0.796   1.572  11.958  0.0457 -0.3709  2.6507
18526TIP3   OH277068   1.923   6.530   3.725  0.0813 -0.2801  0.4787
18526TIP3    H177069   1.841   6.515   3.771  0.7145 -1.6253  1.2284
18526TIP3    H277070   1.968   6.446   3.727  0.4635 -0.2282 -2.0151
18527TIP3   OH277071   3.250   0.436   1.650 -0.2719  0.1500 -0.5919
18527TIP3    H177072   3.205   0.385   1.718  2.5886 -0.1633  1.2352
18527TIP3    H277073   3.249   0.378   1.573 -0.4599 -1.0205  0.2594
18528TIP3   OH277074   5.983   2.051  12.127 -0.3724  0.5458 -0.5424
18528TIP3    H177075   5.993   1.973  12.181  3.3789  0.4150 -1.1751
18528TIP3    H277076   6.071   2.087  12.119 -1.6443  3.7595 -1.9412
18529TIP3   OH277077   0.732   2.255  11.721  0.0581  0.7488 -0.0930
18529TIP3    H177078   0.667   2.204  11.770  0.7847 -0.8670 -0.7362
18529TIP3    H277079   0.693   2.266  11.634  0.9084 -0.8845 -0.7217
18530TIP3   OH277080   1.491   3.357   2.089  0.0868  0.0890 -0.1974
18530TIP3    H177081   1.540   3.313   2.157 -0.0006 -0.4233 -0.4593
18530TIP3    H277082   1.523   3.448   2.090  1.2196 -0.2950 -0.5365
18531TIP3   OH277083   0.269   6.593   6.044 -0.2072 -0.2770  0.3845
18531TIP3    H177084   0.201   6.646   6.001 -0.1373 -0.0146  0.5926
18531TIP3    H277085   0.338   6.656   6.064  0.9795 -0.8504 -1.5892
18532TIP3   OH277086   5.206   5.936  11.026 -0.7424  0.0387 -0.0566
18532TIP3    H177087   5.127   5.902  11.068 -1.3774 -0.0778 -1.3050
18532TIP3    H277088   5.175   6.008  10.972  0.1112  0.4244 -0.0428
18533TIP3   OH277089   6.326   1.492   0.826  0.2418 -0.8453 -0.3332
18533TIP3    H177090   6.318   1.401   0.799 -1.6291 -1.1201  0.9378
18533TIP3    H277091   6.404   1.494   0.881  0.8958 -1.4248 -1.2042
18534TIP3   OH277092   2.493   0.921  13.620 -0.2690 -0.4078  0.0008
18534TIP3    H177093   2.459   1.009  13.635  0.2806 -0.0690 -0.7108
18534TIP3    H277094   2.549   0.904  13.696 -2.1854 -1.0959  1.3580
18535TIP3   OH277095   6.069   4.857  15.882  0.1676  0.0808  0.1537
18535TIP3    H177096   6.045   4.771  15.918  0.6317 -0.3785 -0.6073
18535TIP3    H277097   5.999   4.877  15.821  2.3709 -2.0849 -3.4298
18536TIP3   OH277098   4.898   2.029  15.439  0.1508 -0.6666  0.1963
18536TIP3    H177099   4.866   2.037  15.529 -2.0809 -0.0241 -0.5722
18536TIP3    H277100   4.887   1.937  15.417  0.7696 -0.8370  0.6101
18537TIP3   OH277101   1.785   4.715  16.029 -0.1194  0.0169 -0.2645
18537TIP3    H177102   1.822   4.752  16.109 -3.0345  0.7723  0.8652
18537TIP3    H277103   1.758   4.791  15.978  1.6424 -0.4639 -2.0007
18538TIP3   OH277104   1.390   4.761  12.262  0.0608  0.0651 -0.1314
18538TIP3    H177105   1.371   4.840  12.211  0.1337  1.1663  1.4752
18538TIP3    H277106   1.304   4.724  12.280  0.0316 -0.2978 -0.9850
18539TIP3   OH277107   5.252   1.375   3.830  0.3679 -0.3217  0.2545
18539TIP3    H177108   5.207   1.295   3.801  0.6626 -0.0510 -1.0225
18539TIP3    H277109   5.190   1.445   3.809  1.3571  0.0666 -1.6257
18540TIP3   OH277110   5.950   3.890   0.056  0.0117  0.7223  0.3560
18540TIP3    H177111   6.008   3.962   0.032 -0.0816  0.5421 -0.4508
18540TIP3    H277112   5.868   3.907   0.009 -0.0894  0.2161  0.3326
18541TIP3   OH277113   6.293   3.494  11.580 -0.2308 -0.2778 -0.1357
18541TIP3    H177114   6.312   3.400  11.569  0.4855 -0.3841  1.7004
18541TIP3    H277115   6.367   3.538  11.540  0.9434 -0.5981  1.5399
18542TIP3   OH277116   4.405   0.708   3.704 -0.6139  0.2568 -0.2785
18542TIP3    H177117   4.429   0.685   3.794 -1.2664 -0.9988 -0.4011
18542TIP3    H277118   4.337   0.644   3.680  1.0635 -0.8736 -2.4097
18543TIP3   OH277119   1.915   4.237  14.089  0.0392 -0.1389  0.3916
18543TIP3    H177120   1.975   4.267  14.157  0.3139  1.4129 -0.4977
18543TIP3    H277121   1.964   4.170  14.041  0.8820  0.7404  0.0063
18544TIP3   OH277122   3.170   1.278   2.387 -0.1947  0.1128 -0.1288
18544TIP3    H177123   3.243   1.227   2.421 -0.3709  0.2309  0.4334
18544TIP3    H277124   3.157   1.245   2.298 -1.4373 -2.0713  0.7843
18545TIP3   OH277125   4.791   2.397   2.585 -0.2909 -0.5882 -0.1409
18545TIP3    H177126   4.860   2.423   2.524 -0.5080 -0.7378 -0.4509
18545TIP3    H277127   4.826   2.421   2.671  0.5317 -1.4905 -0.2067
18546TIP3   OH277128   3.688   6.203   6.287 -0.1940 -0.0266 -0.7515
18546TIP3    H177129   3.652   6.176   6.372 -1.4407  0.8357 -0.9718
18546TIP3    H277130   3.738   6.127   6.256 -1.4071 -1.0966 -0.1643
18547TIP3   OH277131   6.413   3.922  10.979 -0.0087  0.0829 -0.0833
18547TIP3    H177132   6.459   3.883  11.053 -1.0813 -0.7927  0.1417
18547TIP3    H277133   6.406   3.852  10.915  1.3280  0.9563 -1.2582
18548TIP3   OH277134   1.600   6.071  13.955 -0.2730  0.0964 -0.4538
18548TIP3    H177135   1.540   6.109  14.019 -0.6467 -1.0726 -0.0940
18548TIP3    H277136   1.684   6.115  13.972 -0.8923  1.3950 -0.6533
18549TIP3   OH277137   0.915   4.710  11.551  0.2950  0.2984  0.1060
18549TIP3    H177138   0.913   4.637  11.490  0.5260  0.4606 -0.0974
18549TIP3    H277139   0.880   4.674  11.632  1.8004 -0.4578  0.4593
18550TIP3   OH277140   3.451   2.946   2.885 -0.0801 -0.1327 -0.1619
18550TIP3    H177141   3.385   2.883   2.915  0.1254 -0.8773 -1.2167
18550TIP3    H277142   3.401   3.023   2.859 -0.6348 -0.9853 -1.7178
18551TIP3   OH277143   4.013   6.228   3.331 -0.2255  0.5421  0.0555
18551TIP3    H177144   4.058   6.238   3.247 -1.0233 -0.1615 -0.4682
18551TIP3    H277145   3.923   6.205   3.308 -0.8238  1.7378  1.0891
18552TIP3   OH277146   5.902   6.695   5.655 -0.2553  0.0218  0.5476
18552TIP3    H177147   5.935   6.735   5.735 -0.1774 -0.0592  0.5554
18552TIP3    H277148   5.807   6.696   5.665 -0.3124  1.1877  0.0825
18553TIP3   OH277149   5.062   5.486   5.775  0.0568 -0.3869  0.1108
18553TIP3    H177150   5.153   5.513   5.763 -0.4494  1.3054 -0.2051
18553TIP3    H277151   5.012   5.540   5.713 -1.0424 -2.2676 -0.7474
18554TIP3   OH277152   2.878   5.855   0.145 -0.4068 -0.0477 -0.2333
18554TIP3    H177153   2.886   5.760   0.132 -2.6472 -0.5779  1.6581
18554TIP3    H277154   2.935   5.874   0.221 -2.0173 -0.4294  1.1271
18555TIP3   OH277155   5.674   3.392   1.544 -0.4264  0.1903  0.2986
18555TIP3    H177156   5.591   3.398   1.497 -0.9690 -1.1133  1.0214
18555TIP3    H277157   5.648   3.379   1.635  0.5989  1.7801  0.8385
18556TIP3   OH277158   1.978   3.195   2.388  0.2053  0.2370  0.4807
18556TIP3    H177159   1.962   3.167   2.478  1.4544 -2.2883  0.0099
18556TIP3    H277160   2.062   3.241   2.392 -0.7118  1.9669  0.8712
18557TIP3   OH277161   4.550   5.859  12.570  0.1130  0.3608  0.8167
18557TIP3    H177162   4.587   5.776  12.600  0.4082  1.2879  3.2215
18557TIP3    H277163   4.457   5.853  12.594 -0.5400 -0.3687 -1.6243
18558TIP3   OH277164   4.212   0.862  13.874 -0.5819 -0.1085 -0.4890
18558TIP3    H177165   4.297   0.904  13.861 -0.9857  0.7407 -0.4394
18558TIP3    H277166   4.217   0.824  13.961  0.5425 -2.0104 -1.3286
18559TIP3   OH277167   1.822   2.567  15.192 -0.5823  0.5366  0.2467
18559TIP3    H177168   1.906   2.610  15.210  1.4181 -0.2118 -5.2470
18559TIP3    H277169   1.839   2.474  15.208  0.1495  0.2520 -1.8894
18560TIP3   OH277170   6.394   3.457  15.149 -0.6353 -0.3996  0.1927
18560TIP3    H177171   6.359   3.522  15.089  3.7238  2.1366  0.0311
18560TIP3    H277172   6.414   3.505  15.229  0.3366 -2.0913  1.0399
18561TIP3   OH277173   1.693   2.610   3.698  0.0321 -0.3037  1.0504
18561TIP3    H177174   1.748   2.657   3.760  1.2826 -2.5792  1.7734
18561TIP3    H277175   1.607   2.606   3.740  0.0735  0.6901  1.2635
18562TIP3   OH277176   5.916   3.081   4.393 -0.3754 -0.1203  0.3947
18562TIP3    H177177   5.858   3.039   4.330 -0.9640  1.2295 -0.0200
18562TIP3    H277178   5.907   3.030   4.473 -0.4213 -1.2390 -0.3130
18563TIP3   OH277179   0.280   1.686  11.087  0.6938 -0.1922  0.6306
18563TIP3    H177180   0.320   1.749  11.147  1.4491  1.7380 -1.7181
18563TIP3    H277181   0.320   1.705  11.003 -1.3125 -1.8251 -0.7900
18564TIP3   OH277182   3.843   3.526  17.031 -0.0413  0.3631 -0.6465
18564TIP3    H177183   3.765   3.472  17.018  1.2520 -1.6788 -0.3646
18564TIP3    H277184   3.910   3.465  17.062  1.8686  1.9127 -1.4804
18565TIP3   OH277185   5.891   6.662  17.166  0.1364  0.1696  0.1400
18565TIP3    H177186   5.941   6.643  17.087 -0.1292  0.6336 -0.1448
18565TIP3    H277187   5.819   6.717  17.136  0.2389  0.6540  0.7664
18566TIP3   OH277188   6.019   5.849   2.809 -0.3943  0.5901  0.1686
18566TIP3    H177189   6.068   5.771   2.834  0.1316 -0.0189 -2.4626
18566TIP3    H277190   5.998   5.892   2.892  1.2047 -1.1794  1.5800
18567TIP3   OH277191   0.225   3.519  17.141 -0.2005 -0.3879 -0.1766
18567TIP3    H177192   0.215   3.529  17.046  0.1337  0.6552 -0.1150
18567TIP3    H277193   0.158   3.575  17.179  0.9204  0.7338  0.1983
18568TIP3   OH277194   0.893   4.144   2.090  0.0250  0.0601  0.0206
18568TIP3    H177195   0.814   4.193   2.066 -0.4529  0.4793  2.2772
18568TIP3    H277196   0.935   4.197   2.158  1.0752 -1.2483  0.4324
18569TIP3   OH277197   2.081   3.620   2.415 -0.8397 -0.6305 -0.0997
18569TIP3    H177198   1.990   3.645   2.400 -0.7343  0.9134  1.4503
18569TIP3    H277199   2.107   3.670   2.493  0.9888 -1.9018  0.1794
18570TIP3   OH277200   1.905   0.421   5.254 -0.2249  0.2562  0.0734
18570TIP3    H177201   1.974   0.473   5.213 -0.2045  0.4947  0.4015
18570TIP3    H277202   1.840   0.486   5.281 -0.5543  0.0363 -0.1890
18571TIP3   OH277203   4.382   4.391  11.549  0.0324  0.2268 -0.4093
18571TIP3    H177204   4.328   4.380  11.627  1.5544 -0.6495  0.5765
18571TIP3    H277205   4.320   4.393  11.477 -1.2657 -1.8902  0.5583
18572TIP3   OH277206   1.619   0.118  13.606  0.0336  0.6710 -0.1106
18572TIP3    H177207   1.574   0.087  13.527  1.3760 -1.4688 -0.1118
18572TIP3    H277208   1.635   0.211  13.589 -1.0777  0.6229 -1.6774
18573TIP3   OH277209   0.523   2.480   0.433  0.7191  0.0968  0.5128
18573TIP3    H177210   0.479   2.396   0.451  0.2250  0.5468  1.4513
18573TIP3    H277211   0.557   2.470   0.344 -1.0559 -0.3967 -0.1643
18574TIP3   OH277212   5.977   5.487   0.573 -0.3255  0.6220  0.1720
18574TIP3    H177213   5.996   5.394   0.560  0.1905  0.6449  0.7068
18574TIP3    H277214   6.060   5.531   0.555 -1.0569  1.2005 -2.1003
18575TIP3   OH277215   3.961   6.660   1.745 -0.3973  0.1067 -0.6090
18575TIP3    H177216   4.047   6.645   1.706  0.8186  0.1980  1.8082
18575TIP3    H277217   3.964   6.752   1.774 -0.6649 -0.3232  0.8539
18576TIP3   OH277218   2.989   3.719   4.085 -0.1068 -0.3815  0.2028
18576TIP3    H177219   3.016   3.799   4.040 -2.2070  0.4956  0.3855
18576TIP3    H277220   2.944   3.750   4.164 -0.2326 -1.7693  0.6977
18577TIP3   OH277221   0.552   6.508   6.358  0.5023 -0.4133 -0.3180
18577TIP3    H177222   0.459   6.524   6.369  0.6714 -0.1019  0.8718
18577TIP3    H277223   0.591   6.595   6.350  0.9041 -0.3800  1.4083
18578TIP3   OH277224   5.629   3.585   2.612  0.1115  0.0447 -0.3492
18578TIP3    H177225   5.547   3.633   2.626  0.6874  0.6568  0.9597
18578TIP3    H277226   5.600   3.502   2.573 -0.9417  1.1271 -2.0408
18579TIP3   OH277227   5.451   1.861   2.389  0.1367  0.2697  0.2920
18579TIP3    H177228   5.472   1.952   2.371 -1.3197  0.3550 -1.2501
18579TIP3    H277229   5.375   1.865   2.448 -0.6603  0.1007 -0.6951
18580TIP3   OH277230   4.575   5.320  16.856 -0.0447 -0.0905 -0.0111
18580TIP3    H177231   4.563   5.406  16.898 -0.6312  0.5213 -1.3787
18580TIP3    H277232   4.558   5.257  16.926 -1.7196  0.8819  0.5177
18581TIP3   OH277233   3.974   5.468   5.381 -0.5839 -0.5727 -0.2455
18581TIP3    H177234   4.049   5.524   5.400 -1.7646  0.7369  0.6601
18581TIP3    H277235   3.901   5.528   5.367 -1.5327 -1.8237 -0.9294
18582TIP3   OH277236   0.156   3.988  12.136 -0.4714  0.4124  0.0749
18582TIP3    H177237   0.134   4.067  12.086  0.7617  1.3723  0.9932
18582TIP3    H277238   0.090   3.924  12.110  0.5648  0.5654 -3.4533
18583TIP3   OH277239   4.518   6.817   0.043  0.5093  0.0451 -0.2311
18583TIP3    H177240   4.507   6.801   0.137  0.2275 -0.9338 -0.4192
18583TIP3    H277241   4.432   6.847   0.014 -0.2554 -2.3700 -0.6802
18584TIP3   OH277242   5.122   2.513  15.890  0.5896 -0.0181 -0.3026
18584TIP3    H177243   5.038   2.466  15.888 -0.9779  2.5758  0.1305
18584TIP3    H277244   5.179   2.457  15.942 -0.8348 -1.8819 -0.6148
18585TIP3   OH277245   4.353   0.053  12.283  0.7419  0.0587 -0.1208
18585TIP3    H177246   4.390   0.049  12.371  1.3571 -0.5520 -0.3978
18585TIP3    H277247   4.407   0.116  12.236  1.9888 -1.4364 -0.7627
18586TIP3   OH277248   4.531   3.796  15.120  0.1269 -0.0182  0.1231
18586TIP3    H177249   4.529   3.862  15.190  0.1161 -0.3656  0.4563
18586TIP3    H277250   4.622   3.793  15.092 -0.0851  1.0102 -0.7419
18587TIP3   OH277251   3.572   3.469   0.111  0.0609 -0.5547  0.6339
18587TIP3    H177252   3.494   3.523   0.126  0.5598  0.5994 -0.7039
18587TIP3    H277253   3.623   3.477   0.192  0.3000  1.3276  0.3483
18588TIP3   OH277254   5.521   2.813  14.832 -0.6636 -0.5769 -0.6776
18588TIP3    H177255   5.613   2.822  14.857 -0.7118  0.5729 -0.8600
18588TIP3    H277256   5.502   2.719  14.844  0.3341 -0.7119  0.0054
18589TIP3   OH277257   2.417   3.838  12.814  0.0068  0.2304  0.0409
18589TIP3    H177258   2.456   3.811  12.897 -1.4853  2.0693  1.4415
18589TIP3    H277259   2.325   3.853  12.835 -0.7601 -0.6479 -2.3248
18590TIP3   OH277260   5.242   2.867  12.457 -0.2951  0.3985 -0.1820
18590TIP3    H177261   5.299   2.792  12.437 -0.6235 -0.1986  1.0086
18590TIP3    H277262   5.303   2.937  12.480  0.0420  0.7309 -1.9158
18591TIP3   OH277263   3.208   0.553  15.392  0.3380 -0.0984 -0.3911
18591TIP3    H177264   3.178   0.608  15.320 -1.2600  0.3484  0.5842
18591TIP3    H277265   3.292   0.518  15.362 -0.0848  0.4262 -2.2778
18592TIP3   OH277266   0.554   4.050  11.650  0.4059 -0.0923 -0.4290
18592TIP3    H177267   0.621   4.021  11.587 -1.1967 -1.7011 -1.4802
18592TIP3    H277268   0.501   4.112  11.601  0.4401  0.3227  0.0516
18593TIP3   OH277269   3.772   2.067   0.582  0.0322 -0.0869  0.5698
18593TIP3    H177270   3.862   2.047   0.556  0.2289 -0.9627  1.8197
18593TIP3    H277271   3.780   2.140   0.642 -0.2077  0.5125 -0.1143
18594TIP3   OH277272   6.787   0.235   1.184  0.5115  0.0222  0.2990
18594TIP3    H177273   6.702   0.239   1.228  1.3817 -0.0826  2.0876
18594TIP3    H277274   6.840   0.302   1.227  1.3840 -0.0144 -0.6729
18595TIP3   OH277275   4.697   3.303   1.199 -0.6484  0.4374  0.0007
18595TIP3    H177276   4.752   3.252   1.139 -2.5280 -1.7421  0.0123
18595TIP3    H277277   4.612   3.260   1.196 -1.1263  0.8890  3.4563
18596TIP3   OH277278   2.663   1.069   6.187 -0.4469  0.0695  0.0146
18596TIP3    H177279   2.723   1.003   6.223 -2.0918  0.0029  2.9178
18596TIP3    H277280   2.708   1.152   6.203 -0.5265 -0.0603  0.9672
18597TIP3   OH277281   2.429   2.440  16.841  0.5021  0.4179 -0.4939
18597TIP3    H177282   2.524   2.434  16.833  0.4334 -0.9816 -0.5527
18597TIP3    H277283   2.413   2.428  16.935  0.3584 -0.1771 -0.5856
18598TIP3   OH277284   0.555   2.238   1.536 -0.2760 -0.2443 -0.4878
18598TIP3    H177285   0.543   2.143   1.539 -1.4251 -0.1220 -0.7471
18598TIP3    H277286   0.610   2.257   1.613  0.4704 -1.1694 -0.7704
18599TIP3   OH277287   3.018   6.098   5.704 -0.6195 -0.5272 -0.0621
18599TIP3    H177288   3.027   6.188   5.735  1.4236 -0.5202 -0.5188
18599TIP3    H277289   3.044   6.102   5.612 -0.3646 -1.6001 -0.0465
18600TIP3   OH277290   0.978   1.942   0.363  0.2582  0.1808  0.0500
18600TIP3    H177291   1.047   1.884   0.393  1.5151  2.5563  2.1928
18600TIP3    H277292   0.956   1.994   0.441 -2.7667  0.6874 -1.0052
18601TIP3   OH277293   1.720   0.657  13.885 -0.2256 -0.2542  0.1128
18601TIP3    H177294   1.632   0.676  13.854  0.0568  0.5170 -0.2287
18601TIP3    H277295   1.764   0.742  13.886  0.1401 -0.4397  1.4818
18602TIP3   OH277296   1.502   5.344  12.327 -0.1695  0.3916 -0.2320
18602TIP3    H177297   1.457   5.340  12.243 -1.1349  1.4187  0.2142
18602TIP3    H277298   1.453   5.285  12.384  0.5759 -0.4233 -0.4106
18603TIP3   OH277299   0.099   3.335  13.837  0.0013  0.4540  0.7965
18603TIP3    H177300   0.025   3.351  13.896 -0.4483  2.2989 -0.1991
18603TIP3    H277301   0.160   3.406  13.856 -0.3677  1.3823 -1.2495
18604TIP3   OH277302   5.067   0.924  13.835  0.1917 -0.1230  0.4550
18604TIP3    H177303   4.988   0.951  13.880  0.4569 -1.8022  2.0413
18604TIP3    H277304   5.040   0.851  13.780  0.5926 -0.6420  0.9297
18605TIP3   OH277305   6.669   3.117  14.051  0.0742 -0.5054 -0.3010
18605TIP3    H177306   6.751   3.071  14.067 -0.6380 -1.6164  0.2660
18605TIP3    H277307   6.696   3.205  14.026  1.4252 -0.5798  0.7470
18606TIP3   OH277308   2.475   6.491   6.144  0.4489  0.4863 -0.4444
18606TIP3    H177309   2.473   6.475   6.238  0.2460 -1.4336 -0.7439
18606TIP3    H277310   2.567   6.503   6.123  0.7444 -1.3867 -0.3314
18607TIP3   OH277311   2.146   0.279   3.338 -0.5006 -0.9624 -0.4853
18607TIP3    H177312   2.185   0.274   3.425 -1.6185 -0.4540  0.0706
18607TIP3    H277313   2.213   0.245   3.279  1.5304  1.5910  0.1692
18608TIP3   OH277314   5.101   3.053   0.264  0.0481 -0.2516  0.7984
18608TIP3    H177315   5.182   3.099   0.288 -0.0482  1.3061 -1.4839
18608TIP3    H277316   5.130   2.984   0.205 -0.2906  1.2812 -1.2975
18609TIP3   OH277317   2.207   5.997   1.868  0.1384  0.1829 -0.6351
18609TIP3    H177318   2.170   6.081   1.842  0.9070  0.0147 -2.4801
18609TIP3    H277319   2.152   5.931   1.826  1.5947 -0.0971 -2.2431
18610TIP3   OH277320   4.305   3.654   0.700  0.1119 -0.4202  0.3395
18610TIP3    H177321   4.313   3.651   0.795 -0.0164 -0.2449  0.3561
18610TIP3    H277322   4.320   3.564   0.672  1.2078 -0.2727  0.4411
18611TIP3   OH277323   3.170   3.652  15.116 -0.1601  0.0356  0.8070
18611TIP3    H177324   3.216   3.735  15.105  0.1280 -0.2792 -0.5139
18611TIP3    H277325   3.095   3.657  15.057 -2.3048  0.8180  3.4231
18612TIP3   OH277326   3.117   5.303  16.304 -0.3719 -0.0434  0.0549
18612TIP3    H177327   3.160   5.273  16.384 -1.2934 -0.1883  0.5087
18612TIP3    H277328   3.060   5.230  16.280 -0.1982  0.0553 -0.6665
18613TIP3   OH277329   6.537   2.222  16.442 -0.3893 -0.1742  0.5109
18613TIP3    H177330   6.592   2.244  16.367  2.9322 -1.0525  2.4767
18613TIP3    H277331   6.481   2.151  16.410  0.1564  0.1924 -1.4042
18614TIP3   OH277332   5.030   3.383   1.628 -0.0327  0.4702 -0.8623
18614TIP3    H177333   5.021   3.288   1.618 -0.6626  0.1796  1.6690
18614TIP3    H277334   5.122   3.397   1.648 -0.1628  0.2031 -0.0114
18615TIP3   OH277335   0.678   2.612  16.059  0.0591  0.0225 -0.1223
18615TIP3    H177336   0.668   2.707  16.067 -0.0246  0.2044 -1.9325
18615TIP3    H277337   0.733   2.600  15.982 -2.5393 -1.4109 -1.9020
18616TIP3   OH277338   2.750   3.720   6.077  0.4476 -0.0247 -0.1371
18616TIP3    H177339   2.835   3.707   6.120 -1.0587  0.5240  3.3311
18616TIP3    H277340   2.742   3.814   6.067  0.1531 -0.0609 -0.2420
18617TIP3   OH277341   3.516   2.936   4.162 -0.1149 -0.3368  0.0209
18617TIP3    H177342   3.441   2.877   4.165  0.8425 -1.6626 -1.0514
18617TIP3    H277343   3.477   3.024   4.159 -1.6201 -0.9908 -0.5390
18618TIP3   OH277344   5.964   0.805  10.807  0.0899  0.2137 -0.4743
18618TIP3    H177345   5.897   0.827  10.743 -0.3397 -0.4305 -0.2593
18618TIP3    H277346   5.915   0.775  10.883  0.5665  1.4661  0.3693
18619TIP3   OH277347   3.932   6.589   0.618 -0.3050 -0.0973 -0.1271
18619TIP3    H177348   3.917   6.660   0.680 -2.5522 -0.9084  0.3801
18619TIP3    H277349   3.913   6.510   0.669  1.0591 -1.0204 -0.9792
18620TIP3   OH277350   5.503   0.071   2.301  0.3391  0.4002 -0.2316
18620TIP3    H177351   5.508   0.159   2.339 -0.9587 -0.2060  1.4994
18620TIP3    H277352   5.424   0.073   2.247 -0.1216  0.1092  0.4160
18621TIP3   OH277353   6.754   4.338  10.939  0.0527  0.0907 -0.6098
18621TIP3    H177354   6.765   4.358  10.846 -1.6920  1.2537 -0.6105
18621TIP3    H277355   6.725   4.420  10.978 -1.4193 -0.9273  0.5441
18622TIP3   OH277356   4.667   4.788   6.600 -0.5205 -0.1211  0.5283
18622TIP3    H177357   4.644   4.705   6.560 -2.3435 -0.5610  2.3444
18622TIP3    H277358   4.761   4.796   6.585 -0.1526 -2.8489  0.8916
18623TIP3   OH277359   0.802   4.271  15.745 -0.1982  0.2574 -0.0984
18623TIP3    H177360   0.725   4.287  15.799 -0.9404  0.5229 -1.1881
18623TIP3    H277361   0.831   4.359  15.718  0.1796  0.1310 -0.1139
18624TIP3   OH277362   2.704   0.764  11.962  0.0115  0.7490 -0.1207
18624TIP3    H177363   2.778   0.703  11.961  0.8920  1.7433  1.0682
18624TIP3    H277364   2.651   0.735  12.037  1.8202  2.9058  2.1788
18625TIP3   OH277365   1.541   6.383   4.767  0.4493  0.3302  0.5754
18625TIP3    H177366   1.489   6.327   4.825  2.5695 -0.7093  1.5770
18625TIP3    H277367   1.554   6.464   4.818  0.0830  0.4744  0.4442
18626TIP3   OH277368   1.484   3.448  14.797 -0.0711  0.0303 -1.0290
18626TIP3    H177369   1.424   3.472  14.727 -2.1662  0.1488  0.7091
18626TIP3    H277370   1.465   3.510  14.868  1.0897 -0.8414  0.0982
18627TIP3   OH277371   6.816   2.251  17.141  0.2409 -0.3392 -0.1566
18627TIP3    H177372   6.840   2.172  17.093  0.1123  0.0272 -0.8482
18627TIP3    H277373   6.808   2.224  17.232 -1.1155 -1.4151 -0.5644
18628TIP3   OH277374   3.504   5.661  12.925 -0.1057 -0.1664  0.6763
18628TIP3    H177375   3.410   5.679  12.933 -0.0174  0.6016  0.1215
18628TIP3    H277376   3.530   5.634  13.013 -0.5934  0.9307  1.1776
18629TIP3   OH277377   2.060   2.574  14.625 -0.6788 -0.3394 -0.5472
18629TIP3    H177378   2.113   2.496  14.634  2.3079  1.7478  2.0050
18629TIP3    H277379   1.982   2.556  14.677  0.2966 -1.3507  0.6122
18630TIP3   OH277380   5.499   5.329   2.260 -0.0206 -0.9986  0.1151
18630TIP3    H177381   5.487   5.348   2.353 -0.1518 -1.4882  0.2001
18630TIP3    H277382   5.575   5.271   2.257 -0.6103 -1.7783  0.0117
18631TIP3   OH277383   1.177   0.255  11.484 -1.3480 -0.1770 -0.3719
18631TIP3    H177384   1.249   0.294  11.533  0.2024 -2.7710 -0.3914
18631TIP3    H277385   1.187   0.288  11.395 -1.0090  0.5322 -0.0751
18632TIP3   OH277386   5.354   2.421   3.978 -0.2354 -0.7513  0.0825
18632TIP3    H177387   5.386   2.413   3.888 -1.9631 -0.0840 -0.6232
18632TIP3    H277388   5.295   2.346   3.989 -1.6833  0.3086 -0.1066
18633TIP3   OH277389   1.128   6.459   2.737 -0.0377  0.0616  0.1189
18633TIP3    H177390   1.086   6.397   2.797  2.9296  0.4049  2.8746
18633TIP3    H277391   1.151   6.406   2.660 -0.7549 -1.3593  0.8449
18634TIP3   OH277392   2.476   6.239  14.252 -0.5157 -0.6416 -0.1874
18634TIP3    H177393   2.495   6.194  14.334 -1.1744 -1.2083 -0.3429
18634TIP3    H277394   2.530   6.194  14.187 -0.9897 -1.0488 -0.2996
18635TIP3   OH277395   0.040   2.767  16.078  0.2307 -0.3370 -0.6089
18635TIP3    H177396   0.075   2.736  15.994  0.7029 -0.0645 -0.5161
18635TIP3    H277397   0.097   2.729  16.144  0.6749  0.5269 -0.4815
18636TIP3   OH277398   3.512   2.480  14.805 -0.4582 -0.3756 -0.1925
18636TIP3    H177399   3.528   2.506  14.714  0.7239  0.0447  0.1228
18636TIP3    H277400   3.592   2.502  14.851 -1.1387 -0.3395  1.0208
18637TIP3   OH277401   3.517   3.793  16.641 -0.5743  0.2707  0.3265
18637TIP3    H177402   3.606   3.769  16.664 -1.2572 -1.1784  1.5835
18637TIP3    H277403   3.466   3.713  16.652 -2.3326  1.4395  1.2676
18638TIP3   OH277404   6.485   4.967  12.716  0.0389  0.0357  0.6533
18638TIP3    H177405   6.434   4.891  12.687  0.0416  0.3654 -0.2502
18638TIP3    H277406   6.420   5.038  12.722  0.0443 -0.0194  1.4463
18639TIP3   OH277407   1.314   6.598   4.336 -0.2080 -0.2306 -0.5597
18639TIP3    H177408   1.354   6.513   4.349  0.6739 -0.2907 -3.0902
18639TIP3    H277409   1.383   6.661   4.355 -0.1519 -0.1685 -0.9685
18640TIP3   OH277410   6.581   0.316  14.711 -0.4251  0.5305  0.1223
18640TIP3    H177411   6.502   0.361  14.683  0.4899  1.7959 -0.4761
18640TIP3    H277412   6.613   0.367  14.786 -1.2491 -1.1444  1.7198
18641TIP3   OH277413   0.843   6.541   3.220 -0.9632  0.3122  0.0945
18641TIP3    H177414   0.925   6.502   3.190 -1.2161 -1.5053  1.5407
18641TIP3    H277415   0.866   6.585   3.302 -1.2861  0.3876  0.1454
18642TIP3   OH277416   3.839   1.776   2.538 -0.3415 -0.2982  0.3368
18642TIP3    H177417   3.882   1.704   2.492 -0.5772 -0.0762 -0.2453
18642TIP3    H277418   3.888   1.786   2.619  0.4459 -0.3179 -0.1305
18643TIP3   OH277419   3.267   4.357  13.601 -0.1750 -0.0596  0.3221
18643TIP3    H177420   3.222   4.430  13.642 -2.1761 -1.2889  0.4181
18643TIP3    H277421   3.245   4.365  13.508  0.9508  0.3600  0.0743
18644TIP3   OH277422   0.242   6.378   5.820 -0.3699 -0.3963 -0.5717
18644TIP3    H177423   0.273   6.446   5.879 -0.0689  0.2539 -1.4607
18644TIP3    H277424   0.307   6.308   5.829  0.1837  0.0746 -0.8048
18645TIP3   OH277425   4.041   2.812  14.333 -1.0585 -0.4108  0.0536
18645TIP3    H177426   4.081   2.771  14.257 -0.6006 -2.1523  1.1613
18645TIP3    H277427   3.965   2.858  14.299  0.0031  0.1921 -1.6473
18646TIP3   OH277428   1.634   5.014   2.635 -0.1224  0.5195  0.0057
18646TIP3    H177429   1.574   4.946   2.602  1.6158  0.4108 -3.2836
18646TIP3    H277430   1.686   4.969   2.701 -0.1216 -0.9132 -0.9259
18647TIP3   OH277431   5.777   0.114  11.297  0.2040 -0.3294 -0.5042
18647TIP3    H177432   5.733   0.118  11.381 -1.2679  1.1884 -1.2835
18647TIP3    H277433   5.774   0.204  11.264 -1.6752 -1.2897 -3.3293
18648TIP3   OH277434   3.118   4.663  11.742  0.0330 -0.6883  0.4924
18648TIP3    H177435   3.032   4.622  11.727  0.8791 -1.7216 -2.0944
18648TIP3    H277436   3.129   4.723  11.669  1.2072  0.0010  1.2099
18649TIP3   OH277437   4.234   3.975   5.860  0.7192  0.0597  0.0864
18649TIP3    H177438   4.249   3.888   5.898 -0.3982 -0.8848 -1.4939
18649TIP3    H277439   4.140   3.978   5.845  0.8955  1.1000 -0.9159
18650TIP3   OH277440   5.324   3.812  16.912  0.2951  0.3285  0.2708
18650TIP3    H177441   5.317   3.730  16.863  0.7731 -0.6954  1.8233
18650TIP3    H277442   5.382   3.790  16.986  1.1519  2.3069  0.2489
18651TIP3   OH277443   0.498   4.921   3.303  0.1357  0.2663  0.1257
18651TIP3    H177444   0.507   4.950   3.393  2.6002  2.8538 -0.7965
18651TIP3    H277445   0.424   4.971   3.269 -1.2677 -1.2520  0.8194
18652TIP3   OH277446   0.883   1.712   3.150  0.1457 -0.2508 -0.1667
18652TIP3    H177447   0.833   1.727   3.069  0.6033  0.6306 -0.2921
18652TIP3    H277448   0.877   1.794   3.198  1.1852 -0.2445 -0.0230
18653TIP3   OH277449   1.982   1.989  13.781  0.5731  0.3950  0.2868
18653TIP3    H177450   2.044   2.026  13.844  0.8188 -0.0800  0.3261
18653TIP3    H277451   2.008   2.027  13.697  1.2023 -0.1526  0.2326
18654TIP3   OH277452   4.171   4.438  15.564  0.3772  0.2389  0.0594
18654TIP3    H177453   4.132   4.494  15.497  0.9331 -1.0501 -1.4004
18654TIP3    H277454   4.105   4.434  15.633 -1.0927  0.0202 -1.2927
18655TIP3   OH277455   0.141   4.015   2.329 -0.2063  0.0383  0.3294
18655TIP3    H177456   0.074   3.947   2.326 -0.4093 -0.0793  3.9552
18655TIP3    H277457   0.216   3.977   2.281 -1.3463 -1.4156 -0.3789
18656TIP3   OH277458   3.513   4.762   3.376 -0.6070 -0.0769 -0.6060
18656TIP3    H177459   3.561   4.824   3.431 -1.5322 -0.5421  0.7757
18656TIP3    H277460   3.430   4.805   3.357 -1.1502 -0.7643  0.1460
18657TIP3   OH277461   4.654   2.847   4.880  0.0213  0.0042  0.4196
18657TIP3    H177462   4.628   2.934   4.850  0.3706  0.1267  0.4641
18657TIP3    H277463   4.749   2.845   4.867  0.0927 -0.1691  0.9318
18658TIP3   OH277464   3.895   3.662   0.314  0.2062 -0.0256 -0.7352
18658TIP3    H177465   3.833   3.611   0.365 -0.7420  1.1842 -0.6305
18658TIP3    H277466   3.926   3.729   0.375 -1.0607  1.5393 -1.7371
18659TIP3   OH277467   4.629   2.104   3.225 -0.0193  0.1072  0.5800
18659TIP3    H177468   4.623   2.027   3.169  2.9038  0.9848 -1.1164
18659TIP3    H277469   4.549   2.154   3.205 -0.9055 -1.4131  0.1430
18660TIP3   OH277470   0.865   2.361   1.572  0.2481  0.3502 -0.3424
18660TIP3    H177471   0.851   2.267   1.561 -0.3590  0.3331  0.5193
18660TIP3    H277472   0.784   2.393   1.613  0.7387  1.1219  0.0487
18661TIP3   OH277473   1.286   3.569  16.863  0.2119 -0.3177 -0.6618
18661TIP3    H177474   1.340   3.579  16.941 -0.0880  1.7141 -0.6698
18661TIP3    H277475   1.349   3.566  16.791  0.4297  2.9948 -0.7644
18662TIP3   OH277476   5.771   4.080  14.880  0.5223  0.3356 -0.5424
18662TIP3    H177477   5.816   4.007  14.923 -1.6037 -1.0271 -0.4681
18662TIP3    H277478   5.738   4.134  14.952 -2.0650 -1.3342 -0.3688
18663TIP3   OH277479   5.938   4.307   1.830  0.2258  0.1850  0.1162
18663TIP3    H177480   5.955   4.278   1.740 -1.7959 -0.2462 -0.1826
18663TIP3    H277481   5.918   4.227   1.878  0.4343  0.5006  0.7387
18664TIP3   OH277482   0.568   4.120   0.362 -0.1433 -0.3636 -0.0676
18664TIP3    H177483   0.587   4.214   0.361 -0.6737 -0.2509  0.0558
18664TIP3    H277484   0.473   4.115   0.375 -0.1452 -0.9136 -0.2669
18665TIP3   OH277485   5.422   0.007   1.899  0.2939 -0.0031 -0.7853
18665TIP3    H177486   5.510  -0.009   1.935 -0.4761 -0.6381  0.9098
18665TIP3    H277487   5.371  -0.069   1.927 -1.8703  2.2488  1.9620
18666TIP3   OH277488   4.113   2.656   5.754 -0.1620  0.2363 -0.1734
18666TIP3    H177489   4.177   2.613   5.812 -0.4049 -0.5530 -0.4802
18666TIP3    H277490   4.050   2.588   5.733 -0.9505  0.9329 -0.1208
18667TIP3   OH277491   1.847   4.658  13.817 -0.3101 -0.1888  0.0185
18667TIP3    H177492   1.908   4.597  13.777 -1.0537 -0.1740 -1.1831
18667TIP3    H277493   1.870   4.657  13.910 -0.4524 -2.4849  0.0964
18668TIP3   OH277494   3.399   3.378   2.646  0.3691  0.1349 -0.8350
18668TIP3    H177495   3.389   3.471   2.626  0.6642  0.3536 -0.0184
18668TIP3    H277496   3.487   3.356   2.614  0.5681  0.3125 -0.4208
18669TIP3   OH277497   2.722   0.360   2.099  0.3117  0.1379 -0.4484
18669TIP3    H177498   2.642   0.311   2.082  0.2971 -0.0302  0.1126
18669TIP3    H277499   2.730   0.362   2.194  0.3183  1.2017 -0.4580
18670TIP3   OH277500   3.326   0.791   3.664  0.5060 -0.7979 -0.3503
18670TIP3    H177501   3.413   0.761   3.691 -0.1463 -0.7995  2.0163
18670TIP3    H277502   3.270   0.773   3.740 -1.8433 -1.8790 -2.1988
18671TIP3   OH277503   2.142   5.368  12.401  0.7120  0.2029  0.2830
18671TIP3    H177504   2.159   5.333  12.313 -0.4727  1.1836 -0.3658
18671TIP3    H277505   2.084   5.303  12.441  1.7831 -0.5800  0.6158
18672TIP3   OH277506   6.556   5.718  11.603  0.4241 -0.1067  0.0939
18672TIP3    H177507   6.574   5.738  11.511 -2.6434  0.2543 -0.5290
18672TIP3    H277508   6.469   5.755  11.619  1.3803  1.0041  3.5531
18673TIP3   OH277509   4.156   1.951   4.925 -0.1250  0.4283 -0.1875
18673TIP3    H177510   4.132   1.861   4.947 -1.7444  0.6773 -0.8121
18673TIP3    H277511   4.250   1.954   4.939  0.0344 -1.4750 -0.5348
18674TIP3   OH277512   5.718   6.401   4.740 -0.3309  0.3119  0.4253
18674TIP3    H177513   5.719   6.310   4.712 -1.0428 -0.1153  1.6982
18674TIP3    H277514   5.808   6.432   4.726 -0.1440 -0.5065 -0.2354
18675TIP3   OH277515   6.657   6.406  15.874  0.0756  0.6248 -0.0186
18675TIP3    H177516   6.649   6.479  15.934 -1.8324  1.4458 -1.1899
18675TIP3    H277517   6.609   6.433  15.796 -0.7616 -1.8849 -0.4817
18676TIP3   OH277518   6.420   1.381  10.901  0.2767 -0.0892  0.3496
18676TIP3    H177519   6.439   1.376  10.808  0.6131 -0.6136  0.4402
18676TIP3    H277520   6.495   1.340  10.943  1.4760  2.6117  1.0208
18677TIP3   OH277521   3.122   0.214  11.163  0.1476  0.2402 -0.3364
18677TIP3    H177522   3.143   0.264  11.084  0.4379  0.4563 -0.1233
18677TIP3    H277523   3.093   0.129  11.130 -0.3273  0.5338 -0.7075
18678TIP3   OH277524   1.195   1.134  10.845 -0.1688 -0.2585 -0.0148
18678TIP3    H177525   1.243   1.214  10.824 -0.0438 -0.6483 -1.3046
18678TIP3    H277526   1.153   1.109  10.762  0.8045 -2.1990  0.0403
18679TIP3   OH277527   3.122   3.263  15.363  1.0096 -0.1169  0.1356
18679TIP3    H177528   3.125   3.359  15.364 -0.6301 -0.0445  1.0208
18679TIP3    H277529   3.051   3.241  15.423  2.1478 -1.9380  0.8587
18680TIP3   OH277530   0.132   0.637   0.182  0.1380 -0.2944 -0.6205
18680TIP3    H177531   0.172   0.555   0.211  0.1964  0.0873  0.4156
18680TIP3    H277532   0.043   0.635   0.218  0.3879  0.4293  0.0775
18681TIP3   OH277533   2.741   2.783   0.094  0.2805  0.0138  0.0468
18681TIP3    H177534   2.759   2.753   0.183  0.5340 -0.3501 -0.1269
18681TIP3    H277535   2.822   2.825   0.065  0.1826  0.1753  0.0007
18682TIP3   OH277536   4.511   5.915  13.852  0.9492 -0.3999  0.3709
18682TIP3    H177537   4.582   5.977  13.874  0.8902 -1.0042  2.5298
18682TIP3    H277538   4.530   5.838  13.905 -0.7478 -0.9947  0.1519
18683TIP3   OH277539   6.338   3.617  14.955 -0.8229  0.1812 -0.3682
18683TIP3    H177540   6.371   3.698  14.916 -2.3046  1.5415  1.0383
18683TIP3    H277541   6.243   3.628  14.956 -0.9436  0.0352  2.9604
18684TIP3   OH277542   2.318   4.252   2.857 -0.0551 -0.9339 -0.1355
18684TIP3    H177543   2.277   4.211   2.933  0.0296 -0.5723  0.1069
18684TIP3    H277544   2.357   4.179   2.809  0.8177 -1.0598  0.7364
18685TIP3   OH277545   5.033   5.217  11.040 -0.0117 -0.4214  0.1801
18685TIP3    H177546   4.985   5.183  10.964 -0.8259  0.3010  0.3564
18685TIP3    H277547   5.031   5.312  11.029  1.4583 -0.3677  0.1578
18686TIP3   OH277548   0.406   1.090   3.362  0.0652 -0.0489 -1.0653
18686TIP3    H177549   0.445   1.176   3.382 -0.4239  0.1939 -1.1550
18686TIP3    H277550   0.480   1.030   3.366 -0.0492 -0.1516  2.1566
18687TIP3   OH277551   1.380   2.062  16.382  0.2014 -0.1565  0.4642
18687TIP3    H177552   1.415   1.998  16.444 -1.5182 -0.9380  0.6973
18687TIP3    H277553   1.353   2.010  16.306 -1.0283  0.2886  0.5695
18688TIP3   OH277554   1.300   3.857  12.178  0.6256  0.2873 -0.1420
18688TIP3    H177555   1.238   3.892  12.114 -0.8857 -0.2647  0.9638
18688TIP3    H277556   1.261   3.878  12.263  1.0238 -1.6722  0.5743
18689TIP3   OH277557   2.631   4.968  12.011 -0.1965 -0.4261 -0.0924
18689TIP3    H177558   2.656   4.884  11.973  0.0679 -0.8956  1.0632
18689TIP3    H277559   2.550   4.992  11.966  0.3500 -0.7183 -1.2591
18690TIP3   OH277560   5.549   5.273  15.001  0.5824 -0.4796 -0.6971
18690TIP3    H177561   5.495   5.317  14.935  1.0263 -0.4505 -1.0392
18690TIP3    H277562   5.489   5.210  15.042 -0.1458  0.6070 -0.0104
18691TIP3   OH277563   4.769   2.194   3.758 -0.2280  0.1402 -0.1737
18691TIP3    H177564   4.860   2.165   3.751  0.3230  1.7472 -0.2786
18691TIP3    H277565   4.776   2.286   3.784 -1.8266  0.3221 -0.3087
18692TIP3   OH277566   2.527   0.992  15.871  0.2188  0.3370 -0.0354
18692TIP3    H177567   2.532   0.994  15.967 -0.6388 -1.0773  0.0626
18692TIP3    H277568   2.452   1.047  15.850  0.1428  0.2959  0.1284
18693TIP3   OH277569   4.459   2.382  16.241  0.1961 -0.3659 -0.2524
18693TIP3    H177570   4.498   2.347  16.161 -1.5194  0.2229 -1.3974
18693TIP3    H277571   4.368   2.353  16.238 -0.2928  0.9733  0.7039
18694TIP3   OH277572   5.018   0.568   3.430 -0.6801 -0.2742  0.3411
18694TIP3    H177573   5.100   0.576   3.380 -0.2884  0.1483  1.0278
18694TIP3    H277574   4.965   0.642   3.400 -0.9045 -0.6758 -0.2666
18695TIP3   OH277575   0.704   1.611  10.883  0.5506  0.2331 -0.2266
18695TIP3    H177576   0.798   1.608  10.863  0.3982  1.2622 -1.2089
18695TIP3    H277577   0.665   1.547  10.824  0.7076 -0.8443  0.7995
18696TIP3   OH277578   6.295   3.435   1.481  0.6039 -0.3531  0.6226
18696TIP3    H177579   6.321   3.441   1.574  0.1757  1.6977  0.6461
18696TIP3    H277580   6.211   3.390   1.483 -0.2549  1.2117  1.4285
18697TIP3   OH277581   4.709   0.961   2.122 -0.0378  0.0654 -0.1014
18697TIP3    H177582   4.624   0.925   2.147 -0.6044  1.5942  0.3097
18697TIP3    H277583   4.726   1.029   2.187  0.6765  0.9414 -1.1629
18698TIP3   OH277584   4.626   5.856  13.127  0.0237 -1.0999 -0.2350
18698TIP3    H177585   4.705   5.871  13.075  1.0257 -0.6661  1.3359
18698TIP3    H277586   4.644   5.898  13.211 -1.7184 -1.3723  0.3222
18699TIP3   OH277587   3.752   3.706  16.414 -0.4568  0.5036  0.5972
18699TIP3    H177588   3.822   3.641  16.404  0.6505  1.4655  1.7976
18699TIP3    H277589   3.787   3.769  16.477 -1.3604  2.4603 -0.7811
18700TIP3   OH277590   2.278   1.046   4.497  0.3149 -0.2934 -0.0582
18700TIP3    H177591   2.346   1.110   4.475  0.2254 -0.9967 -2.7889
18700TIP3    H277592   2.229   1.034   4.415  0.5960 -4.1162  0.1359
18701TIP3   OH277593   5.430   1.711   1.196 -0.3987 -0.0135  0.0686
18701TIP3    H177594   5.445   1.705   1.101 -3.4098 -1.7791 -0.3979
18701TIP3    H277595   5.489   1.646   1.234 -2.3714 -2.6729 -1.1247
18702TIP3   OH277596   3.058   5.686   0.571  0.3437  0.3556 -0.3220
18702TIP3    H177597   2.987   5.639   0.615  0.4014  0.2286 -0.3625
18702TIP3    H277598   3.122   5.702   0.640  0.2942  0.4308 -0.2945
18703TIP3   OH277599   2.171   4.844  16.486  0.5162 -0.7031 -0.1481
18703TIP3    H177600   2.175   4.940  16.483  2.3040 -0.7495 -0.3276
18703TIP3    H277601   2.077   4.824  16.480  0.1799  0.9230 -4.4074
18704TIP3   OH277602   2.772   5.654   4.216  0.3313 -0.2682 -0.4418
18704TIP3    H177603   2.807   5.717   4.278  0.0860 -0.4610 -0.1044
18704TIP3    H277604   2.847   5.600   4.191  0.6833  0.5741 -1.2492
18705TIP3   OH277605   4.375   6.421   0.600  0.3971  0.0718 -0.0766
18705TIP3    H177606   4.426   6.427   0.680  0.3720 -1.7868  0.1340
18705TIP3    H277607   4.301   6.364   0.623 -1.4637  2.1546 -0.5524
18706TIP3   OH277608   5.119   5.792  12.092 -0.0669  0.3985 -0.7270
18706TIP3    H177609   5.099   5.874  12.046  0.2232  0.6620 -0.3834
18706TIP3    H277610   5.187   5.815  12.154  1.4814 -0.5387 -2.0069
18707TIP3   OH277611   4.695   5.803   4.087  0.2803 -0.3109 -0.0055
18707TIP3    H177612   4.648   5.839   4.163  0.6863  0.5909 -0.1728
18707TIP3    H277613   4.788   5.808   4.112  0.3391 -1.5157  0.0782
18708TIP3   OH277614   2.334   4.084   3.421  0.2523  0.7200 -0.6320
18708TIP3    H177615   2.312   4.112   3.333  0.0178  0.2880 -0.7139
18708TIP3    H277616   2.281   4.006   3.436 -0.0049  1.0113  0.0409
18709TIP3   OH277617   4.237   1.393  14.269 -0.5196 -0.2940 -0.7733
18709TIP3    H177618   4.222   1.339  14.347 -1.3065  2.4819  1.1723
18709TIP3    H277619   4.150   1.403  14.230 -0.1528 -1.5260 -1.9727
18710TIP3   OH277620   3.272   4.233   3.490  0.6155 -0.7827 -0.2593
18710TIP3    H177621   3.241   4.322   3.502 -2.7079 -1.8404  0.1143
18710TIP3    H277622   3.241   4.208   3.403 -0.0654 -2.0965  0.3276
18711TIP3   OH277623   6.335   5.387  11.469  0.2680 -0.9186 -0.1693
18711TIP3    H177624   6.363   5.477  11.452 -0.0288 -0.5606  1.1885
18711TIP3    H277625   6.372   5.365  11.554 -0.0590 -1.9263 -0.2705
18712TIP3   OH277626   4.058   4.487  15.109  0.0289  0.6780 -0.0143
18712TIP3    H177627   3.965   4.462  15.112 -0.0315  0.9444  0.5196
18712TIP3    H277628   4.073   4.514  15.019 -0.2000 -0.1736 -0.3089
18713TIP3   OH277629   1.036   2.433  14.120  0.5683  0.4364 -0.3625
18713TIP3    H177630   1.093   2.475  14.056 -0.4425  0.1674 -1.4879
18713TIP3    H277631   0.992   2.363  14.071  0.6388 -0.5565  0.9355
18714TIP3   OH277632   2.753   1.819  12.089 -0.4392 -0.2747  0.0389
18714TIP3    H177633   2.699   1.764  12.032  0.5875 -0.9616 -0.2799
18714TIP3    H277634   2.825   1.849  12.034 -0.1413  0.1269  0.6319
18715TIP3   OH277635   2.543   5.982  17.115 -0.2977  0.2311  0.5380
18715TIP3    H177636   2.476   5.993  17.048  0.1240 -0.9436 -0.0944
18715TIP3    H277637   2.616   6.035  17.085  0.1524 -0.8416 -0.3170
18716TIP3   OH277638   2.555   2.353   4.917 -0.2547 -0.1145  0.1250
18716TIP3    H177639   2.534   2.288   4.984 -0.1878  0.6651  0.9247
18716TIP3    H277640   2.499   2.428   4.938 -1.0567 -0.2620 -1.3710
18717TIP3   OH277641   5.322   0.547   2.683 -0.1031 -0.5149 -0.0723
18717TIP3    H177642   5.276   0.543   2.600 -0.3026  0.9143 -0.0499
18717TIP3    H277643   5.409   0.510   2.664 -0.1672 -0.2528 -0.8993
18718TIP3   OH277644   3.044   0.510  15.603  0.3209  0.2006  0.4639
18718TIP3    H177645   2.962   0.490  15.558 -0.3780  0.9223  1.4011
18718TIP3    H277646   3.103   0.536  15.532 -0.2785 -0.2265 -0.2108
18719TIP3   OH277647   3.970   3.316  16.852 -0.3593  0.3123  0.7876
18719TIP3    H177648   3.955   3.405  16.821  2.7792  0.6902  0.0883
18719TIP3    H277649   3.928   3.261  16.785 -0.3131  1.2362 -0.0262
18720TIP3   OH277650   2.273   6.660  13.602 -0.2880 -0.6340 -0.2205
18720TIP3    H177651   2.288   6.689  13.692 -0.4359 -2.0647  0.2977
18720TIP3    H277652   2.191   6.701  13.576 -1.1607 -1.5555  0.9441
18721TIP3   OH277653   1.789   5.360   0.568  0.6104 -0.6248 -0.4324
18721TIP3    H177654   1.799   5.380   0.475  0.6413  1.3972 -0.0505
18721TIP3    H277655   1.725   5.424   0.599  0.5051 -1.3573  0.9167
18722TIP3   OH277656   5.830   0.194  13.383  0.2682  0.9367 -0.1508
18722TIP3    H177657   5.777   0.221  13.458  2.4007  1.8029  1.1479
18722TIP3    H277658   5.779   0.220  13.306 -2.7735 -1.5118  0.8758
18723TIP3   OH277659   4.130   1.346  16.707  0.0979  0.0120  0.2602
18723TIP3    H177660   4.162   1.319  16.620 -3.5620 -1.7294 -0.7191
18723TIP3    H277661   4.162   1.278  16.766  1.0448  0.1832 -0.0343
18724TIP3   OH277662   1.849   4.268   2.286  0.2415 -0.3692  0.5626
18724TIP3    H177663   1.843   4.232   2.375 -0.8785 -1.8913 -0.0884
18724TIP3    H277664   1.759   4.267   2.254  0.6341  0.1705 -0.5914
18725TIP3   OH277665   4.643   4.721   4.314  0.4532  0.7028  0.4845
18725TIP3    H177666   4.578   4.790   4.301 -0.4159 -0.4906 -2.3042
18725TIP3    H277667   4.701   4.729   4.238 -0.6481 -2.5213 -0.8743
18726TIP3   OH277668   2.821   5.036   0.868 -0.9616 -0.8481 -0.2900
18726TIP3    H177669   2.763   5.063   0.798 -0.9861 -1.1994 -0.4083
18726TIP3    H277670   2.892   4.988   0.824 -1.5142 -1.9745 -0.0003
18727TIP3   OH277671   4.890   3.095   3.356 -0.0120 -0.2367  0.3644
18727TIP3    H177672   4.820   3.057   3.303  1.2664 -2.6017  0.2311
18727TIP3    H277673   4.970   3.075   3.308  0.8521  1.8813  0.8047
18728TIP3   OH277674   5.251   6.531  11.517  0.1699  0.5953 -0.3665
18728TIP3    H177675   5.214   6.588  11.584 -0.0296 -0.1024  0.1290
18728TIP3    H277676   5.205   6.556  11.436 -0.2380  0.8286 -0.0675
18729TIP3   OH277677   2.383   4.323  13.285  0.0132 -0.5480 -0.1030
18729TIP3    H177678   2.321   4.331  13.212  0.3743  2.9002 -0.2057
18729TIP3    H277679   2.334   4.355  13.361  0.3965 -1.8255  0.7090
18730TIP3   OH277680   4.298   6.107   2.546 -0.5067 -0.1141 -0.1002
18730TIP3    H177681   4.248   6.158   2.482 -2.9646 -1.4045  0.6831
18730TIP3    H277682   4.281   6.016   2.523  0.3834 -0.5999  1.0695
18731TIP3   OH277683   6.185   0.405   4.995 -0.6162 -0.0981 -0.1243
18731TIP3    H177684   6.240   0.369   5.065 -0.6988  0.0079 -0.0029
18731TIP3    H277685   6.201   0.500   4.999 -0.4017 -0.1197 -0.4385
18732TIP3   OH277686   1.301   3.795  15.365 -0.1091  0.4330 -0.2578
18732TIP3    H177687   1.371   3.824  15.424  1.7094 -1.7285 -1.2036
18732TIP3    H277688   1.339   3.804  15.277 -2.1420  1.9847 -1.0408
18733TIP3   OH277689   5.215   0.725   1.695  0.4416 -0.6526  0.1494
18733TIP3    H177690   5.121   0.725   1.679 -0.3480 -0.5009  3.9243
18733TIP3    H277691   5.250   0.791   1.635 -2.0890  0.4541 -0.2254
18734TIP3   OH277692   3.078   6.429   0.051 -0.3084 -0.1724 -0.2132
18734TIP3    H177693   3.124   6.346   0.053  0.8578  0.4601  1.9018
18734TIP3    H277694   2.985   6.405   0.046 -0.0321 -1.6209  0.9671
18735TIP3   OH277695   3.835   4.566   5.832  0.0538  0.0410  0.3652
18735TIP3    H177696   3.765   4.501   5.827  2.0940 -2.3448  0.7666
18735TIP3    H277697   3.912   4.516   5.861  2.0057  2.4357 -0.3511
18736TIP3   OH277698   3.710   1.990   0.311  0.1654 -0.3556  0.9231
18736TIP3    H177699   3.747   1.910   0.349 -1.0970 -1.2415  0.3575
18736TIP3    H277700   3.677   2.040   0.386  2.4393  0.4793  1.4510
18737TIP3   OH277701   4.174   5.995  14.087  0.0118  0.0202 -0.3486
18737TIP3    H177702   4.135   6.039  14.162 -0.6514  0.7611 -1.1163
18737TIP3    H277703   4.187   5.905  14.116 -0.0186  0.3551  0.7289
18738TIP3   OH277704   0.728   5.531  11.692  0.2784 -0.0383  0.4188
18738TIP3    H177705   0.793   5.460  11.691 -0.4566 -0.7171 -0.0798
18738TIP3    H277706   0.771   5.602  11.644  0.6958 -0.4495  0.1625
18739TIP3   OH277707   3.278   2.009  13.689  0.0690  0.5582 -0.3521
18739TIP3    H177708   3.349   2.015  13.754 -2.4195 -0.6108  2.7250
18739TIP3    H277709   3.236   2.095  13.693 -2.0080 -0.4238  2.2054
18740TIP3   OH277710   4.510   6.245  14.500  0.1880 -0.5010 -0.4359
18740TIP3    H177711   4.476   6.160  14.474 -0.4869 -0.3832  0.0227
18740TIP3    H277712   4.604   6.231  14.513 -0.1829 -1.6321  1.4155
18741TIP3   OH277713   4.733   2.066  12.223  0.1402 -0.3754  0.2822
18741TIP3    H177714   4.711   2.020  12.143 -0.1708 -0.7922  0.6025
18741TIP3    H277715   4.765   1.998  12.282 -0.7870 -0.2660  0.9312
18742TIP3   OH277716   2.871   1.540   2.470  0.5134 -0.0211 -0.3481
18742TIP3    H177717   2.828   1.462   2.433  0.1932  1.0755 -2.4343
18742TIP3    H277718   2.799   1.599   2.492  0.7648 -0.2110  1.0963
18743TIP3   OH277719   6.645   3.419   2.129  0.5231  0.6323  0.5342
18743TIP3    H177720   6.600   3.412   2.214 -2.7165  2.2354 -0.8792
18743TIP3    H277721   6.638   3.331   2.091 -0.3087  0.5236  0.9072
18744TIP3   OH277722   5.177   4.786   3.130  0.0873 -0.0702 -0.3101
18744TIP3    H177723   5.270   4.763   3.135  0.0121 -0.4919 -0.7589
18744TIP3    H277724   5.176   4.881   3.123  0.4310  0.0703  1.1138
18745TIP3   OH277725   2.412   0.786  14.597  0.3877  0.9257  0.4422
18745TIP3    H177726   2.466   0.801  14.674  1.1938  0.7692 -0.0892
18745TIP3    H277727   2.439   0.853  14.535  0.6675  0.2426 -0.1843
18746TIP3   OH277728   6.206   2.526   4.745  0.5631  0.6196 -0.0285
18746TIP3    H177729   6.267   2.591   4.711  0.2780  0.6155 -0.5645
18746TIP3    H277730   6.205   2.541   4.839  0.7434  1.1815 -0.1106
18747TIP3   OH277731   2.810   1.948   4.250  0.1893  0.0556  0.1598
18747TIP3    H177732   2.791   1.859   4.280 -2.6667  1.3339  2.7342
18747TIP3    H277733   2.872   1.982   4.314  0.5671  0.2451 -0.2967
18748TIP3   OH277734   0.956   3.888  15.147 -0.9195  0.1438  0.1846
18748TIP3    H177735   0.914   3.972  15.163 -0.0489  0.4650  0.8630
18748TIP3    H277736   1.025   3.908  15.083 -0.8960 -0.0989  0.1343
18749TIP3   OH277737   4.121   0.557  14.779  0.2936 -0.5261 -0.2694
18749TIP3    H177738   4.056   0.529  14.714  0.0449 -0.3714 -0.0931
18749TIP3    H277739   4.186   0.487  14.780 -1.7176 -2.5736  2.1613
18750TIP3   OH277740   2.510   1.254  12.660 -0.1401  0.6231  0.1086
18750TIP3    H177741   2.489   1.221  12.573 -0.3920 -0.1988  0.4767
18750TIP3    H277742   2.471   1.342  12.662 -2.8600 -0.4971  0.4559
18751TIP3   OH277743   2.307   6.213  15.357 -0.1079 -0.1104  0.8560
18751TIP3    H177744   2.371   6.236  15.424 -0.2119 -1.3430  1.4211
18751TIP3    H277745   2.228   6.189  15.407  0.1928 -2.2630  0.4099
18752TIP3   OH277746   1.337   2.008   3.193 -0.4944  0.4744 -0.3355
18752TIP3    H177747   1.269   1.941   3.198  2.0537 -2.3408  0.0514
18752TIP3    H277748   1.386   1.998   3.275  0.3240  2.4376 -0.5415
18753TIP3   OH277749   6.171   6.784   5.568 -0.2423 -0.0844  0.3531
18753TIP3    H177750   6.087   6.750   5.599 -0.3194 -0.2191 -0.0049
18753TIP3    H277751   6.207   6.715   5.512 -2.0047  1.6901 -3.2804
18754TIP3   OH277752   5.312   0.159   0.024  0.3505  0.5904  0.2914
18754TIP3    H177753   5.235   0.200   0.064  0.9343  3.0945 -0.9265
18754TIP3    H277754   5.286   0.069   0.006 -1.8741  1.0417  0.9892
18755TIP3   OH277755   0.691   6.419  11.617 -0.4600 -0.2075 -0.0324
18755TIP3    H177756   0.700   6.446  11.709  0.5850 -0.2903 -0.0965
18755TIP3    H277757   0.699   6.501  11.568 -0.7490 -0.1965 -0.0593
18756TIP3   OH277758   6.506   0.994   5.755  0.2727  0.0162  0.6084
18756TIP3    H177759   6.538   0.932   5.690  0.8509 -0.9458  1.7847
18756TIP3    H277760   6.573   1.062   5.758  1.3082 -1.0054  1.6676
18757TIP3   OH277761   3.737   5.466  15.441  0.0501 -0.1944 -0.6328
18757TIP3    H177762   3.733   5.561  15.455  0.1635  0.2378 -3.0559
18757TIP3    H277763   3.660   5.432  15.487  0.5401  0.9093  1.1069
18758TIP3   OH277764   4.380   1.534  13.806  0.2819 -0.2128 -0.2169
18758TIP3    H177765   4.359   1.497  13.891 -0.2406  2.2974  0.8222
18758TIP3    H277766   4.303   1.517  13.752  0.2151 -0.9220  0.0864
18759TIP3   OH277767   6.620   5.334  14.974 -0.6786 -0.0188  0.6505
18759TIP3    H177768   6.584   5.257  15.019 -0.5482 -2.0509 -2.4314
18759TIP3    H277769   6.543   5.378  14.937 -0.5277 -1.5237 -1.6709
18760TIP3   OH277770   6.742   5.608  14.005 -0.0452  0.3500 -0.3581
18760TIP3    H177771   6.693   5.535  13.967 -1.6423  0.6705  1.0223
18760TIP3    H277772   6.676   5.664  14.045  1.5320 -0.6613  4.1619
18761TIP3   OH277773   6.155   3.047  11.972 -0.2398 -0.1089 -0.4922
18761TIP3    H177774   6.111   3.055  12.056 -0.1987 -0.2857 -0.4532
18761TIP3    H277775   6.098   2.992  11.919 -0.1308 -0.2303 -0.4853
18762TIP3   OH277776   3.563   1.728  11.773 -0.2672 -0.0719  0.2657
18762TIP3    H177777   3.540   1.810  11.730 -0.4004  0.8578  1.9971
18762TIP3    H277778   3.564   1.663  11.703 -0.3641  1.3598 -1.1213
18763TIP3   OH277779   0.975   5.962   3.503 -0.0660  0.2845  0.0418
18763TIP3    H177780   1.038   5.971   3.431 -1.4653 -0.9285 -1.3845
18763TIP3    H277781   0.890   5.977   3.463 -0.8480  0.1077  1.5741
18764TIP3   OH277782   3.043   3.843   5.430 -0.3783  0.2625  0.3723
18764TIP3    H177783   3.098   3.861   5.506  0.1228  1.4078 -0.2491
18764TIP3    H277784   3.105   3.819   5.360 -0.4669  2.9577 -0.7460
18765TIP3   OH277785   0.027   2.186  14.592  0.0518  0.0273  0.1192
18765TIP3    H177786   0.089   2.200  14.520 -1.1945 -0.2796 -1.0643
18765TIP3    H277787   0.081   2.185  14.671  1.7169 -1.4745 -0.9764
18766TIP3   OH277788   5.556   0.723  15.715  0.3377 -0.2633 -0.7528
18766TIP3    H177789   5.600   0.772  15.784 -1.0880  0.4564 -0.3113
18766TIP3    H277790   5.626   0.692  15.658  1.4858 -0.2622  0.6270
18767TIP3   OH277791   0.639   4.917   3.074  0.3765  0.2889 -0.5033
18767TIP3    H177792   0.568   4.944   3.016 -0.3829 -2.7945 -1.1954
18767TIP3    H277793   0.597   4.905   3.160  0.3387 -0.2496 -0.5945
18768TIP3   OH277794   4.555   0.723  16.600  0.5560 -0.4181 -0.2369
18768TIP3    H177795   4.517   0.635  16.599 -0.9307  0.1469  1.4296
18768TIP3    H277796   4.574   0.741  16.692  1.5092  0.7494 -0.6304
18769TIP3   OH277797   4.923   3.024   2.719  0.1337  0.4012  0.6512
18769TIP3    H177798   4.956   2.936   2.703 -0.7209  0.1194  0.3661
18769TIP3    H277799   5.001   3.079   2.725  0.6554  0.1037 -1.9635
18770TIP3   OH277800   1.775   1.923  12.653  0.5712 -0.5394 -0.1682
18770TIP3    H177801   1.710   1.977  12.700  3.1481  0.3586  2.6978
18770TIP3    H277802   1.727   1.888  12.579 -2.7751  1.2711  0.9095
18771TIP3   OH277803   3.430   5.347   0.672 -0.8377  0.4501  0.5424
18771TIP3    H177804   3.400   5.294   0.746  0.4679 -0.6013  0.3486
18771TIP3    H277805   3.379   5.313   0.598 -0.1423 -0.4269  0.4546
18772TIP3   OH277806   2.484   1.494   1.935 -0.9432 -0.3500  0.0829
18772TIP3    H177807   2.511   1.563   1.875 -0.6843 -0.7516 -0.2637
18772TIP3    H277808   2.537   1.418   1.910 -1.9017 -0.9507 -0.1551
18773TIP3   OH277809   5.336   6.069   0.641 -0.0986 -0.0402  0.1955
18773TIP3    H177810   5.424   6.043   0.612  0.2869 -0.5472  1.7256
18773TIP3    H277811   5.350   6.154   0.684 -0.6406  0.6321 -0.8870
18774TIP3   OH277812   2.165   6.750   3.315 -0.3917  0.3654  0.1438
18774TIP3    H177813   2.078   6.744   3.276  0.0452  1.6031 -1.1121
18774TIP3    H277814   2.213   6.808   3.256  1.2885 -0.2993  0.8102
18775TIP3   OH277815   2.423   2.104  13.663  0.3948 -0.9406  0.2181
18775TIP3    H177816   2.422   2.008  13.668 -2.3052 -1.1204 -1.7532
18775TIP3    H277817   2.331   2.130  13.665  0.9943  1.5505 -0.5520
18776TIP3   OH277818   4.614   2.391  15.765 -0.2863 -0.4692 -0.5157
18776TIP3    H177819   4.681   2.386  15.697 -0.2134  1.5570 -0.6645
18776TIP3    H277820   4.540   2.435  15.723 -0.2950  0.6905  0.6337
18777TIP3   OH277821   2.315   2.777  16.410  0.0557  0.3410  0.6695
18777TIP3    H177822   2.379   2.848  16.410 -0.7101  1.1125 -1.1808
18777TIP3    H277823   2.348   2.714  16.474  0.4194  2.6532  2.9279
18778TIP3   OH277824   5.104   3.215  11.601  1.0433  0.2967 -0.6057
18778TIP3    H177825   5.025   3.265  11.623  0.3333 -0.2642 -1.7712
18778TIP3    H277826   5.170   3.282  11.579  0.4387  0.7526 -1.0718
18779TIP3   OH277827   3.822   0.816   1.238 -0.4333 -0.1226  0.3445
18779TIP3    H177828   3.772   0.881   1.287 -0.1672  2.3650 -2.3512
18779TIP3    H277829   3.913   0.832   1.263 -0.4118  0.2914  0.0266
18780TIP3   OH277830   5.639   6.823   4.446  0.3130  0.2263 -0.2239
18780TIP3    H177831   5.653   6.795   4.537 -0.1188 -0.4997 -0.3710
18780TIP3    H277832   5.661   6.916   4.446 -2.4919  1.0143  1.3136
18781TIP3   OH277833   3.387   4.515  16.687  0.4385  0.0419  0.0868
18781TIP3    H177834   3.338   4.441  16.723 -0.3866  1.0024  1.0010
18781TIP3    H277835   3.417   4.484  16.602  0.0846 -1.3266  0.4252
18782TIP3   OH277836   6.507   0.052   4.560 -0.5923  0.8279  0.3366
18782TIP3    H177837   6.511   0.126   4.621 -1.1466  2.6714 -1.7557
18782TIP3    H277838   6.414   0.037   4.546 -0.5167 -0.8923  1.3687
18783TIP3   OH277839   6.023   2.637   1.100  0.1428  0.6069 -0.2584
18783TIP3    H177840   6.058   2.710   1.151  1.2216  0.4626 -0.7702
18783TIP3    H277841   6.023   2.563   1.161  2.2339  0.2194 -0.6477
18784TIP3   OH277842   3.158   3.626   1.513  0.0289 -0.6431 -0.2376
18784TIP3    H177843   3.112   3.683   1.452 -0.2964 -0.3399  0.2785
18784TIP3    H277844   3.092   3.601   1.577  0.5318 -0.3572  0.4096
18785TIP3   OH277845   6.586   4.057   3.000  1.0768  0.3987  0.2820
18785TIP3    H177846   6.589   4.143   3.041 -0.6328  1.3236 -1.3899
18785TIP3    H277847   6.677   4.037   2.980  1.5411  1.6423  1.0122
18786TIP3   OH277848   0.881   0.803  11.947 -0.2194 -0.0461  0.4266
18786TIP3    H177849   0.928   0.838  12.023  1.5682 -0.0564 -0.6047
18786TIP3    H277850   0.798   0.772  11.982  0.5448 -0.0558  2.3762
18787TIP3   OH277851   5.553   4.684   4.186 -0.6027  0.0392  0.1129
18787TIP3    H177852   5.616   4.665   4.255 -0.3273  0.4800 -0.0181
18787TIP3    H277853   5.533   4.598   4.148 -1.9459 -0.4369  1.7507
18788TIP3   OH277854   0.561   1.732  10.585 -0.3614 -0.3273  0.2946
18788TIP3    H177855   0.526   1.783  10.512  0.9297  0.5024  0.2371
18788TIP3    H277856   0.519   1.646  10.576 -0.7114 -0.0392 -1.0367
18789TIP3   OH277857   5.051   0.592  12.752  0.5864 -0.4933  0.0944
18789TIP3    H177858   4.974   0.584  12.808 -0.3126  1.2795 -0.8258
18789TIP3    H277859   5.069   0.503  12.723 -1.5847 -0.8422 -0.2906
18790TIP3   OH277860   6.020   5.344   3.402  0.6374  0.1563 -0.0630
18790TIP3    H177861   5.989   5.380   3.485 -0.1467 -0.0770 -0.2385
18790TIP3    H277862   6.083   5.276   3.427  0.5152  0.1884  0.3373
18791TIP3   OH277863   1.664   0.149  10.605  0.5624 -0.0985 -0.3077
18791TIP3    H177864   1.701   0.189  10.526 -1.0808  2.3668  0.0642
18791TIP3    H277865   1.592   0.094  10.573 -0.0414  0.8228 -0.5603
18792TIP3   OH277866   3.328   5.346   1.230  0.0054  0.2683 -0.3532
18792TIP3    H177867   3.415   5.387   1.230 -0.3589  1.3179 -3.3364
18792TIP3    H277868   3.343   5.257   1.260  2.0693  0.5059 -0.5354
18793TIP3   OH277869   2.280   2.546   2.981  0.3691  0.3175  0.1742
18793TIP3    H177870   2.268   2.635   3.016 -1.4071  0.2601 -0.2409
18793TIP3    H277871   2.309   2.495   3.057 -0.8878  0.7660  0.9894
18794TIP3   OH277872   4.935   1.216   3.503  0.5904  0.1069 -0.1745
18794TIP3    H177873   4.938   1.136   3.451  0.2762 -0.3536  0.4937
18794TIP3    H277874   4.983   1.194   3.583 -1.4674 -0.2116  1.0403
18795TIP3   OH277875   1.048   3.032   5.037  0.3007  0.0738 -0.5849
18795TIP3    H177876   1.119   3.063   4.980 -1.0370  1.6244 -1.5136
18795TIP3    H277877   1.011   3.112   5.074 -0.3703 -0.7746  0.6318
18796TIP3   OH277878   3.639   2.428  15.964  0.2503 -0.0319 -0.6866
18796TIP3    H177879   3.566   2.487  15.980  0.9338  0.3926  1.0615
18796TIP3    H277880   3.710   2.484  15.934  1.5526  0.5135  2.8879
18797TIP3   OH277881   6.649   3.350   0.920 -0.5060  0.3146 -0.3091
18797TIP3    H177882   6.665   3.408   0.845 -1.7792 -0.7038 -1.4299
18797TIP3    H277883   6.604   3.405   0.984 -0.1453  0.9947 -0.6266
18798TIP3   OH277884   4.413   6.362  12.850  0.3356 -0.6194  0.2064
18798TIP3    H177885   4.383   6.360  12.760 -3.2840  1.4114  1.1522
18798TIP3    H277886   4.455   6.448  12.859  0.3270 -0.6491  0.5373
18799TIP3   OH277887   2.903   2.957  13.969  0.1127 -0.1852 -0.6929
18799TIP3    H177888   2.991   2.961  13.932  0.9578 -2.2041  0.8580
18799TIP3    H277889   2.886   2.863  13.979 -1.0646  0.1972  1.5568
18800TIP3   OH277890   4.988   3.418   2.169  0.0581 -0.8459  0.3703
18800TIP3    H177891   4.899   3.398   2.139 -0.2565 -0.0074  0.7121
18800TIP3    H277892   5.045   3.370   2.109 -0.5675  0.4833 -1.3960
18801TIP3   OH277893   5.647   4.315  12.641 -0.2711  0.9152  0.0491
18801TIP3    H177894   5.606   4.277  12.563 -1.4316  2.1231  0.0370
18801TIP3    H277895   5.646   4.410  12.625 -0.5120  1.1832  1.5221
18802TIP3   OH277896   2.040   6.677   1.394  0.3448 -0.3164  0.4762
18802TIP3    H177897   2.050   6.609   1.459  0.3248 -0.6190  0.1657
18802TIP3    H277898   2.029   6.630   1.311 -1.6889 -0.0091  0.5031
18803TIP3   OH277899   1.049   0.619  14.459  0.0522 -0.4556  0.0613
18803TIP3    H177900   1.111   0.598  14.528  1.1495 -1.9202 -1.2827
18803TIP3    H277901   1.098   0.679  14.401 -0.8661  0.7904  0.5220
18804TIP3   OH277902   2.864   0.855   2.230 -0.5591  0.0077  0.1232
18804TIP3    H177903   2.844   0.846   2.324  1.8640  0.8227  0.7716
18804TIP3    H277904   2.845   0.768   2.194  0.3962 -0.9336  1.7756
18805TIP3   OH277905   4.255   4.560  15.926 -0.1725  0.6015  0.7656
18805TIP3    H177906   4.317   4.600  15.865 -0.3304  1.4178  1.1217
18805TIP3    H277907   4.280   4.596  16.011  0.9538 -1.5864  1.4448
18806TIP3   OH277908   2.804   1.893   3.802  0.3874  0.2621  0.3130
18806TIP3    H177909   2.807   1.806   3.842  0.7729  0.3739  0.5306
18806TIP3    H277910   2.720   1.929   3.829 -0.3372 -0.5286 -0.8020
18807TIP3   OH277911   0.215   3.983   5.663 -0.4611 -0.5267  0.3297
18807TIP3    H177912   0.188   3.900   5.702 -0.4654 -0.7910 -0.2231
18807TIP3    H277913   0.310   3.982   5.670 -0.4322 -0.7764 -0.0606
18808TIP3   OH277914   5.922   2.971   6.334 -0.0779 -0.3786  0.0066
18808TIP3    H177915   6.008   2.959   6.295 -0.5817 -0.1911 -1.2205
18808TIP3    H277916   5.939   2.993   6.425  1.1153 -2.1494  0.2541
18809TIP3   OH277917   2.945   1.240   4.837  0.3768  0.1294  0.3294
18809TIP3    H177918   2.987   1.275   4.758 -0.4794  0.2779 -0.0823
18809TIP3    H277919   2.916   1.318   4.885 -2.2862  0.0839 -1.0029
18810TIP3   OH277920   0.469   0.040   1.326  0.5024 -0.0825  0.1285
18810TIP3    H177921   0.490  -0.051   1.347  1.4955 -0.0257 -0.5777
18810TIP3    H277922   0.544   0.071   1.275 -0.2194  0.8704 -0.3752
18811TIP3   OH277923   4.904   2.292   5.457 -0.4355 -0.1682  0.0927
18811TIP3    H177924   4.877   2.253   5.374 -0.5011  1.2047 -0.5663
18811TIP3    H277925   4.853   2.373   5.464  0.6059  0.4695  0.7573
18812TIP3   OH277926   4.795   2.668  16.605 -0.0372  0.5879  0.0805
18812TIP3    H177927   4.850   2.665  16.527  0.8982 -0.3753  0.7514
18812TIP3    H277928   4.856   2.668  16.678 -0.8640 -2.2445  0.8998
18813TIP3   OH277929   2.459   0.944  11.984 -0.2660  0.3926  0.0895
18813TIP3    H177930   2.434   0.887  12.057 -1.5569  1.0992  0.2276
18813TIP3    H277931   2.403   1.021  11.993  0.3340  0.9875 -1.0109
18814TIP3   OH277932   3.479   6.364   1.132 -0.0122 -0.3489  0.0944
18814TIP3    H177933   3.496   6.455   1.108 -1.1559  0.2097  1.2908
18814TIP3    H277934   3.533   6.349   1.210 -0.1256 -0.5805  0.1303
18815TIP3   OH277935   4.790   1.035  15.067 -0.2523  0.0937 -0.4410
18815TIP3    H177936   4.865   1.048  15.009  0.6781 -0.0620  0.6969
18815TIP3    H277937   4.816   0.962  15.124 -1.4352 -0.2411 -0.3040
18816TIP3   OH277938   4.002   2.256   0.992  0.6629  0.3101 -0.2295
18816TIP3    H177939   3.941   2.326   1.013 -0.9173 -0.4946 -1.8724
18816TIP3    H277940   3.975   2.225   0.906  2.6349 -0.9290 -0.4783
18817TIP3   OH277941   0.954   3.683   1.800  0.6726  0.0904 -0.3360
18817TIP3    H177942   0.961   3.778   1.802  0.0518  0.1322  1.1207
18817TIP3    H277943   0.892   3.662   1.870  0.1026 -1.3318 -1.2186
18818TIP3   OH277944   1.450   6.042   3.249  0.2050 -0.2756 -0.3544
18818TIP3    H177945   1.517   5.979   3.221 -1.0557 -2.4378  1.1457
18818TIP3    H277946   1.472   6.123   3.202  1.8921 -1.8092 -2.4374
18819TIP3   OH277947   6.469   1.229   4.540  0.3189 -0.1977 -0.3918
18819TIP3    H177948   6.389   1.247   4.589  0.3669 -3.1872  1.0235
18819TIP3    H277949   6.459   1.138   4.512  2.8284 -0.3443 -0.9938
18820TIP3   OH277950   3.106   4.992  12.725  0.5802 -0.0211 -0.5212
18820TIP3    H177951   3.017   4.992  12.761  1.8283 -0.9259  2.9586
18820TIP3    H277952   3.102   4.931  12.652 -1.4299 -0.8818  0.2302
18821TIP3   OH277953   5.993   4.928   4.763 -0.7712  0.1029  0.2394
18821TIP3    H177954   6.041   4.930   4.846 -0.3445 -0.9561  0.0344
18821TIP3    H277955   5.916   4.873   4.782 -0.3058 -0.7312 -0.2465
18822TIP3   OH277956   4.611   1.825   3.169  0.1495 -0.4603  0.4651
18822TIP3    H177957   4.705   1.820   3.185  0.3615 -1.2227 -0.8765
18822TIP3    H277958   4.575   1.746   3.210  0.4080 -1.3217 -0.9285
18823TIP3   OH277959   6.089   1.354  11.981 -0.0010 -0.0660 -0.1024
18823TIP3    H177960   6.089   1.259  11.995 -0.3898  0.0979  1.0859
18823TIP3    H277961   6.051   1.391  12.061 -1.2084  1.0114 -1.1280
18824TIP3   OH277962   5.992   3.997  14.005  0.5416 -0.1843 -0.1695
18824TIP3    H177963   6.033   3.911  14.003 -1.7301 -1.3773 -2.4436
18824TIP3    H277964   5.985   4.023  13.913 -1.9154  0.7837  0.1921
18825TIP3   OH277965   5.360   3.921  13.082 -0.5350  0.2062  0.3760
18825TIP3    H177966   5.279   3.962  13.052 -0.2042 -0.8805 -2.2657
18825TIP3    H277967   5.425   3.946  13.017  0.4114 -1.7975  0.4823
18826TIP3   OH277968   4.534   3.618   6.131  0.1207 -0.9620  0.4626
18826TIP3    H177969   4.600   3.678   6.166 -2.4501  0.7821  2.7474
18826TIP3    H277970   4.537   3.542   6.189  0.0738 -0.8556  0.6034
18827TIP3   OH277971   3.767   4.749  14.358  0.0972  0.6598 -0.0406
18827TIP3    H177972   3.727   4.782  14.278  0.2626  0.1108 -0.3476
18827TIP3    H277973   3.704   4.686  14.392 -0.3574  1.4953  0.7092
18828TIP3   OH277974   3.971   2.455   2.053  0.0435  0.0263 -0.1968
18828TIP3    H177975   3.899   2.506   2.090 -0.1493 -0.2062 -0.2489
18828TIP3    H277976   3.984   2.492   1.966  1.6836  1.7807  0.7106
18829TIP3   OH277977   4.181   2.019   4.073 -0.0485  0.2928  0.1021
18829TIP3    H177978   4.171   2.036   3.979  1.3831 -2.0086 -0.5566
18829TIP3    H277979   4.238   2.090   4.104 -0.2086  0.8545 -0.8454
18830TIP3   OH277980   0.489   3.708  14.329 -0.6014 -0.5454 -0.0684
18830TIP3    H177981   0.511   3.615  14.330  1.7555 -0.1331 -2.2771
18830TIP3    H277982   0.542   3.746  14.399 -1.2106 -0.7861  0.5285
18831TIP3   OH277983   4.184   2.247  11.203  0.4477  0.1031 -0.3297
18831TIP3    H177984   4.103   2.212  11.167  0.2934  0.6300 -0.5002
18831TIP3    H277985   4.247   2.240  11.131 -0.3351  2.9193 -1.4153
18832TIP3   OH277986   0.532   1.333   3.867 -0.3624  0.3532 -0.5432
18832TIP3    H177987   0.614   1.373   3.839  0.0546 -0.8041 -1.0401
18832TIP3    H277988   0.487   1.402   3.917  1.7637  0.3885  1.4571
18833TIP3   OH277989   2.045   0.498   4.731  0.8294 -0.6291 -0.4214
18833TIP3    H177990   2.014   0.466   4.815  0.8942 -0.8075 -0.4653
18833TIP3    H277991   2.011   0.587   4.725  1.0981 -0.5024 -0.0616
18834TIP3   OH277992   1.060   3.286  12.422 -0.0096 -0.1972  0.0674
18834TIP3    H177993   1.055   3.372  12.380  0.4218  0.1466  0.7145
18834TIP3    H277994   0.989   3.235  12.381 -1.0724  0.8462  0.5613
18835TIP3   OH277995   4.948   2.304  16.595 -0.6672 -0.2338 -0.1727
18835TIP3    H177996   4.880   2.366  16.569 -0.7471  0.6888  2.0449
18835TIP3    H277997   4.915   2.219  16.568 -1.7966  0.3863 -0.8431
18836TIP3   OH277998   2.508   1.925  10.688  0.4682  0.0943 -0.1689
18836TIP3    H177999   2.435   1.866  10.705 -0.4722  1.0118 -0.9105
18836TIP3    H278000   2.475   1.987  10.624  2.1224  0.1313 -1.0643
18837TIP3   OH278001   1.730   0.238  10.370  0.5802  0.0668 -0.1838
18837TIP3    H178002   1.752   0.145  10.372 -1.4837 -0.4748 -0.5227
18837TIP3    H278003   1.747   0.265  10.279  0.8566 -0.0554 -0.1685
18838TIP3   OH278004   2.312   0.559  11.146  0.2541  0.1582  0.1477
18838TIP3    H178005   2.391   0.603  11.114  1.1143 -0.4083  1.4017
18838TIP3    H278006   2.294   0.491  11.081 -0.1218  1.2817 -0.9465
18839TIP3   OH278007   1.113   1.404   5.333  0.2784 -0.5818  0.2348
18839TIP3    H178008   1.117   1.402   5.428 -0.9549 -1.1194  0.2961
18839TIP3    H278009   1.178   1.469   5.307  1.1535 -0.9661  1.3961
18840TIP3   OH278010   5.499   5.426  14.577  0.3276  0.1993 -0.5168
18840TIP3    H178011   5.523   5.496  14.638 -1.2345 -0.7449  1.2849
18840TIP3    H278012   5.475   5.352  14.633 -0.7799 -0.8648 -2.2927
18841TIP3   OH278013   4.339   3.220   2.792  0.3467 -0.0429  0.1854
18841TIP3    H178014   4.363   3.127   2.785  0.8438  0.0973 -0.0812
18841TIP3    H278015   4.412   3.260   2.840  0.3921  0.3005 -0.1590
18842TIP3   OH278016   2.238   2.969  16.048 -0.1872 -0.1192  0.3432
18842TIP3    H178017   2.199   2.995  16.132 -0.7712 -0.0534  0.0598
18842TIP3    H278018   2.210   3.037  15.987 -0.6546 -0.7217 -0.1285
18843TIP3   OH278019   3.375   5.998   0.880  0.2846  0.4526 -0.1767
18843TIP3    H178020   3.387   5.985   0.974  2.2096 -1.1532 -0.5781
18843TIP3    H278021   3.380   6.093   0.867 -0.5521  0.7407  1.3600
18844TIP3   OH278022   1.987   6.216   2.805 -0.1912  0.2995  0.2576
18844TIP3    H178023   1.998   6.125   2.834 -1.1650  0.5233  1.3584
18844TIP3    H278024   1.893   6.225   2.790  0.0280  0.8310 -0.9222
18845TIP3   OH278025   5.988   0.882   1.060 -0.1878  0.0196  0.5404
18845TIP3    H178026   5.944   0.841   1.134 -0.5764  0.7844  0.7382
18845TIP3    H278027   6.081   0.868   1.077 -0.3087 -2.9044 -0.6121
18846TIP3   OH278028   3.837   4.346  13.566 -0.0641 -0.3228 -0.6758
18846TIP3    H178029   3.768   4.398  13.606  0.9774 -0.1640  0.9895
18846TIP3    H278030   3.795   4.306  13.489 -1.8224  0.2257 -0.0522
18847TIP3   OH278031   5.988   0.544  16.174 -0.1059  0.6535  0.8722
18847TIP3    H178032   5.898   0.577  16.168 -0.0888  0.5102 -0.9183
18847TIP3    H278033   5.986   0.461  16.126  0.7633  0.1095  1.7320
18848TIP3   OH278034   6.696   4.993   5.288 -0.3989 -0.7188 -0.4161
18848TIP3    H178035   6.760   5.059   5.263 -0.6842  0.1181  0.9907
18848TIP3    H278036   6.621   5.010   5.231 -1.0943  1.2507  0.9765
18849TIP3   OH278037   5.321   3.580   0.211  0.6096 -0.2196 -0.2622
18849TIP3    H178038   5.282   3.498   0.181 -0.0624 -0.4080  1.0255
18849TIP3    H278039   5.246   3.639   0.222  1.1285  0.7190 -1.5757
18850TIP3   OH278040   0.912   3.013   1.447  0.0812 -0.1759  0.4453
18850TIP3    H178041   0.912   3.088   1.388  1.4280 -0.5895 -0.1242
18850TIP3    H278042   0.820   2.998   1.467 -0.4889 -0.4076 -2.0619
18851TIP3   OH278043   0.579   4.757   0.233  0.0231 -0.5522 -0.6457
18851TIP3    H178044   0.670   4.774   0.207  0.5753 -0.9471  0.9217
18851TIP3    H278045   0.562   4.818   0.305 -1.0765 -0.2526 -1.1376
18852TIP3   OH278046   3.535   1.974   0.993  0.2125 -0.1679  0.2672
18852TIP3    H178047   3.574   1.931   0.917  0.2803  0.4686 -0.0608
18852TIP3    H278048   3.490   1.903   1.040  1.3034 -0.8165  0.3681
18853TIP3   OH278049   0.728   2.511   5.940 -0.3964  0.5316 -0.1939
18853TIP3    H178050   0.661   2.556   5.991  0.5806  0.0768  1.5846
18853TIP3    H278051   0.791   2.579   5.916 -0.2804  0.5776  0.2216
18854TIP3   OH278052   2.014   0.413  12.352 -0.2360  0.6312 -0.3560
18854TIP3    H178053   2.054   0.408  12.439  0.7496 -0.1008 -0.8310
18854TIP3    H278054   2.004   0.507  12.336  0.5061  0.8063  0.1327
18855TIP3   OH278055   2.782   1.059   0.455  0.4428 -0.3862  0.1859
18855TIP3    H178056   2.782   0.975   0.502 -1.3706  0.9385  2.7867
18855TIP3    H278057   2.696   1.063   0.413  0.9082 -0.2147 -0.7839
18856TIP3   OH278058   0.867   1.178  13.622 -0.3974 -0.0164 -0.4699
18856TIP3    H178059   0.940   1.226  13.584  0.9719  0.6592  2.7116
18856TIP3    H278060   0.899   1.088  13.632 -0.8292 -0.2428 -1.0541
18857TIP3   OH278061   5.154   5.518  12.109 -0.1311 -0.1000  0.0705
18857TIP3    H178062   5.153   5.604  12.151  0.4212  0.4815 -1.0649
18857TIP3    H278063   5.110   5.460  12.172  0.3469  0.8025  1.2750
18858TIP3   OH278064   3.848   4.080   3.614  0.3415 -0.4739  0.1726
18858TIP3    H178065   3.861   3.995   3.571  0.1183 -0.0070 -0.8589
18858TIP3    H278066   3.756   4.101   3.596  0.7368  0.5868 -0.7463
18859TIP3   OH278067   1.638   1.798   1.513  0.0745  0.3866 -0.4308
18859TIP3    H178068   1.640   1.892   1.498  0.7656  0.4489  0.0247
18859TIP3    H278069   1.561   1.784   1.569  0.2720  0.7471 -0.0645
18860TIP3   OH278070   6.642   4.185  12.907  0.1915  0.5030 -0.0196
18860TIP3    H178071   6.654   4.145  12.821  0.4900  3.4536 -1.5026
18860TIP3    H278072   6.564   4.144  12.943 -0.5033 -0.1461 -2.1395
18861TIP3   OH278073   3.918   2.083   5.040 -0.0202  0.1269 -0.5084
18861TIP3    H178074   3.888   2.042   5.121 -0.2360 -0.0590 -0.6827
18861TIP3    H278075   4.005   2.045   5.025  1.5826  2.6569  1.4614
18862TIP3   OH278076   5.837   3.772  11.721 -0.0686 -0.6702 -0.0086
18862TIP3    H178077   5.824   3.763  11.815  0.9190 -0.6854  0.1424
18862TIP3    H278078   5.754   3.807  11.688 -0.5769 -1.0938  0.7932
18863TIP3   OH278079   3.839   2.054  12.651  0.3812 -0.2753  0.2657
18863TIP3    H178080   3.852   2.138  12.695  0.0687 -0.6576  1.1119
18863TIP3    H278081   3.864   1.989  12.716 -1.4232 -0.8992  0.3916
18864TIP3   OH278082   2.143   0.776   1.704 -0.4195  0.2350  0.0911
18864TIP3    H178083   2.189   0.693   1.716 -2.2144 -0.5444  2.3873
18864TIP3    H278084   2.210   0.836   1.672  1.2548 -1.7455 -0.3077
18865TIP3   OH278085   6.632   6.143  15.657  0.2409  0.2443 -0.6885
18865TIP3    H178086   6.627   6.059  15.704  0.1943  1.1030  0.9088
18865TIP3    H278087   6.710   6.135  15.603  1.3488 -0.1647  0.8814
18866TIP3   OH278088   1.320   0.144  13.600  0.3247  0.7851  0.0158
18866TIP3    H178089   1.277   0.176  13.679  1.0474  1.5801  0.0990
18866TIP3    H278090   1.379   0.215  13.574  0.1570  0.5119 -1.1939
18867TIP3   OH278091   5.841   5.705  16.646 -0.5002 -0.0545 -0.4512
18867TIP3    H178092   5.903   5.692  16.575 -0.5393  0.1553 -0.5255
18867TIP3    H278093   5.860   5.792  16.679 -0.1263 -0.3601  0.1499
18868TIP3   OH278094   3.810   0.788  15.415 -0.5065 -0.4026  0.1291
18868TIP3    H178095   3.739   0.840  15.454 -0.3586 -0.0616 -0.0605
18868TIP3    H278096   3.871   0.773  15.488  0.0865  0.7763 -0.1107
18869TIP3   OH278097   3.850   4.368  15.271 -0.2949  1.0247 -0.3285
18869TIP3    H178098   3.837   4.282  15.309  0.9816  1.0312  0.1905
18869TIP3    H278099   3.766   4.412  15.280 -0.6399  0.2277  0.4271
18870TIP3   OH278100   4.907   5.107  12.626 -0.3497 -0.1146 -0.6071
18870TIP3    H178101   4.983   5.118  12.683  0.1511 -0.1715 -1.2610
18870TIP3    H278102   4.942   5.071  12.545 -1.1395 -0.6390 -0.7320
18871TIP3   OH278103   4.711   4.511  14.938 -0.9790  0.4664  0.1146
18871TIP3    H178104   4.802   4.501  14.910 -0.5858  0.9352  1.1629
18871TIP3    H278105   4.710   4.481  15.029 -1.9535  0.1263  0.0090
18872TIP3   OH278106   4.607   2.575  13.668  0.1476 -0.3513  0.8078
18872TIP3    H178107   4.591   2.666  13.693 -0.8152 -0.1483 -0.4199
18872TIP3    H278108   4.658   2.582  13.588 -1.7360 -0.7938 -0.5073
18873TIP3   OH278109   2.786   2.937  12.267  0.0428 -0.0870  0.1729
18873TIP3    H178110   2.693   2.911  12.267 -0.2935  1.0433 -0.3247
18873TIP3    H278111   2.788   3.017  12.214  1.4733 -0.6605 -0.6905
18874TIP3   OH278112   6.569   4.638   2.030  0.5852 -0.1014 -0.2964
18874TIP3    H178113   6.509   4.656   2.103  1.0168  1.3168 -0.2702
18874TIP3    H278114   6.655   4.633   2.070  0.8390  0.7947 -0.6925
18875TIP3   OH278115   0.325   2.972   2.903  0.1987 -0.5499 -0.2440
18875TIP3    H178116   0.275   2.912   2.959 -2.6918 -0.3265 -2.3354
18875TIP3    H278117   0.357   2.917   2.832  1.2028 -0.3034  0.0025
18876TIP3   OH278118   1.046   3.656  10.889 -0.1135 -0.6873 -0.2931
18876TIP3    H178119   0.992   3.586  10.852 -0.2324 -1.0755  0.5915
18876TIP3    H278120   1.087   3.617  10.966  1.2506 -0.3318 -0.7904
18877TIP3   OH278121   1.837   2.162   5.713 -0.4446 -0.2198  0.1267
18877TIP3    H178122   1.807   2.114   5.790  0.0468  0.6726  0.9044
18877TIP3    H278123   1.767   2.224   5.695 -1.3785 -1.6232 -1.2832
18878TIP3   OH278124   1.817   4.475   1.084  0.2127  0.4236 -0.0080
18878TIP3    H178125   1.792   4.500   0.995 -0.3007  3.5480  0.9061
18878TIP3    H278126   1.868   4.549   1.117  2.0938 -1.4728  1.7021
18879TIP3   OH278127   5.300   0.986   2.899 -0.1277  0.1199 -0.5204
18879TIP3    H178128   5.306   1.024   2.986  0.7527  0.6463 -0.8034
18879TIP3    H278129   5.310   0.892   2.913  1.3932  0.3085 -0.1728
18880TIP3   OH278130   4.315   0.236  16.840  0.5145 -0.3426 -0.0334
18880TIP3    H178131   4.238   0.292  16.834 -0.0462 -0.9806  0.8005
18880TIP3    H278132   4.383   0.291  16.879  0.2893  0.0447 -0.1854
18881TIP3   OH278133   3.648   6.529   5.078 -1.0358  0.2037  0.0390
18881TIP3    H178134   3.738   6.540   5.107 -0.6266 -1.4772 -0.5081
18881TIP3    H278135   3.653   6.464   5.007 -2.8065 -0.8243  0.7928
18882TIP3   OH278136   6.301   5.426  13.738  0.1330  0.0518  0.1981
18882TIP3    H178137   6.309   5.436  13.644 -3.0862  2.9206  0.0345
18882TIP3    H278138   6.321   5.512  13.774 -0.0600 -0.5925  2.0046
18883TIP3   OH278139   1.612   2.684   2.643  0.9609  0.0174 -0.2087
18883TIP3    H178140   1.628   2.670   2.550 -1.0970 -1.4696 -0.4171
18883TIP3    H278141   1.607   2.596   2.681  0.1173  0.5414  0.9778
18884TIP3   OH278142   3.685   4.615   0.666  0.2125 -0.3329 -0.0119
18884TIP3    H178143   3.777   4.590   0.668  0.1246 -0.6318  0.5741
18884TIP3    H278144   3.638   4.533   0.679 -0.0919  0.0725  1.5894
18885TIP3   OH278145   2.884   1.181   3.657 -0.2863 -0.3603  0.0346
18885TIP3    H178146   2.940   1.109   3.686 -0.3321 -0.3136  0.2442
18885TIP3    H278147   2.807   1.138   3.619 -0.4188 -0.4261  0.3658
18886TIP3   OH278148   1.359   3.680  13.976 -0.0306  0.6390  0.3999
18886TIP3    H178149   1.381   3.721  13.892 -1.9762  2.6003  0.7823
18886TIP3    H278150   1.309   3.602  13.952  2.0907 -0.5820 -0.2871
18887TIP3   OH278151   1.737   5.989   2.652  0.8485  0.4129 -0.5532
18887TIP3    H178152   1.659   5.992   2.707  0.8739  0.9311 -0.5429
18887TIP3    H278153   1.771   5.900   2.665  0.6235  0.3921 -0.0537
18888TIP3   OH278154   2.036   0.987   5.358 -0.0089 -0.1712 -0.5624
18888TIP3    H178155   1.971   0.972   5.427  0.2789  1.7052  0.1750
18888TIP3    H278156   2.120   0.981   5.403  0.3488 -1.8920 -1.3769
18889TIP3   OH278157   0.695   1.956   3.961 -0.1494 -0.0787 -0.0951
18889TIP3    H178158   0.630   1.992   3.902  0.1147 -0.5897 -0.7102
18889TIP3    H278159   0.775   1.948   3.908 -0.4374 -2.3945 -0.2932
18890TIP3   OH278160   3.368   1.018  12.887 -0.5624  0.3954 -0.0598
18890TIP3    H178161   3.413   0.981  12.963 -1.7042 -2.4287 -0.6335
18890TIP3    H278162   3.432   1.013  12.816  0.5701  3.2100  0.6363
18891TIP3   OH278163   3.799   5.529   2.555  0.2317 -0.1032 -0.1274
18891TIP3    H178164   3.817   5.602   2.614  0.4999  1.0806 -1.6203
18891TIP3    H278165   3.842   5.454   2.596  0.4588  0.6819  1.1304
18892TIP3   OH278166   4.713   4.798   1.325  0.1960  0.3955 -0.5232
18892TIP3    H178167   4.703   4.727   1.388 -0.9611  0.5671 -0.4823
18892TIP3    H278168   4.681   4.760   1.242  0.1111  0.6877 -0.6252
18893TIP3   OH278169   6.204   5.553   1.026 -0.1443 -0.8383  0.3976
18893TIP3    H178170   6.118   5.513   1.024 -0.2035 -0.8256  1.6889
18893TIP3    H278171   6.228   5.565   0.934 -1.6139 -0.6201  0.0207
18894TIP3   OH278172   5.571   4.872   3.561  0.1271 -0.8197 -0.1923
18894TIP3    H178173   5.627   4.947   3.575  0.1012 -0.7494 -0.4746
18894TIP3    H278174   5.599   4.809   3.628 -1.0448  0.1110  1.2447
18895TIP3   OH278175   4.849   4.073  11.753 -0.2721 -0.1047 -0.0258
18895TIP3    H178176   4.771   4.052  11.701  0.3865 -1.3116 -0.5614
18895TIP3    H278177   4.867   3.993  11.801  0.3804  0.3204  0.4401
18896TIP3   OH278178   1.141   6.818  14.336  0.0675 -0.9641 -0.0907
18896TIP3    H178179   1.098   6.762  14.401 -2.0512 -0.1410 -0.6927
18896TIP3    H278180   1.119   6.778  14.252  0.7075 -0.6367 -0.4179
18897TIP3   OH278181   1.464   0.383  14.878  0.4035  0.3323 -0.1882
18897TIP3    H178182   1.487   0.292  14.859 -1.7081 -0.8465  2.2734
18897TIP3    H278183   1.512   0.404  14.958  1.0497  1.4918 -0.8570
18898TIP3   OH278184   1.857   0.060   2.850 -0.2075 -0.9031 -0.2146
18898TIP3    H178185   1.782   0.090   2.902  0.2416 -1.1755  0.6075
18898TIP3    H278186   1.910   0.139   2.837 -0.0717 -0.9216  0.1838
18899TIP3   OH278187   2.417   6.166   0.432  0.0042  0.9411  0.0768
18899TIP3    H178188   2.449   6.168   0.342  0.1733  0.1442  0.1157
18899TIP3    H278189   2.328   6.199   0.427 -0.6401 -0.8323 -0.6637
18900TIP3   OH278190   0.800   3.256   1.950  0.1186 -0.2762 -0.4073
18900TIP3    H178191   0.836   3.202   2.021 -1.4584 -0.0720  0.6030
18900TIP3    H278192   0.828   3.211   1.870 -0.9392 -2.5267  0.3845
18901TIP3   OH278193   0.353   3.051  12.839 -0.1850 -0.3684  0.1400
18901TIP3    H178194   0.266   3.085  12.815  0.5490  2.4761  1.1376
18901TIP3    H278195   0.363   3.073  12.931  2.1398  0.6938 -0.2973
18902TIP3   OH278196   2.570   1.757  12.718 -0.3304  0.5266 -0.0258
18902TIP3    H178197   2.487   1.776  12.675 -1.9482 -0.4335  2.4331
18902TIP3    H278198   2.584   1.663  12.704  0.5743  0.7617 -0.7644
18903TIP3   OH278199   3.792   3.680   4.811 -0.3900 -0.1705  0.1575
18903TIP3    H178200   3.851   3.658   4.739  0.8743  0.9074  0.8408
18903TIP3    H278201   3.826   3.632   4.886  0.2128  1.1928  0.7842
18904TIP3   OH278202   2.850   2.072  16.496  0.5411  0.0990 -0.5447
18904TIP3    H178203   2.808   2.068  16.581  1.2523  0.5466 -0.1633
18904TIP3    H278204   2.829   2.159  16.462 -1.2611 -0.7002 -1.6528
18905TIP3   OH278205   1.871   3.045  11.964  0.2935 -0.2066 -0.0756
18905TIP3    H178206   1.905   3.017  12.049 -0.3439  1.7808  0.9109
18905TIP3    H278207   1.853   2.964  11.917 -1.3834 -1.4757  2.5179
18906TIP3   OH278208   0.599   3.145  16.207 -0.0464  0.0212 -0.6782
18906TIP3    H178209   0.678   3.180  16.165 -1.2593  2.5245 -1.0778
18906TIP3    H278210   0.536   3.216  16.201 -1.8072 -1.2849  1.1782
18907TIP3   OH278211   1.423   4.681  16.334  0.2939 -0.1767  0.1066
18907TIP3    H178212   1.355   4.652  16.273  0.9560  1.8371 -1.7377
18907TIP3    H278213   1.498   4.624  16.316  1.0051  1.3624 -2.1998
18908TIP3   OH278214   4.851   2.583   0.251  0.2576 -0.6157 -0.2947
18908TIP3    H178215   4.878   2.600   0.161  0.0099 -2.4116 -0.7545
18908TIP3    H278216   4.768   2.536   0.243 -1.0763  1.3723  0.9728
18909TIP3   OH278217   4.111   6.832   5.800  0.3606 -0.2623 -0.0288
18909TIP3    H178218   4.094   6.739   5.786  3.4997 -0.7250 -1.6519
18909TIP3    H278219   4.181   6.833   5.866 -0.0578  0.9850  0.4156
18910TIP3   OH278220   0.106   2.292   2.361  0.1124  0.1227 -0.6599
18910TIP3    H178221   0.155   2.330   2.434  0.9673 -0.3803 -0.9544
18910TIP3    H278222   0.015   2.315   2.378  0.3884  0.6294  0.1805
18911TIP3   OH278223   1.890   6.445  10.679 -0.1496  0.0704 -0.2877
18911TIP3    H178224   1.806   6.409  10.710 -0.7353  0.9908 -0.7675
18911TIP3    H278225   1.949   6.433  10.753 -0.4775 -1.3301 -0.2288
18912TIP3   OH278226   5.892   2.276  14.032  0.1402 -0.3235  0.0526
18912TIP3    H178227   5.985   2.277  14.008  0.1498  0.2007  0.0833
18912TIP3    H278228   5.879   2.193  14.077  1.1754  0.6473  2.3040
18913TIP3   OH278229   5.978   6.350   6.090  0.3379 -0.3136  0.7083
18913TIP3    H178230   6.056   6.391   6.053 -0.5329  1.4218  0.6987
18913TIP3    H278231   5.962   6.397   6.172 -0.8826 -0.4219  0.5508
18914TIP3   OH278232   3.669   2.646  11.330  0.5541  0.4651  0.9480
18914TIP3    H178233   3.721   2.566  11.334 -1.6981 -1.3360 -2.1116
18914TIP3    H278234   3.689   2.683  11.244 -1.4321  0.9743  0.6699
18915TIP3   OH278235   1.258   4.515   2.649 -0.4373 -0.4052  0.1341
18915TIP3    H178236   1.197   4.589   2.645 -0.2748 -0.3006 -3.4072
18915TIP3    H278237   1.202   4.438   2.636 -0.0801 -0.4559 -1.2326
18916TIP3   OH278238   1.716   3.584  13.329  0.4911 -0.3551  0.1141
18916TIP3    H178239   1.741   3.546  13.414 -0.5872  0.7698  0.9642
18916TIP3    H278240   1.764   3.666  13.325  0.1126 -0.1462 -0.1117
18917TIP3   OH278241   4.111   2.709  14.097 -0.1974  0.4738  0.8673
18917TIP3    H178242   4.033   2.698  14.043 -0.7098  2.1337  1.2034
18917TIP3    H278243   4.179   2.738  14.036  0.0554 -0.5459  0.6480
18918TIP3   OH278244   0.906   4.999   5.098 -0.5620  0.4048 -0.4314
18918TIP3    H178245   0.934   5.031   5.012 -2.0331  1.6259 -0.4972
18918TIP3    H278246   0.971   5.035   5.159  2.1585 -2.7360 -1.1771
18919TIP3   OH278247   5.899   1.419   1.836 -1.3670 -0.0596 -0.1469
18919TIP3    H178248   5.819   1.451   1.877 -1.2240 -0.6719  0.6306
18919TIP3    H278249   5.893   1.449   1.745 -1.5898  1.5036  0.3482
18920TIP3   OH278250   4.984   1.561   5.381  0.6015 -0.3882 -0.5205
18920TIP3    H178251   4.963   1.574   5.474 -0.4887 -0.2767 -0.7749
18920TIP3    H278252   4.963   1.645   5.340  0.9126 -0.4954 -0.8970
18921TIP3   OH278253   5.980   0.953   3.839  0.1106  1.1568 -0.3342
18921TIP3    H178254   5.913   0.920   3.899  1.7275 -0.9570  0.4593
18921TIP3    H278255   5.962   1.046   3.831 -2.3470  0.8302  0.5582
18922TIP3   OH278256   2.618   6.132   2.313  0.2931 -0.6031 -0.1280
18922TIP3    H178257   2.609   6.128   2.409 -2.9890 -0.3346 -0.2945
18922TIP3    H278258   2.598   6.044   2.283 -1.3400 -0.1189 -0.6031
18923TIP3   OH278259   1.429   2.123   2.504  0.4860 -0.2064 -0.8101
18923TIP3    H178260   1.337   2.105   2.483  0.6282 -0.7368 -0.9828
18923TIP3    H278261   1.454   2.053   2.563  0.2691  0.9352  0.7029
18924TIP3   OH278262   4.774   2.224   0.025  0.4311 -0.3287  0.3893
18924TIP3    H178263   4.855   2.269   0.001  1.0840 -1.3803  0.5701
18924TIP3    H278264   4.711   2.251  -0.042  0.8650  0.6614  0.3725
18925TIP3   OH278265   3.068   3.526   5.234 -0.1014 -0.2451  0.1792
18925TIP3    H178266   3.140   3.583   5.261 -0.3343 -0.2355  0.8038
18925TIP3    H278267   3.013   3.581   5.179 -0.5818  0.2928  1.1701
18926TIP3   OH278268   3.511   2.640  12.814 -0.0333 -0.4014 -0.2881
18926TIP3    H178269   3.582   2.691  12.853  0.9236 -2.3455  0.6488
18926TIP3    H278270   3.432   2.674  12.856  0.7675 -0.9898  1.8116
18927TIP3   OH278271   1.684   1.577   1.280 -0.7697  0.3097 -0.1662
18927TIP3    H178272   1.717   1.594   1.192 -0.3160 -0.5512 -0.1721
18927TIP3    H278273   1.638   1.657   1.304 -1.1378  0.4563 -1.2892
18928TIP3   OH278274   6.585   3.815  15.824 -0.3867 -0.7102  0.0838
18928TIP3    H178275   6.544   3.884  15.876 -0.8710 -1.8495  1.2697
18928TIP3    H278276   6.526   3.802  15.750 -0.2151  0.2262 -0.2363
18929TIP3   OH278277   6.070   3.941   0.287 -0.5555  0.1507 -0.5208
18929TIP3    H178278   6.039   3.891   0.212  1.6158  0.8704 -1.9944
18929TIP3    H278279   6.124   3.880   0.337 -0.3673  0.2142 -0.6476
18930TIP3   OH278280   2.646   1.414  13.655  0.5259  0.1111  0.4635
18930TIP3    H178281   2.559   1.456  13.650  0.7743  0.6094  0.2478
18930TIP3    H278282   2.675   1.408  13.565  1.6227  1.9025  0.6400
18931TIP3   OH278283   4.747   2.127  15.652 -0.2882  0.5445  0.6582
18931TIP3    H178284   4.742   2.210  15.606  0.3939  1.1310  1.6185
18931TIP3    H278285   4.829   2.131  15.701 -0.1763 -0.7467  0.6218
18932TIP3   OH278286   5.330   1.769   6.103 -0.4075 -0.3786  0.4739
18932TIP3    H178287   5.298   1.822   6.176  1.2469  2.3647 -0.6447
18932TIP3    H278288   5.406   1.723   6.139  0.1278  0.6032  0.6215
18933TIP3   OH278289   5.979   0.249   5.149 -0.4065 -0.5342 -0.7768
18933TIP3    H178290   5.964   0.336   5.187  0.2393 -1.1084  0.8883
18933TIP3    H278291   6.016   0.198   5.220 -1.8337 -2.5252 -1.3655
18934TIP3   OH278292   4.051   6.005  16.665  0.1920  0.4565 -0.1610
18934TIP3    H178293   4.062   6.098  16.644 -0.7241  0.1985 -1.9147
18934TIP3    H278294   4.136   5.978  16.698  0.6310  1.7900 -0.1383
18935TIP3   OH278295   4.780   3.293   4.424 -0.0138 -0.4078  0.1835
18935TIP3    H178296   4.749   3.360   4.486  0.5638 -0.8134  0.9326
18935TIP3    H278297   4.787   3.339   4.341  0.8520  0.6095  0.7896
18936TIP3   OH278298   2.893   4.909  17.128 -0.1804 -0.6554  0.7049
18936TIP3    H178299   2.949   4.954  17.064  0.2930 -0.5555  1.1831
18936TIP3    H278300   2.805   4.938  17.108  0.2236  1.6026  1.8797
18937TIP3   OH278301   2.903   3.268   2.249 -0.0014  0.2515  0.3724
18937TIP3    H178302   2.886   3.362   2.251 -0.6973  0.3358 -3.0421
18937TIP3    H278303   2.995   3.261   2.224 -0.0255  0.0503  0.3342
18938TIP3   OH278304   6.088   5.732  15.369  0.1118  0.2183 -0.7197
18938TIP3    H178305   6.008   5.735  15.317 -0.9727  0.7107  0.8861
18938TIP3    H278306   6.076   5.800  15.435  1.1192 -0.7927  0.5661
18939TIP3   OH278307   4.859   3.135  17.114  0.7175  0.1262  0.1062
18939TIP3    H178308   4.827   3.135  17.024 -0.4977 -1.1495  0.4935
18939TIP3    H278309   4.853   3.043  17.141  2.6690  0.2067  0.9417
18940TIP3   OH278310   6.371   2.622  11.384  0.0258 -0.3364  0.2654
18940TIP3    H178311   6.431   2.687  11.348  0.0551 -0.1907  0.5799
18940TIP3    H278312   6.405   2.603  11.471 -0.2893 -0.3816  0.3783
18941TIP3   OH278313   4.271   0.091   6.018 -0.3550  0.1508  0.4949
18941TIP3    H178314   4.267   0.015   6.075 -0.6612  0.0355  0.3264
18941TIP3    H278315   4.243   0.164   6.073  1.4586  0.4241  1.1029
18942TIP3   OH278316   5.263   2.600   0.780  0.1834 -0.3677  0.5958
18942TIP3    H178317   5.307   2.683   0.796  0.0276 -0.2255  0.2960
18942TIP3    H278318   5.170   2.619   0.786  0.0964 -0.1863 -0.9663
18943TIP3   OH278319   4.962   2.876  15.539 -0.0097  0.0282  0.0490
18943TIP3    H178320   5.044   2.905  15.580 -0.2620 -0.0264  0.6026
18943TIP3    H278321   4.990   2.821  15.466  0.4561  0.6567 -0.2604
18944TIP3   OH278322   2.410   0.279  14.570 -0.6140 -0.4869 -0.3775
18944TIP3    H178323   2.484   0.329  14.534 -0.7963  1.4203  1.6274
18944TIP3    H278324   2.449   0.228  14.641 -1.2207  1.2007  1.2864
18945TIP3   OH278325   5.396   1.456  11.427  0.0818  0.1817 -0.3905
18945TIP3    H178326   5.403   1.504  11.509 -0.7646  1.0885 -0.8206
18945TIP3    H278327   5.301   1.450  11.411  0.2187 -0.4468 -1.0340
18946TIP3   OH278328   6.718   0.376  11.776  0.3010  0.1285 -0.3306
18946TIP3    H178329   6.788   0.368  11.840 -0.3158  1.0106  0.4788
18946TIP3    H278330   6.662   0.300  11.793  0.0877  0.4128  0.2379
18947TIP3   OH278331   0.293   4.511  14.317  0.0308 -0.0409  0.0991
18947TIP3    H178332   0.235   4.540  14.387  2.2926 -0.6656  2.3952
18947TIP3    H278333   0.316   4.421  14.341  1.5836  0.0430 -0.9536
18948TIP3   OH278334   4.235   0.769  14.147 -0.3791 -0.1059 -0.0468
18948TIP3    H178335   4.302   0.824  14.188 -1.1407  0.2908  0.6858
18948TIP3    H278336   4.187   0.731  14.221 -1.1114 -0.1974 -0.5643
18949TIP3   OH278337   6.416   3.311   2.750 -0.2859 -0.1386 -0.2728
18949TIP3    H178338   6.423   3.239   2.814  0.5155  0.2253  0.0698
18949TIP3    H278339   6.323   3.328   2.742 -0.3639  0.4172  1.5020
18950TIP3   OH278340   5.021   6.557   0.013 -0.3721 -0.2281  0.0551
18950TIP3    H178341   4.937   6.589  -0.019  0.0561  0.2411 -0.6242
18950TIP3    H278342   5.070   6.636   0.034 -0.7650 -0.5203  2.2761
18951TIP3   OH278343   5.786   2.276   3.156  0.3717 -0.4130  0.1404
18951TIP3    H178344   5.839   2.214   3.106 -0.6234 -1.7076  0.6461
18951TIP3    H278345   5.777   2.235   3.242  0.6238  0.9685  0.8461
18952TIP3   OH278346   1.399   3.322  11.181  0.4359 -0.1753  1.1677
18952TIP3    H178347   1.481   3.329  11.231  0.8756 -0.8754  0.5708
18952TIP3    H278348   1.364   3.236  11.207  0.9877 -0.8339 -0.1708
18953TIP3   OH278349   2.835   0.735   2.468 -0.2198  0.4028 -0.0608
18953TIP3    H178350   2.914   0.703   2.424 -2.3242 -1.5414 -2.7798
18953TIP3    H278351   2.821   0.673   2.540  0.2837  0.2301 -0.1096
18954TIP3   OH278352   5.665   5.107   1.028 -0.0139 -0.1829  0.3921
18954TIP3    H178353   5.708   5.151   0.955  0.7637  0.6841  1.3209
18954TIP3    H278354   5.589   5.063   0.990  1.1230 -0.8744 -1.1257
18955TIP3   OH278355   3.066   1.899  12.742  0.0600  0.0256 -0.1509
18955TIP3    H178356   2.997   1.863  12.798  1.9393 -2.2684  0.8686
18955TIP3    H278357   3.061   1.994  12.756 -2.4424 -0.1264  0.3604
18956TIP3   OH278358   1.146   2.504  15.960  0.6942  0.5170  0.0429
18956TIP3    H178359   1.150   2.448  15.883 -1.4448 -0.6710  0.7026
18956TIP3    H278360   1.142   2.443  16.034 -0.1024  1.5551  0.8971
18957TIP3   OH278361   1.873   6.832  13.678 -0.1206 -0.3373  0.0716
18957TIP3    H178362   1.877   6.792  13.765 -0.1301 -0.1867  0.1420
18957TIP3    H278363   1.782   6.857  13.667 -0.8555 -3.2768 -1.3141
18958TIP3   OH278364   3.144   0.852  16.966  0.4852 -0.0343  0.2615
18958TIP3    H178365   3.069   0.793  16.957 -0.2085  0.7140  0.9194
18958TIP3    H278366   3.143   0.879  17.058 -0.8653  3.0772 -0.5247
18959TIP3   OH278367   2.392   2.985  16.747  0.8249 -0.0189 -0.3502
18959TIP3    H178368   2.328   2.915  16.733  0.9096 -0.0607 -0.5392
18959TIP3    H278369   2.404   2.988  16.841 -1.1229  1.4605 -0.0733
18960TIP3   OH278370   6.251   5.682  13.830 -0.0400 -0.0772  0.3639
18960TIP3    H178371   6.167   5.641  13.851  1.0115 -2.5410  0.0519
18960TIP3    H278372   6.255   5.758  13.888 -3.3487  1.3827 -1.0536
18961TIP3   OH278373   6.502   4.302  14.993  0.0151  0.0115 -0.2315
18961TIP3    H178374   6.407   4.289  15.005  0.0010  1.4671  1.7270
18961TIP3    H278375   6.508   4.384  14.944  0.2726 -0.6975 -1.4133
18962TIP3   OH278376   5.840   3.996   1.039  0.2977  0.3489  0.6013
18962TIP3    H178377   5.878   3.922   1.086  0.1565 -0.7466 -0.9085
18962TIP3    H278378   5.764   4.022   1.092 -0.3872 -1.4210  0.5632
18963TIP3   OH278379   4.152   1.135  14.393  0.0633  0.6686  0.1241
18963TIP3    H178380   4.134   1.065  14.454  0.8925 -0.3872 -0.8000
18963TIP3    H278381   4.075   1.138  14.336  1.2419 -1.6311 -1.7707
18964TIP3   OH278382   2.480   5.045   4.661 -0.0605  0.5813 -0.1551
18964TIP3    H178383   2.535   5.002   4.728  2.4030  1.6433 -1.3581
18964TIP3    H278384   2.428   5.109   4.710 -0.5366 -0.7033  1.0831
18965TIP3   OH278385   5.484   6.547  11.740 -0.2301  0.5923  0.0255
18965TIP3    H178386   5.526   6.561  11.655  1.6359  0.7701  0.9426
18965TIP3    H278387   5.489   6.632  11.784 -0.7187  0.3694  0.5294
18966TIP3   OH278388   2.968   2.582   5.047  0.3306 -0.4246  0.5505
18966TIP3    H178389   3.060   2.555   5.057  0.8108  0.1532 -1.7000
18966TIP3    H278390   2.920   2.501   5.033  0.3789 -0.7825  2.3116
18967TIP3   OH278391   2.826   5.846  15.540  0.1724  0.4842 -0.3854
18967TIP3    H178392   2.741   5.817  15.572  0.1750  1.5235  0.6198
18967TIP3    H278393   2.806   5.898  15.463 -0.0240 -0.0517 -0.7009
18968TIP3   OH278394   5.304   1.696  16.259 -0.1217  0.0640  0.3437
18968TIP3    H178395   5.283   1.708  16.166 -1.1452 -0.6466  0.4626
18968TIP3    H278396   5.307   1.601  16.271  2.0029  0.1124  0.6393
18969TIP3   OH278397   2.954   5.536  14.777 -0.2431 -0.6390  0.6358
18969TIP3    H178398   3.000   5.620  14.781 -1.5093  0.0710  0.7774
18969TIP3    H278399   2.975   5.494  14.860  1.7436 -1.2208 -0.1146
18970TIP3   OH278400   2.128   5.363  14.369 -0.0537  0.2277 -0.9967
18970TIP3    H178401   2.185   5.286  14.373 -1.5016 -0.8296  1.7101
18970TIP3    H278402   2.075   5.348  14.291  2.4238  0.6540 -2.9025
18971TIP3   OH278403   1.930   3.794  15.545 -0.0005 -0.1944  0.1202
18971TIP3    H178404   1.884   3.731  15.491  0.4172 -0.3264 -0.0912
18971TIP3    H278405   1.969   3.855  15.482 -0.9573  0.6749  0.3482
18972TIP3   OH278406   6.057   4.812   3.843 -0.2990 -0.0801 -0.6589
18972TIP3    H178407   5.979   4.868   3.849  0.2974  0.5715  1.7365
18972TIP3    H278408   6.116   4.861   3.785 -0.0685  1.5019  0.8316
18973TIP3   OH278409   2.164   1.281   0.842  0.4375 -0.1128 -0.0847
18973TIP3    H178410   2.083   1.280   0.790 -0.8103  0.5736  1.7178
18973TIP3    H278411   2.218   1.348   0.802 -0.6484  0.6566 -0.3207
18974TIP3   OH278412   6.005   2.938  16.048  0.3271  0.2146  0.1131
18974TIP3    H178413   6.044   2.864  16.002  0.4557  0.9453 -0.9751
18974TIP3    H278414   6.053   2.942  16.131  1.0392 -0.2671 -0.2636
18975TIP3   OH278415   2.050   5.241   0.758 -0.1916 -0.0541  0.5695
18975TIP3    H178416   2.123   5.253   0.817 -0.2785 -0.4259  0.7582
18975TIP3    H278417   1.974   5.226   0.815 -0.8494  2.4384  0.4511
18976TIP3   OH278418   5.571   5.193   5.821  0.4046 -0.4841 -0.3823
18976TIP3    H178419   5.515   5.127   5.780  1.1417 -0.8320 -0.8547
18976TIP3    H278420   5.639   5.211   5.756 -0.8862  2.2357 -1.0934
18977TIP3   OH278421   5.428   6.723   4.314  0.5527 -0.4154 -0.7318
18977TIP3    H178422   5.445   6.630   4.305  1.8201 -0.2873  0.0895
18977TIP3    H278423   5.506   6.758   4.358 -0.9720  0.5784  1.4117
18978TIP3   OH278424   0.725   3.226  15.533 -0.1760 -0.1777  0.3150
18978TIP3    H178425   0.792   3.175  15.488  1.7643  0.5163  2.2511
18978TIP3    H278426   0.666   3.161  15.571 -0.7517 -0.7985 -1.5485
18979TIP3   OH278427   3.007   6.833   4.303  0.0717 -0.0107 -0.2075
18979TIP3    H178428   2.972   6.858   4.217  0.1848  2.0225  0.2845
18979TIP3    H278429   2.976   6.744   4.316 -1.8385  0.4144 -1.3996
18980TIP3   OH278430   5.687   2.476   2.906 -0.0522  0.3957 -0.6082
18980TIP3    H178431   5.735   2.415   2.963 -1.4238 -0.8599 -0.7382
18980TIP3    H278432   5.695   2.438   2.819 -2.6714 -0.8344 -0.3963
18981TIP3   OH278433   5.299   4.475   2.653  0.3628  0.2849 -0.1310
18981TIP3    H178434   5.312   4.426   2.735 -1.9938 -1.0801 -0.4734
18981TIP3    H278435   5.211   4.512   2.660 -0.0207 -0.1047 -2.1289
18982TIP3   OH278436   6.744   0.268   6.390 -0.3701 -0.3279  0.3025
18982TIP3    H178437   6.730   0.355   6.354  0.1242  0.6467  2.3441
18982TIP3    H278438   6.783   0.218   6.318 -1.5086  0.8214 -1.1944
18983TIP3   OH278439   6.104   3.085   0.309  0.5319  0.0619  0.6488
18983TIP3    H178440   6.149   3.149   0.253  1.6645 -0.8087  0.5232
18983TIP3    H278441   6.103   3.004   0.257 -0.7468 -0.0920  0.8600
18984TIP3   OH278442   2.974   2.052   1.392 -0.3035 -0.6645 -0.0856
18984TIP3    H178443   2.893   2.098   1.370 -0.6729 -0.2064  2.0531
18984TIP3    H278444   3.003   2.090   1.474  0.4032 -2.9376  0.8182
18985TIP3   OH278445   5.727   2.341  10.795  0.5189 -0.3515 -0.2678
18985TIP3    H178446   5.690   2.412  10.742  0.8107  0.4967  0.6505
18985TIP3    H278447   5.688   2.262  10.758  0.3414  0.2547 -1.4423
18986TIP3   OH278448   1.275   0.572   0.089  0.0606 -0.0111 -1.0577
18986TIP3    H178449   1.356   0.592   0.042  0.1306 -0.1356 -0.9899
18986TIP3    H278450   1.243   0.491   0.050 -0.4977  0.4905 -1.6888
18987TIP3   OH278451   2.903   3.314  12.480  0.4667  0.4239 -0.3084
18987TIP3    H178452   2.855   3.391  12.512  0.0750 -0.5871  1.7024
18987TIP3    H278453   2.863   3.295  12.396 -2.0832  0.2016  0.8588
18988TIP3   OH278454   5.572   3.986   1.269  0.1793  0.2757 -0.3277
18988TIP3    H178455   5.556   3.893   1.255 -1.7919  0.4438  0.4736
18988TIP3    H278456   5.520   4.009   1.346 -1.6348  2.5863 -2.0682
18989TIP3   OH278457   4.328   1.780  15.024  0.2981  0.3728  0.9040
18989TIP3    H178458   4.275   1.742  15.094 -1.0660  0.9690  0.2128
18989TIP3    H278459   4.388   1.710  14.999 -0.0187 -0.2499  1.8164
18990TIP3   OH278460   3.453   5.090   3.841 -0.1443 -0.1606  0.0552
18990TIP3    H178461   3.462   5.115   3.933  0.4237 -1.0751  0.2560
18990TIP3    H278462   3.453   5.174   3.794  0.4058  0.2820  0.8160
18991TIP3   OH278463   0.330   1.783  13.889 -0.7195 -0.1695 -0.2626
18991TIP3    H178464   0.421   1.809  13.875 -0.3098 -1.5877 -0.3381
18991TIP3    H278465   0.293   1.852  13.944  0.3531  0.4893 -0.3494
18992TIP3   OH278466   6.618   5.255  16.092 -0.2042 -0.4137 -1.0023
18992TIP3    H178467   6.693   5.196  16.099  0.3847  0.3021 -1.1517
18992TIP3    H278468   6.549   5.202  16.051 -0.4755 -1.6821  0.9678
18993TIP3   OH278469   1.430   4.425  10.585  0.5842 -0.1035 -0.5184
18993TIP3    H178470   1.349   4.468  10.557  1.4937  2.0439 -0.0375
18993TIP3    H278471   1.420   4.335  10.554 -2.4991 -0.2719  0.5758
18994TIP3   OH278472   6.420   6.010   4.098 -0.6434  0.0009 -0.1781
18994TIP3    H178473   6.373   6.093   4.095 -0.8474 -0.0769  0.6105
18994TIP3    H278474   6.510   6.034   4.122 -1.2433 -0.1634  2.5820
18995TIP3   OH278475   4.456   4.251   3.656  0.2896 -0.0453 -0.4844
18995TIP3    H178476   4.406   4.311   3.712 -1.0092 -0.3761 -1.2418
18995TIP3    H278477   4.476   4.177   3.714  0.4078  0.3450 -0.0135
18996TIP3   OH278478   4.670   1.645  13.786 -0.0224  0.5557  0.4508
18996TIP3    H178479   4.583   1.604  13.785  0.3358 -0.2319 -0.5381
18996TIP3    H278480   4.708   1.620  13.871 -0.4589  0.2582  0.5597
18997TIP3   OH278481   5.172   6.262   0.989 -0.3347  0.9879 -0.1372
18997TIP3    H178482   5.104   6.267   0.922  0.0332 -0.6092 -0.6956
18997TIP3    H278483   5.137   6.201   1.054  0.9424 -0.7158 -0.9758
18998TIP3   OH278484   5.774   1.942   5.432  0.7744 -0.8028  0.2601
18998TIP3    H178485   5.752   1.853   5.404 -0.2908 -1.1562  2.1005
18998TIP3    H278486   5.815   1.981   5.355 -2.0671 -1.6542 -1.8759
18999TIP3   OH278487   0.603   0.078  12.296  0.2771 -0.3723 -0.1486
18999TIP3    H178488   0.674   0.063  12.359  0.6570 -0.7676 -0.6622
18999TIP3    H278489   0.640   0.053  12.212 -1.0972 -2.5027 -0.1863
19000TIP3   OH278490   1.279   6.828   5.531 -0.3387 -0.1748 -0.1758
19000TIP3    H178491   1.280   6.774   5.611 -0.9501 -0.8756 -0.6292
19000TIP3    H278492   1.357   6.882   5.538 -0.5238 -0.0315  1.0348
19001TIP3   OH278493   4.456   3.235  10.960 -0.1268  0.2148 -0.1319
19001TIP3    H178494   4.468   3.248  11.054  1.3150  0.6168 -0.3547
19001TIP3    H278495   4.543   3.214  10.927 -0.5816  0.2742 -1.4162
19002TIP3   OH278496   4.029   6.398   1.268  0.0086  0.7012 -0.0699
19002TIP3    H178497   3.950   6.423   1.219  0.8647  0.9363 -1.3835
19002TIP3    H278498   4.095   6.461   1.240  1.0123 -0.3067 -0.0154
19003TIP3   OH278499   0.528   4.018  13.589  0.4190  0.0348 -0.3137
19003TIP3    H178500   0.471   3.946  13.561 -0.9370  1.2732 -0.8353
19003TIP3    H278501   0.575   3.982  13.664 -1.1053 -1.0225  0.2044
19004TIP3   OH278502   5.637   2.406  14.059  0.2471 -0.3131 -0.2154
19004TIP3    H178503   5.730   2.384  14.060  0.5935  1.0939  0.0361
19004TIP3    H278504   5.622   2.441  13.971 -0.1897 -1.0949 -0.4568
19005TIP3   OH278505   0.297   5.576  15.212 -0.5966 -0.0551 -0.0706
19005TIP3    H178506   0.295   5.604  15.120  0.0425  1.6655  0.4029
19005TIP3    H278507   0.369   5.626  15.251 -0.5206 -1.1337  1.2692
19006TIP3   OH278508   2.638   5.153  16.450 -0.2099  0.5981 -0.5548
19006TIP3    H178509   2.663   5.085  16.387 -1.8487 -0.4161 -0.1775
19006TIP3    H278510   2.686   5.230  16.422  0.9001 -0.4405 -1.6436
19007TIP3   OH278511   1.458   2.742  15.566 -0.3334 -0.8986  0.3873
19007TIP3    H178512   1.517   2.706  15.500  0.4491 -0.6087  0.9179
19007TIP3    H278513   1.470   2.686  15.642  0.7325  0.3250  1.1494
19008TIP3   OH278514   1.831   5.701   0.233  0.6484  0.2434  0.3870
19008TIP3    H178515   1.850   5.625   0.177 -2.8940 -1.0124  0.5701
19008TIP3    H278516   1.848   5.670   0.322 -0.5918 -0.3477  0.4448
19009TIP3   OH278517   4.591   1.080  13.672 -0.5457  0.7474 -0.6537
19009TIP3    H178518   4.581   1.174  13.686  0.9082  0.8543 -0.1707
19009TIP3    H278519   4.672   1.072  13.622  0.3258 -0.3323  0.8473
19010TIP3   OH278520   4.366   1.065   1.688 -0.0562  0.0393  0.0076
19010TIP3    H178521   4.384   1.034   1.777 -0.2549 -2.2823 -0.6963
19010TIP3    H278522   4.451   1.098   1.657  0.6236 -1.4507  0.2187
19011TIP3   OH278523   3.631   0.384   1.475  0.3352 -0.5600  0.0374
19011TIP3    H178524   3.710   0.393   1.422  0.7136 -2.0646  0.2950
19011TIP3    H278525   3.591   0.302   1.446 -0.4691 -0.4518  0.7673
19012TIP3   OH278526   4.204   2.767   3.611  0.3917 -0.0874  0.5873
19012TIP3    H178527   4.132   2.830   3.605 -0.1670 -0.8365 -1.3477
19012TIP3    H278528   4.280   2.812   3.575  0.4018  0.0044  0.7199
19013TIP3   OH278529   5.732   1.811   2.388  0.0968 -0.3695 -0.1940
19013TIP3    H178530   5.694   1.744   2.444 -0.2563  1.2084  1.5468
19013TIP3    H278531   5.657   1.853   2.347  0.2277 -0.0715 -0.1301
19014TIP3   OH278532   0.201   3.704   5.754  0.0151  0.0749 -0.4184
19014TIP3    H178533   0.273   3.692   5.816  1.3468  0.9834 -1.7326
19014TIP3    H278534   0.125   3.723   5.810  0.8016 -0.7505  0.9982
19015TIP3   OH278535   4.617   6.383  13.377 -0.3860  0.0252 -0.3264
19015TIP3    H178536   4.629   6.312  13.440  1.5403  0.0163 -0.6603
19015TIP3    H278537   4.585   6.456  13.429  0.5021 -0.1959  0.5559
19016TIP3   OH278538   2.284   1.792  14.433 -0.1929  0.2533  0.2667
19016TIP3    H178539   2.230   1.809  14.356 -1.2614 -1.2100  0.6538
19016TIP3    H278540   2.320   1.704  14.419  1.5199  0.9019  0.3676
19017TIP3   OH278541   4.966   5.649   4.129 -0.6045 -0.7224 -0.0976
19017TIP3    H178542   5.049   5.678   4.167  0.9176 -1.7701 -2.3475
19017TIP3    H278543   4.919   5.608   4.201  2.2003 -2.8191  0.7214
19018TIP3   OH278544   1.611   0.767   0.626 -0.7464 -0.8181 -0.2123
19018TIP3    H178545   1.706   0.752   0.633 -0.8328 -0.8973  1.1336
19018TIP3    H278546   1.604   0.844   0.570  0.1649 -0.4213  0.1824
19019TIP3   OH278547   3.716   3.545  13.057 -0.0824 -0.5659 -0.2693
19019TIP3    H178548   3.809   3.561  13.046 -0.1852  1.8878  1.6362
19019TIP3    H278549   3.684   3.620  13.107 -2.9259 -1.7496 -0.1115
19020TIP3   OH278550   1.023   6.664  14.522  0.0066  0.5934  0.4285
19020TIP3    H178551   1.042   6.577  14.557  0.1456  1.0214  1.4623
19020TIP3    H278552   0.933   6.657  14.489 -0.0763  0.1261  0.7363
19021TIP3   OH278553   3.055   0.928  13.378  0.0015  0.2437  0.2876
19021TIP3    H178554   3.045   1.023  13.378  2.8052  0.6729  2.0433
19021TIP3    H278555   3.046   0.903  13.470 -0.6004 -1.1903 -0.1384
19022TIP3   OH278556   5.592   0.756  13.663 -0.5408  0.2716 -0.3566
19022TIP3    H178557   5.511   0.805  13.673  0.1363  1.2837  0.3106
19022TIP3    H278558   5.615   0.765  13.571 -1.3860 -0.3749 -0.6474
19023TIP3   OH278559   1.922   6.563  11.857 -0.5525 -0.2286  0.1024
19023TIP3    H178560   1.948   6.541  11.768 -1.1482 -2.3695  0.3912
19023TIP3    H278561   2.001   6.597  11.898 -0.1220  0.2033 -1.0534
19024TIP3   OH278562   4.475   4.558  16.415  0.6193 -0.0884 -0.4032
19024TIP3    H178563   4.427   4.483  16.379  0.2786 -0.1665  0.2003
19024TIP3    H278564   4.424   4.585  16.491  2.2242 -1.0708  1.1322
19025TIP3   OH278565   1.855   6.217  15.083 -0.0513  0.0963  0.4147
19025TIP3    H178566   1.821   6.206  15.172 -1.9641 -0.6354 -0.3577
19025TIP3    H278567   1.923   6.151  15.075  0.4315  0.4513  1.4625
19026TIP3   OH278568   1.614   5.886  11.431  0.2334 -0.5844  0.4186
19026TIP3    H178569   1.646   5.905  11.519 -3.4460 -1.3892  2.1049
19026TIP3    H278570   1.655   5.802  11.408  1.6209 -0.1280  1.0692
19027TIP3   OH278571   0.077   2.480  13.161  0.0590 -0.0048  0.3215
19027TIP3    H178572   0.116   2.568  13.158  2.0574 -0.8563 -0.5651
19027TIP3    H278573   0.028   2.479  13.243  0.7288  1.6574  0.7954
19028TIP3   OH278574   1.152   2.807  14.220  0.0830 -0.0298  0.5953
19028TIP3    H178575   1.137   2.773  14.309 -1.0143  0.5276  0.6361
19028TIP3    H278576   1.090   2.879  14.211 -1.7606 -1.7453 -1.5815
19029TIP3   OH278577   3.122   3.939   3.264  0.2880 -0.4867 -0.6748
19029TIP3    H178578   3.116   3.950   3.169 -0.6247 -0.0336 -0.5778
19029TIP3    H278579   3.032   3.949   3.295  0.6466 -0.1368  0.2936
19030TIP3   OH278580   3.696   5.256   3.624 -0.2698  0.1331 -0.2215
19030TIP3    H178581   3.739   5.307   3.555  1.0464  0.6911  0.9585
19030TIP3    H278582   3.754   5.265   3.700 -2.2018  0.4567  1.2991
19031TIP3   OH278583   4.714   6.076   1.882  0.0480  0.1615 -0.4578
19031TIP3    H178584   4.663   6.024   1.944 -2.5098 -0.1037 -2.6004
19031TIP3    H278585   4.722   6.020   1.805  2.8240  0.6025 -0.5829
19032TIP3   OH278586   0.059   1.714   1.801  0.2571  0.3506  0.1509
19032TIP3    H178587   0.150   1.703   1.828  0.4555  0.5267 -0.4287
19032TIP3    H278588   0.030   1.627   1.776  0.6151  0.4672 -0.7132
19033TIP3   OH278589   2.225   4.889   3.453 -0.3536  0.4913  0.2728
19033TIP3    H178590   2.301   4.946   3.439  0.0628  0.2769  1.6038
19033TIP3    H278591   2.240   4.814   3.395  0.8863  0.0389  1.1617
19034TIP3   OH278592   3.818   4.943   6.811  0.8714  0.4384  0.2146
19034TIP3    H178593   3.875   5.013   6.842  2.3675 -0.2630 -0.8271
19034TIP3    H278594   3.868   4.863   6.826 -1.4796 -0.7013  3.0128
19035TIP3   OH278595   5.901   1.917  10.887  0.3594 -0.0378 -0.4945
19035TIP3    H178596   5.928   2.005  10.914  2.5576 -1.2029  1.5118
19035TIP3    H278597   5.984   1.871  10.869 -0.6867 -1.8832 -0.8524
19036TIP3   OH278598   2.854   0.310   2.983  0.8633  0.9382 -0.2513
19036TIP3    H178599   2.768   0.349   2.997 -0.6738 -2.2593  0.2000
19036TIP3    H278600   2.850   0.273   2.895  1.8744  0.9405 -0.3097
19037TIP3   OH278601   2.023   5.895   5.237  0.7461  0.0910  0.0697
19037TIP3    H178602   2.107   5.878   5.194  0.7094 -0.5951  0.2524
19037TIP3    H278603   2.046   5.922   5.326  0.7531 -1.3715  0.5327
19038TIP3   OH278604   1.257   4.551   1.984 -0.3040 -0.0413 -0.0320
19038TIP3    H178605   1.343   4.549   1.943 -0.5708 -0.6979 -0.5684
19038TIP3    H278606   1.197   4.575   1.914 -1.1796 -4.0659 -0.8561
19039TIP3   OH278607   5.999   0.368   0.969 -0.4039 -0.2759 -0.4637
19039TIP3    H178608   6.032   0.294   1.019 -1.8704 -0.2172  0.6581
19039TIP3    H278609   6.053   0.442   0.997 -0.4776 -0.4643  0.1892
19040TIP3   OH278610   3.858   3.098  14.594 -0.0439  0.0434  0.1752
19040TIP3    H178611   3.793   3.156  14.554  0.9798  1.4124  0.4039
19040TIP3    H278612   3.809   3.047  14.659 -1.6265 -1.7958 -2.2799
19041TIP3   OH278613   2.065   3.898  15.342  0.4189 -0.2802  0.2970
19041TIP3    H178614   2.035   3.983  15.311  0.2293 -0.8211 -1.0849
19041TIP3    H278615   2.158   3.896  15.323  0.6455  0.0120  1.3070
19042TIP3   OH278616   4.442   2.955   0.789  0.8079  0.0425 -0.0730
19042TIP3    H178617   4.438   2.959   0.693 -1.3654 -0.7747 -0.0680
19042TIP3    H278618   4.419   3.043   0.818 -0.3344 -0.1781 -0.2954
19043TIP3   OH278619   6.772   5.263   2.444  0.6890 -0.0067  0.3977
19043TIP3    H178620   6.784   5.223   2.530 -0.1477 -1.3338 -0.0868
19043TIP3    H278621   6.708   5.208   2.400 -0.4433  1.8087 -0.3427
19044TIP3   OH278622   2.473   2.503  12.726 -0.2812  0.3717  0.3125
19044TIP3    H178623   2.521   2.429  12.763 -0.2272 -0.0091 -0.4965
19044TIP3    H278624   2.519   2.580  12.758 -0.2295  0.0506  1.0197
19045TIP3   OH278625   3.230   2.989  17.113 -0.3858 -0.5040  0.2077
19045TIP3    H178626   3.201   3.079  17.127 -0.9671 -0.7476  0.6045
19045TIP3    H278627   3.317   2.985  17.153 -0.1191  0.0342 -0.3236
19046TIP3   OH278628   0.516   2.937   5.993 -0.3164  0.3382 -0.0369
19046TIP3    H178629   0.525   3.005   6.060 -4.5291 -0.4454  1.6351
19046TIP3    H278630   0.441   2.965   5.940 -0.5771 -1.7895 -0.8975
19047TIP3   OH278631   5.175   0.027   6.148 -0.0394  0.1542 -0.0675
19047TIP3    H178632   5.141  -0.029   6.079 -0.5457 -0.3418  0.5725
19047TIP3    H278633   5.270   0.010   6.149 -0.1861 -0.7043  0.1192
19048TIP3   OH278634   1.577   6.631  16.864  0.1610  0.0927 -0.3978
19048TIP3    H178635   1.486   6.615  16.889 -0.3600 -0.8566 -2.6662
19048TIP3    H278636   1.577   6.719  16.827  0.1187  0.0169 -0.5803
19049TIP3   OH278637   0.176   6.785  16.151 -0.3522 -0.2968  0.3534
19049TIP3    H178638   0.240   6.852  16.125 -0.6968  0.4328  1.3387
19049TIP3    H278639   0.219   6.738  16.222 -0.1798 -1.0364 -0.2258
19050TIP3   OH278640   2.856   4.145   4.385 -0.6599  0.1894  0.0679
19050TIP3    H178641   2.824   4.187   4.305 -0.9085 -0.6222 -0.2774
19050TIP3    H278642   2.836   4.207   4.455 -0.0570  1.0949 -0.5505
19051TIP3   OH278643   1.856   0.278   1.944 -0.0169 -0.5059  0.0020
19051TIP3    H178644   1.909   0.275   1.864  0.5557 -0.1120  0.3604
19051TIP3    H278645   1.914   0.314   2.010 -1.1327  1.2198  0.0969
19052TIP3   OH278646   2.845   5.915  15.796 -0.1995  0.2177 -0.2023
19052TIP3    H178647   2.900   5.994  15.798 -1.7238  1.3307 -0.0249
19052TIP3    H278648   2.866   5.873  15.712  0.0522  1.2576 -0.6799
19053TIP3   OH278649   2.582   2.762   2.295  0.5415 -0.4104  0.6916
19053TIP3    H178650   2.634   2.840   2.315  0.4576  0.0949 -0.9718
19053TIP3    H278651   2.610   2.698   2.361  0.0455  1.2272  2.6109
19054TIP3   OH278652   1.299   2.766   2.554 -0.0094  0.1312 -0.6057
19054TIP3    H178653   1.311   2.755   2.459  1.6646  1.1693 -0.5545
19054TIP3    H278654   1.388   2.762   2.589 -0.3062  2.5802  0.5989
19055TIP3   OH278655   4.188   5.106   1.338 -0.3807  0.4834  1.2107
19055TIP3    H178656   4.152   5.102   1.427 -0.4748  2.7928  1.3401
19055TIP3    H278657   4.116   5.140   1.285  0.2917  1.0748  0.6612
19056TIP3   OH278658   2.005   3.227  14.742  0.1926 -0.0261 -0.0201
19056TIP3    H178659   1.989   3.188  14.828 -1.0944 -0.1183 -0.2794
19056TIP3    H278660   2.087   3.275  14.752 -1.2500  2.2959  2.1404
19057TIP3   OH278661   4.206   6.193   4.690 -0.3965 -0.0703 -0.1004
19057TIP3    H178662   4.269   6.256   4.724 -0.7757 -0.4289  1.3286
19057TIP3    H278663   4.254   6.110   4.689 -0.8840 -0.4054  1.2743
19058TIP3   OH278664   4.765   6.826   5.302 -0.1479  0.1801 -0.2973
19058TIP3    H178665   4.700   6.805   5.236 -0.9768 -1.8195  1.0681
19058TIP3    H278666   4.716   6.833   5.384  1.3727 -3.2114  1.1367
19059TIP3   OH278667   2.289   4.650   3.329 -0.5492  0.4040  0.2932
19059TIP3    H178668   2.209   4.614   3.290 -0.6189 -0.3440  1.1123
19059TIP3    H278669   2.357   4.633   3.264 -1.0595  1.1165 -0.4455
19060TIP3   OH278670   3.693   0.284   1.110  0.2960  0.2895  0.1790
19060TIP3    H178671   3.676   0.376   1.133  0.0312  0.0655  0.8886
19060TIP3    H278672   3.636   0.234   1.168  1.9237 -0.3964  1.2541
19061TIP3   OH278673   3.400   3.436   6.037  0.4081  0.5712 -0.2457
19061TIP3    H178674   3.341   3.422   5.963 -0.1544  1.6720 -0.0322
19061TIP3    H278675   3.457   3.359   6.037 -0.4783 -0.1147 -0.9722
19062TIP3   OH278676   4.919   2.345   0.564  0.7013 -0.1472 -0.0879
19062TIP3    H178677   4.824   2.357   0.564  0.3050 -2.7373  0.4827
19062TIP3    H278678   4.933   2.268   0.510  2.4610 -0.1140  0.2785
19063TIP3   OH278679   2.144   0.558  15.940  0.1648 -0.0929 -0.3327
19063TIP3    H178680   2.164   0.586  16.030  2.3678 -0.3033 -0.7049
19063TIP3    H278681   2.100   0.473  15.951  0.6895 -0.2702  0.5483
19064TIP3   OH278682   5.991   4.813  13.772  0.4932  0.1279 -0.4796
19064TIP3    H178683   5.969   4.893  13.724  0.0661  0.8525  0.8757
19064TIP3    H278684   5.946   4.743  13.724 -0.4524  0.9132 -0.7767
19065TIP3   OH278685   0.658   6.518   0.138 -0.1339 -0.0270  0.1449
19065TIP3    H178686   0.630   6.609   0.133 -0.1301 -0.0551 -4.9808
19065TIP3    H278687   0.748   6.519   0.106 -1.1108 -1.9951 -3.0732
19066TIP3   OH278688   5.864   1.924   0.719  0.0935 -0.5632 -0.1676
19066TIP3    H178689   5.948   1.885   0.743 -0.4640 -1.4080  0.4595
19066TIP3    H278690   5.887   1.997   0.662  1.4261  1.0655  2.3014
19067TIP3   OH278691   1.713   1.689  15.671  0.2376  0.7752  0.0375
19067TIP3    H178692   1.736   1.624  15.737 -2.3769 -0.5811 -0.2726
19067TIP3    H278693   1.648   1.646  15.616 -0.4854  3.1608 -1.1158
19068TIP3   OH278694   2.459   5.186   3.532 -0.0837 -0.4414 -0.5170
19068TIP3    H178695   2.463   5.159   3.624 -1.6559  0.8847 -0.0014
19068TIP3    H278696   2.484   5.108   3.483  0.3385 -1.3166  1.0262
19069TIP3   OH278697   6.523   2.193  13.151 -0.3181  0.0025 -0.4409
19069TIP3    H178698   6.474   2.265  13.190 -0.8623 -0.9258  0.6482
19069TIP3    H278699   6.457   2.136  13.113 -0.0291 -0.7093  0.0896
19070TIP3   OH278700   3.144   1.194  12.484  0.1845  0.0578 -1.0616
19070TIP3    H178701   3.078   1.218  12.549 -0.5721  2.5500 -2.6309
19070TIP3    H278702   3.093   1.169  12.407  1.0568  0.2479 -1.7114
19071TIP3   OH278703   3.395   2.217  12.202  0.8336  0.0411  0.1213
19071TIP3    H178704   3.322   2.264  12.161  0.3137  1.5953  2.5479
19071TIP3    H278705   3.353   2.148  12.253  1.3265 -0.8524 -0.6579
19072TIP3   OH278706   6.425   1.297  16.122  0.8258  0.6353  0.7387
19072TIP3    H178707   6.359   1.242  16.165  0.6086  1.0251  0.9110
19072TIP3    H278708   6.374   1.367  16.080  1.0616  0.4201  0.0896
19073TIP3   OH278709   2.465   3.383  16.017  0.3009  0.0768  0.0248
19073TIP3    H178710   2.383   3.423  15.991 -0.2142 -0.6990  0.4055
19073TIP3    H278711   2.524   3.396  15.943 -0.4243 -0.0985 -0.5815
19074TIP3   OH278712   1.441   4.247  12.722  0.2108 -0.7552  0.2243
19074TIP3    H178713   1.401   4.314  12.777  2.6401  1.6628 -0.7681
19074TIP3    H278714   1.412   4.267  12.633  0.5377 -1.3884 -0.0342
19075TIP3   OH278715   0.704   5.581  11.166  0.1177 -0.2576  0.3895
19075TIP3    H178716   0.743   5.660  11.129 -2.0620 -0.2993 -2.3037
19075TIP3    H278717   0.615   5.606  11.189 -0.7804 -1.9910 -0.9970
19076TIP3   OH278718   6.077   2.272  14.484  0.0741  0.0205 -0.3447
19076TIP3    H178719   6.129   2.193  14.495 -0.8906 -0.5785  0.1149
19076TIP3    H278720   5.989   2.240  14.464 -0.3493  0.9679 -0.0841
19077TIP3   OH278721   0.115   5.007  12.678 -0.4082  0.2894  0.2870
19077TIP3    H178722   0.154   5.085  12.719 -2.0261  1.2686  0.0255
19077TIP3    H278723   0.042   4.985  12.735  0.2905 -1.3390  0.5978
19078TIP3   OH278724   4.423   5.759  11.986  0.0696 -0.0741  0.8065
19078TIP3    H178725   4.513   5.739  12.013  0.0514 -1.7999 -0.2469
19078TIP3    H278726   4.370   5.692  12.029 -0.3578 -0.7522 -0.7364
19079TIP3   OH278727   4.101   5.034   5.922 -0.4075 -0.1506  0.2108
19079TIP3    H178728   4.107   5.115   5.871  2.4332 -0.1792  0.3532
19079TIP3    H278729   4.016   4.997   5.897 -1.2893  2.2719 -0.7106
19080TIP3   OH278730   3.432   5.349   6.034  0.4905  0.1910  0.8073
19080TIP3    H178731   3.525   5.359   6.014  0.3253 -0.6024 -0.4726
19080TIP3    H278732   3.389   5.357   5.950 -0.4495 -1.1836  1.1377
19081TIP3   OH278733   0.062   1.307  11.597 -0.3975  0.0577  0.0792
19081TIP3    H178734   0.018   1.371  11.542 -1.9884 -0.9836  0.0537
19081TIP3    H278735   0.112   1.359  11.661  1.0193  1.2800 -1.9274
19082TIP3   OH278736   5.078   3.324   5.649  0.0224  0.2575 -0.2472
19082TIP3    H178737   5.109   3.406   5.686 -0.4212 -1.2610  4.0945
19082TIP3    H278738   5.127   3.256   5.695  0.3729 -2.0374 -3.6343
19083TIP3   OH278739   6.007   1.279   0.878  0.1254  0.4011 -0.7382
19083TIP3    H178740   6.040   1.209   0.821 -0.9820 -0.0181 -0.8746
19083TIP3    H278741   5.959   1.337   0.818  0.9634  1.2551 -0.6150
19084TIP3   OH278742   6.185   4.441   5.084 -0.6193 -0.3292 -0.0331
19084TIP3    H178743   6.270   4.420   5.124 -0.9281 -0.7372  0.4216
19084TIP3    H278744   6.121   4.410   5.148 -1.1109  0.2549 -0.2369
19085TIP3   OH278745   0.401   4.541   1.253 -0.2906 -0.2988  0.3398
19085TIP3    H178746   0.310   4.529   1.280 -0.7873 -0.4000 -1.2670
19085TIP3    H278747   0.395   4.592   1.172  1.0649 -0.4881  0.1022
19086TIP3   OH278748   3.027   5.737  10.552  0.2772 -0.7402  0.1482
19086TIP3    H178749   2.937   5.765  10.568  0.1869 -1.2340  0.5359
19086TIP3    H278750   3.077   5.771  10.626 -0.2476 -3.5406  1.9282
19087TIP3   OH278751   6.342   2.420   2.671 -0.2964  0.0745  0.2102
19087TIP3    H178752   6.253   2.388   2.687  0.2423 -1.0055  1.2698
19087TIP3    H278753   6.346   2.504   2.716 -1.1624  0.7715 -0.9695
19088TIP3   OH278754   5.755   6.806  16.978 -0.1459  0.0077  0.3608
19088TIP3    H178755   5.682   6.866  16.958 -1.0422 -1.2644 -0.3301
19088TIP3    H278756   5.714   6.720  16.983  1.0898 -0.5360  1.5715
19089TIP3   OH278757   0.064   2.734  10.712 -0.2919  0.2897 -0.1485
19089TIP3    H178758   0.138   2.675  10.700 -1.7185 -1.2408 -2.1542
19089TIP3    H278759   0.038   2.723  10.804  1.5661  0.4294  0.4208
19090TIP3   OH278760   0.566   1.979   1.465  0.2589  0.6120 -0.6481
19090TIP3    H178761   0.540   1.902   1.515 -0.6610  1.5935  0.4574
19090TIP3    H278762   0.660   1.988   1.480  0.1863  0.2772  0.0242
19091TIP3   OH278763   2.873   1.133  13.302  0.1128 -0.0121 -0.2556
19091TIP3    H178764   2.805   1.161  13.363  0.4167  0.6195 -0.1976
19091TIP3    H278765   2.825   1.093  13.229 -0.2564 -0.6479  0.3343
19092TIP3   OH278766   5.459   5.934   4.734 -0.2313 -0.1335  0.2473
19092TIP3    H178767   5.367   5.961   4.738 -0.7865 -1.2922 -2.2988
19092TIP3    H278768   5.496   5.960   4.818 -2.4662  1.8845  0.7137
19093TIP3   OH278769   2.098   6.261  16.361 -0.0223 -0.0907 -0.2437
19093TIP3    H178770   2.153   6.212  16.300  1.5970  0.2687  0.8535
19093TIP3    H278771   2.148   6.339  16.381 -1.0440  0.3622  0.6471
19094TIP3   OH278772   3.463   5.105   6.669 -0.1648 -0.1814  0.7199
19094TIP3    H178773   3.549   5.146   6.680  0.1629  0.1034 -2.0790
19094TIP3    H278774   3.407   5.177   6.638 -0.7555 -0.8785  0.1492
19095TIP3   OH278775   4.383   2.219   3.134 -0.6523  0.2489  0.3662
19095TIP3    H178776   4.347   2.246   3.050  1.9373 -2.3207 -1.7526
19095TIP3    H278777   4.306   2.213   3.191 -2.8882 -0.1830 -2.4480
19096TIP3   OH278778   0.469   3.006   0.836 -0.0537  0.2431 -0.4219
19096TIP3    H178779   0.390   2.962   0.804  0.5601 -2.3003  1.2037
19096TIP3    H278780   0.467   3.092   0.796 -4.5513  0.9864  0.8913
19097TIP3   OH278781   0.622   1.676  15.870  0.0423 -0.3246  0.1986
19097TIP3    H178782   0.598   1.689  15.778 -1.5446 -1.0103  0.4653
19097TIP3    H278783   0.584   1.591  15.892 -0.2685  0.1699  1.6937
19098TIP3   OH278784   4.555   5.192   2.283 -0.0677 -0.4461 -0.1006
19098TIP3    H178785   4.537   5.258   2.216 -1.9852  1.0487  1.7717
19098TIP3    H278786   4.635   5.222   2.326 -1.9766  1.9330  2.0599
19099TIP3   OH278787   5.914   3.842  14.933  0.7143 -0.1446  0.3720
19099TIP3    H178788   5.908   3.804  14.844 -0.0624 -1.3602  0.9065
19099TIP3    H278789   5.912   3.766  14.991  1.9633  0.5930  1.4339
19100TIP3   OH278790   2.300   4.756  16.711  0.0871  0.5993  0.1511
19100TIP3    H178791   2.244   4.813  16.764  1.0580  1.3592  0.3949
19100TIP3    H278792   2.271   4.772  16.621 -0.7802  0.1894  0.3461
19101TIP3   OH278793   3.949   4.645   4.513 -0.0951 -0.0944  0.0798
19101TIP3    H178794   4.044   4.656   4.517 -0.3157  1.7940  1.2123
19101TIP3    H278795   3.914   4.719   4.562 -2.1667 -0.8268 -0.1925
19102TIP3   OH278796   1.851   6.638   5.987 -0.0888  0.3261  0.0911
19102TIP3    H178797   1.790   6.564   5.994  0.2945  0.0466  0.5694
19102TIP3    H278798   1.798   6.715   6.007 -0.0880 -0.0001  1.4774
19103TIP3   OH278799   3.055   3.957  12.914  0.3611 -0.5618 -0.3260
19103TIP3    H178800   3.032   3.865  12.906  0.0090 -0.3633 -2.1307
19103TIP3    H278801   2.971   4.003  12.911  0.6243 -0.1138 -1.1165
19104TIP3   OH278802   5.760   2.128   1.138 -0.3209 -0.0698  0.1386
19104TIP3    H178803   5.755   2.131   1.234 -1.0752 -0.3790  0.1190
19104TIP3    H278804   5.670   2.145   1.110 -0.1192 -0.0754 -0.5183
19105TIP3   OH278805   6.671   3.696   3.005  0.0651 -0.5002  0.4859
19105TIP3    H178806   6.719   3.761   2.954  0.3171 -1.3684 -0.4180
19105TIP3    H278807   6.626   3.643   2.939 -1.1909 -0.4309  1.2687
19106TIP3   OH278808   2.457   2.130   4.350  0.0918  0.4029  0.0579
19106TIP3    H178809   2.488   2.051   4.394  1.0018  1.2238  0.9434
19106TIP3    H278810   2.494   2.202   4.402 -1.0918  1.4110 -0.4573
19107TIP3   OH278811   6.019   6.669  15.536 -0.7648 -0.5704 -0.4620
19107TIP3    H178812   6.069   6.594  15.504  0.1014 -0.2481  0.1152
19107TIP3    H278813   6.029   6.735  15.467  1.9059  0.4739  0.8175
19108TIP3   OH278814   4.170   1.500   1.380 -0.5199  0.0138  0.1655
19108TIP3    H178815   4.264   1.513   1.370 -0.5571  0.0314 -0.1662
19108TIP3    H278816   4.152   1.524   1.471 -0.1988 -0.0218  0.2388
19109TIP3   OH278817   3.584   0.648  16.299  0.1944 -0.3344 -0.2623
19109TIP3    H178818   3.507   0.600  16.268  0.6714 -0.1824 -1.7590
19109TIP3    H278819   3.647   0.580  16.322 -0.5312 -0.4720  1.4437
19110TIP3   OH278820   5.983   1.278   2.214  0.2860  0.3559  0.0784
19110TIP3    H178821   5.907   1.316   2.258  0.7085  1.9643 -0.5069
19110TIP3    H278822   6.005   1.200   2.266 -0.4030  1.1047  1.5370
19111TIP3   OH278823   5.605   2.755   0.193 -0.1014 -0.7272  0.7007
19111TIP3    H178824   5.584   2.699   0.268  1.8363  0.9902  2.6419
19111TIP3    H278825   5.645   2.833   0.231  0.0686  0.6763 -2.0925
19112TIP3   OH278826   4.058   2.088   2.533 -0.6648 -0.4355 -0.1356
19112TIP3    H178827   4.101   2.031   2.469 -1.6014 -1.3025 -0.0217
19112TIP3    H278828   3.972   2.049   2.546  0.1344 -1.4108  3.0879
19113TIP3   OH278829   6.140   5.907  10.655 -0.5713 -0.2474 -0.4612
19113TIP3    H178830   6.062   5.851  10.648 -0.5849 -0.4318  0.9604
19113TIP3    H278831   6.146   5.929  10.748  0.4044  0.7454 -0.7351
19114TIP3   OH278832   0.751   3.529   4.655  0.1394  0.2364  0.0928
19114TIP3    H178833   0.709   3.489   4.579 -0.4637 -0.5305  0.8028
19114TIP3    H278834   0.703   3.611   4.669 -0.1321  0.0954 -0.0082
19115TIP3   OH278835   3.852   2.639   0.575 -0.8938  0.0673  0.0214
19115TIP3    H178836   3.822   2.653   0.665  1.0727 -0.9677  0.9029
19115TIP3    H278837   3.809   2.558   0.548 -0.1399 -0.5781  0.7019
19116TIP3   OH278838   4.576   1.606   1.878  0.0234 -0.3691  0.5411
19116TIP3    H178839   4.517   1.681   1.883  0.0471 -0.1361 -1.7019
19116TIP3    H278840   4.664   1.644   1.880  0.0353 -0.3106 -0.6658
19117TIP3   OH278841   6.703   2.608  13.757 -0.2337  0.2884  0.5341
19117TIP3    H178842   6.710   2.516  13.731  2.6034  0.0892  1.6271
19117TIP3    H278843   6.617   2.615  13.798 -0.9959 -1.5635 -0.6128
19118TIP3   OH278844   5.072   5.745  14.833  0.0406 -0.4823 -0.5115
19118TIP3    H178845   5.043   5.785  14.751  2.5191 -0.4675 -1.4777
19118TIP3    H278846   5.064   5.651  14.818  1.9258 -0.5402 -1.4292
19119TIP3   OH278847   1.999   5.887   4.325 -0.1379 -0.0265  1.1160
19119TIP3    H178848   2.082   5.848   4.297  0.7723  0.6616  2.6895
19119TIP3    H278849   1.977   5.842   4.406 -0.3356  1.0417  1.6730
19120TIP3   OH278850   0.507   5.745   4.794  0.1128  0.1000  0.1075
19120TIP3    H178851   0.602   5.751   4.782  0.3036 -0.2129  1.2864
19120TIP3    H278852   0.473   5.726   4.707  1.2097 -0.5047 -0.2139
19121TIP3   OH278853   6.048   2.427   0.056 -0.3408  0.2363  0.1772
19121TIP3    H178854   6.003   2.510   0.073 -1.0079 -0.2403  0.8520
19121TIP3    H278855   6.130   2.433   0.104 -0.2373  0.6374 -0.0513
19122TIP3   OH278856   4.709   4.100  11.425 -1.5161  0.2877  0.4588
19122TIP3    H178857   4.665   4.141  11.350 -1.3026  0.7202  0.5630
19122TIP3    H278858   4.794   4.143  11.429 -0.6098 -1.3402 -0.4263
19123TIP3   OH278859   6.079   4.949  11.597  0.0239  0.3457 -0.0635
19123TIP3    H178860   5.996   4.951  11.645 -0.3761 -0.8721 -0.6687
19123TIP3    H278861   6.141   4.991  11.657 -0.6706 -0.2428  1.1236
19124TIP3   OH278862   1.785   1.431  12.022  0.4925  0.5384  0.7880
19124TIP3    H178863   1.871   1.468  12.004  0.9448 -1.5850 -1.9600
19124TIP3    H278864   1.799   1.370  12.095  0.1020  3.9757  4.0431
19125TIP3   OH278865   3.998   4.872   3.492 -0.1231  0.1363 -0.2833
19125TIP3    H178866   3.978   4.785   3.527 -1.6585  0.1596 -1.0414
19125TIP3    H278867   3.992   4.930   3.567  2.4199 -0.5471  0.5652
19126TIP3   OH278868   1.456   4.827   3.969  0.0321 -0.3382  0.0848
19126TIP3    H178869   1.456   4.913   3.925  1.3769 -0.1410  0.4210
19126TIP3    H278870   1.435   4.765   3.899 -1.0220  0.2650 -0.1496
19127TIP3   OH278871   2.290   0.710   3.614 -0.0923 -0.1595  0.2519
19127TIP3    H178872   2.363   0.650   3.602 -0.7705 -1.1940  1.1722
19127TIP3    H278873   2.212   0.660   3.589 -0.6793  0.2592  1.1515
19128TIP3   OH278874   6.473   1.192  12.753  0.3114  0.5724 -0.5551
19128TIP3    H178875   6.546   1.237  12.796  0.4374 -1.4061  1.4480
19128TIP3    H278876   6.502   1.181  12.662  1.1202  2.6097 -0.5925
19129TIP3   OH278877   4.156   4.990  11.112  0.3272 -0.3958 -0.1092
19129TIP3    H178878   4.066   5.004  11.142  0.4775  1.2275 -0.3428
19129TIP3    H278879   4.209   5.039  11.174  0.7681  1.6299 -1.9501
19130TIP3   OH278880   6.744   6.067  14.255  0.0730 -0.4343  0.2811
19130TIP3    H178881   6.796   6.125  14.199 -2.2284  1.6410  0.0703
19130TIP3    H278882   6.777   6.083  14.343  1.2876 -0.9182 -0.0735
19131TIP3   OH278883   5.769   6.761   4.683  0.3014 -0.0740  0.3691
19131TIP3    H178884   5.773   6.680   4.734 -1.2091 -1.7562 -1.9413
19131TIP3    H278885   5.742   6.828   4.746 -0.7933 -1.8673  1.9231
19132TIP3   OH278886   1.041   2.890  10.352 -0.2178 -0.0414  0.2494
19132TIP3    H178887   1.082   2.804  10.362  0.2410  0.2765  1.2598
19132TIP3    H278888   0.952   2.878  10.387 -0.6367 -0.4349 -0.8830
19133TIP3   OH278889   5.694   0.425  16.679 -0.3082  0.0465 -0.5862
19133TIP3    H178890   5.747   0.427  16.758  0.6816  1.7960 -1.2399
19133TIP3    H278891   5.647   0.342  16.684  0.0992 -0.1234  1.5697
19134TIP3   OH278892   2.530   0.825   1.820  0.0723  0.3939 -0.2683
19134TIP3    H178893   2.534   0.755   1.755  1.1975  0.5349 -0.3839
19134TIP3    H278894   2.567   0.901   1.775  2.2038  0.1469  0.9084
19135TIP3   OH278895   5.540   2.992  15.532  0.0609  0.2715  0.1884
19135TIP3    H178896   5.545   3.037  15.616  2.2469 -0.1210  0.3190
19135TIP3    H278897   5.576   3.054  15.469 -0.0124 -0.0653 -0.1919
19136TIP3   OH278898   0.202   2.466  16.460  0.0193  0.4055 -1.1626
19136TIP3    H178899   0.176   2.554  16.486  1.9516  0.6521  0.1516
19136TIP3    H278900   0.236   2.426  16.540 -0.2033 -1.3172 -1.8788
19137TIP3   OH278901   3.413   1.449   2.417  0.6564 -0.1328 -0.4096
19137TIP3    H178902   3.332   1.495   2.438  0.9861  1.0668 -1.6651
19137TIP3    H278903   3.446   1.420   2.502 -1.6736 -1.7583  0.0654
19138TIP3   OH278904   0.129   5.202   4.482 -0.6605 -0.0715  0.4293
19138TIP3    H178905   0.158   5.290   4.458 -0.0964 -0.4548 -0.3504
19138TIP3    H278906   0.177   5.183   4.562  1.8406 -0.9260 -1.1559
19139TIP3   OH278907   4.335   3.470  12.556  0.2146  0.1740 -0.1880
19139TIP3    H178908   4.319   3.424  12.473 -2.5623  1.4427 -0.4372
19139TIP3    H278909   4.368   3.401  12.615 -0.2447 -1.3222 -1.5943
19140TIP3   OH278910   6.394   4.479   1.883 -0.2693  0.1954  0.1130
19140TIP3    H178911   6.441   4.553   1.920  0.6664  0.1231 -0.8873
19140TIP3    H278912   6.304   4.490   1.914  0.0105  1.3248  0.5816
19141TIP3   OH278913   1.865   0.186  11.211 -0.3795 -0.0623  0.2237
19141TIP3    H178914   1.783   0.170  11.165 -0.6615  0.2107  0.6249
19141TIP3    H278915   1.845   0.167  11.303 -0.6284  2.1775  0.6792
19142TIP3   OH278916   2.275   5.697   3.807 -0.3875 -0.3753  0.4265
19142TIP3    H178917   2.215   5.627   3.832 -0.1153 -0.1417  1.8084
19142TIP3    H278918   2.236   5.735   3.728 -1.5701 -0.8051  0.7824
19143TIP3   OH278919   6.751   5.813  12.650 -0.6908  0.2418 -0.2923
19143TIP3    H178920   6.692   5.888  12.659 -0.6717  0.0015  2.8480
19143TIP3    H278921   6.831   5.851  12.614 -1.7142  1.1223 -1.7340
19144TIP3   OH278922   2.533   2.591   1.835  0.4922 -0.2526  0.5719
19144TIP3    H178923   2.488   2.675   1.825  0.6172 -0.0850  1.3746
19144TIP3    H278924   2.624   2.610   1.811  0.5686 -0.1032  0.9771
19145TIP3   OH278925   4.781   0.129   0.995  0.3718  0.2000  0.1565
19145TIP3    H178926   4.779   0.046   0.947  0.7951 -0.5896  1.4380
19145TIP3    H278927   4.867   0.166   0.975  0.7039 -0.3165  0.6033
19146TIP3   OH278928   5.240   2.283  17.098 -0.3175  0.3218  0.6303
19146TIP3    H178929   5.300   2.323  17.162  2.7089 -0.6698 -1.3980
19146TIP3    H278930   5.294   2.266  17.022 -2.7197 -2.7399 -0.5753
19147TIP3   OH278931   5.438   2.474  10.285  0.0646  0.6944 -0.3643
19147TIP3    H178932   5.420   2.565  10.263  0.0817  0.8461  0.2156
19147TIP3    H278933   5.534   2.468  10.286  0.1333 -0.0395 -3.1598
19148TIP3   OH278934   1.278   4.969  16.278 -0.3100 -0.0110  0.8284
19148TIP3    H178935   1.314   4.895  16.325 -0.6554  0.4693  1.8821
19148TIP3    H278936   1.196   4.936  16.241  0.8427 -0.9324 -1.0800
19149TIP3   OH278937   1.353   1.729  14.052  0.2940 -0.0951  0.7508
19149TIP3    H178938   1.335   1.718  14.145 -1.6498 -0.8668  0.3368
19149TIP3    H278939   1.319   1.816  14.031  0.7092  0.0685  0.7488
19150TIP3   OH278940   1.762   4.767   4.025  0.3867  0.1141  0.1485
19150TIP3    H178941   1.693   4.824   4.061 -0.1342 -1.9132  2.6244
19150TIP3    H278942   1.715   4.707   3.967  0.0944 -0.8810  1.3697
19151TIP3   OH278943   3.397   2.683  17.153  0.2890  0.0382  0.0930
19151TIP3    H178944   3.369   2.666  17.243 -0.6392 -0.2541 -0.2381
19151TIP3    H278945   3.354   2.766  17.130  2.3341  1.3386  0.6594
19152TIP3   OH278946   5.964   1.629   4.733 -0.3741  0.2770  0.3418
19152TIP3    H178947   5.918   1.605   4.653  0.2390 -1.4623  0.4754
19152TIP3    H278948   5.926   1.573   4.801  2.9330 -2.5613  0.1627
19153TIP3   OH278949   2.819   6.594  13.875  0.8412  0.1397  0.2277
19153TIP3    H178950   2.895   6.652  13.875 -0.6444  2.2099 -0.4663
19153TIP3    H278951   2.783   6.601  13.787 -0.9781  0.3652  0.9410
19154TIP3   OH278952   6.373   0.532   6.006  0.2256 -0.3842  0.2859
19154TIP3    H178953   6.318   0.510   5.931 -0.6760  1.9170  0.1777
19154TIP3    H278954   6.459   0.497   5.985  0.3126  1.2177 -2.4116
19155TIP3   OH278955   5.467   2.920   2.360 -0.5628  0.2025 -0.2749
19155TIP3    H178956   5.380   2.894   2.330  0.2224 -1.7034 -1.0484
19155TIP3    H278957   5.527   2.867   2.307  1.0690  1.4218  0.2920
19156TIP3   OH278958   4.314   3.118  14.247  0.0131  0.2409 -0.0611
19156TIP3    H178959   4.313   3.153  14.336  2.6933  0.8772 -0.1811
19156TIP3    H278960   4.397   3.070  14.241 -1.0981 -1.6450 -1.5846
19157TIP3   OH278961   0.911   2.674  12.223  0.6558  0.5169  0.7862
19157TIP3    H178962   0.887   2.739  12.157  1.8389  1.7144  1.4816
19157TIP3    H278963   0.829   2.653  12.267 -0.2529 -0.6875 -1.3515
19158TIP3   OH278964   2.045   5.191  11.350 -0.7189  0.3317 -0.4431
19158TIP3    H178965   1.998   5.274  11.359  1.5790  1.7458 -0.8064
19158TIP3    H278966   2.063   5.183  11.256  0.6527  0.3718 -0.2044
19159TIP3   OH278967   3.240   0.618  14.476  0.5319 -0.4790  0.2992
19159TIP3    H178968   3.251   0.651  14.565  0.3749  2.0691 -0.5662
19159TIP3    H278969   3.293   0.675  14.422 -2.2213  0.4216 -1.6862
19160TIP3   OH278970   4.884   6.663   2.490 -0.1126  0.0445  0.1440
19160TIP3    H178971   4.846   6.619   2.413  2.2473 -0.0558 -1.0546
19160TIP3    H278972   4.910   6.749   2.458 -0.6109  0.6551  1.3123
19161TIP3   OH278973   0.885   0.789  14.728  0.2574  0.0221 -0.0603
19161TIP3    H178974   0.942   0.734  14.781 -0.5924 -2.1415 -1.2604
19161TIP3    H278975   0.913   0.773  14.638 -0.4117  1.1119 -0.4878
19162TIP3   OH278976   3.893   5.765  14.883  0.4036 -0.2089  0.1430
19162TIP3    H178977   3.810   5.794  14.844 -0.5622 -1.1572  1.3870
19162TIP3    H278978   3.928   5.843  14.926  1.2255  0.7157 -2.0708
19163TIP3   OH278979   5.112   1.749  13.646  0.0215 -0.3938 -0.5084
19163TIP3    H178980   5.045   1.682  13.660  2.5576 -3.3074 -1.2318
19163TIP3    H278981   5.089   1.819  13.707 -2.5404 -2.0909  0.6507
19164TIP3   OH278982   3.200   1.715  14.921  0.3747  0.0904 -0.2275
19164TIP3    H178983   3.142   1.698  14.996 -1.1445  2.3623 -0.8073
19164TIP3    H278984   3.232   1.804  14.935 -0.5927  0.8856 -2.6458
19165TIP3   OH278985   1.277   4.684   2.404 -0.0605  0.4465  0.6124
19165TIP3    H178986   1.241   4.760   2.359  2.3872  1.9120  0.9434
19165TIP3    H278987   1.230   4.681   2.487 -0.5526  1.2683  0.3729
19166TIP3   OH278988   4.869   2.668   3.297 -0.6090 -0.2496  0.3655
19166TIP3    H178989   4.878   2.600   3.363  0.0857 -1.6002 -1.0649
19166TIP3    H278990   4.926   2.640   3.225 -1.8975  0.7866 -1.1263
19167TIP3   OH278991   4.965   2.721   2.742 -0.0150 -0.1490 -0.4540
19167TIP3    H178992   5.054   2.709   2.775  0.3870  2.5085 -0.3930
19167TIP3    H278993   4.969   2.692   2.651  0.5854 -1.1470 -0.1258
19168TIP3   OH278994   5.352   1.383  10.669  0.4005 -0.6134  0.0217
19168TIP3    H178995   5.372   1.346  10.583  3.7677  0.7206  0.0628
19168TIP3    H278996   5.337   1.307  10.724  1.4020 -1.6889 -1.1068
19169TIP3   OH278997   3.065   4.454   5.464 -0.3008 -0.3293  0.1004
19169TIP3    H178998   3.053   4.402   5.385 -1.1595 -1.0260  0.6644
19169TIP3    H278999   3.066   4.545   5.434 -0.0843 -0.6138 -0.7609
19170TIP3   OH279000   4.016   5.719  15.860  0.6179  0.3378  0.2402
19170TIP3    H179001   4.055   5.799  15.827  2.6709  0.5462  2.8296
19170TIP3    H279002   4.091   5.665  15.885 -0.6486 -2.7379 -1.9398
19171TIP3   OH279003   3.170   0.411  12.792  0.1941  0.4002  0.2587
19171TIP3    H179004   3.265   0.402  12.798  0.7283  4.2433  0.4850
19171TIP3    H279005   3.152   0.417  12.698  0.3119  0.6349  0.2518
19172TIP3   OH279006   3.280   5.756   5.392 -0.1799 -0.1271 -0.0603
19172TIP3    H179007   3.303   5.825   5.330 -0.0999  0.3459  0.4940
19172TIP3    H279008   3.214   5.704   5.347 -1.5580  1.3539  0.1891
19173TIP3   OH279009   3.461   0.179   0.706  0.3289 -0.1721 -0.1285
19173TIP3    H179010   3.458   0.110   0.639  0.5992  0.6525 -1.0129
19173TIP3    H279011   3.373   0.182   0.743  0.1752 -0.6241 -0.4603
19174TIP3   OH279012   0.850   1.209   4.245  1.2168 -0.0637  0.2223
19174TIP3    H179013   0.773   1.214   4.189  0.7018  0.2442  0.9505
19174TIP3    H279014   0.850   1.119   4.278  1.7808 -0.3865 -0.6185
19175TIP3   OH279015   1.207   5.726   2.624 -0.3107  0.2447 -0.0871
19175TIP3    H179016   1.176   5.666   2.692 -1.4017  0.6673 -0.1795
19175TIP3    H279017   1.277   5.679   2.579 -0.7636 -0.7258  0.2121
19176TIP3   OH279018   2.027   3.676  14.354  0.0552  0.9808  0.0460
19176TIP3    H179019   1.935   3.650  14.357  0.1051  0.4969 -1.4236
19176TIP3    H279020   2.026   3.764  14.317  0.1391  1.2482  0.6855
19177TIP3   OH279021   1.334   2.249  10.427 -0.3132 -0.2089  0.0209
19177TIP3    H179022   1.410   2.226  10.480 -1.3239 -0.3302  1.4904
19177TIP3    H279023   1.295   2.324  10.472 -1.2943 -0.4202 -0.4330
19178TIP3   OH279024   6.200   4.730   2.358  0.1384 -0.2749 -0.7154
19178TIP3    H179025   6.220   4.758   2.269 -1.1900 -0.5495 -1.1217
19178TIP3    H279026   6.105   4.717   2.359  0.3832 -2.4349  0.1199
19179TIP3   OH279027   0.083   4.655   4.587  0.4526  0.2223 -0.6030
19179TIP3    H179028   0.073   4.741   4.627  1.8391 -0.3151  1.0027
19179TIP3    H279029   0.027   4.597   4.639  2.4130 -0.5227  0.7620
19180TIP3   OH279030   6.232   3.258   6.198  0.0358 -0.5838 -0.2299
19180TIP3    H179031   6.166   3.189   6.187 -0.7848  0.2153 -0.4509
19180TIP3    H279032   6.248   3.290   6.110 -0.4456  0.2662 -0.0245
19181TIP3   OH279033   5.984   4.368   6.853  0.3232 -0.3919  0.0258
19181TIP3    H179034   6.070   4.352   6.814  0.6159 -0.6506  0.7658
19181TIP3    H279035   5.938   4.285   6.843  1.2059 -1.2148  2.2439
19182TIP3   OH279036   3.445   3.635   1.515 -0.2261 -0.0067  0.5863
19182TIP3    H179037   3.369   3.576   1.521 -0.9270  0.7575 -0.4836
19182TIP3    H279038   3.437   3.691   1.593 -0.9342  0.2523  0.3370
19183TIP3   OH279039   1.446   4.818  15.545 -0.6471 -0.2416  0.2507
19183TIP3    H179040   1.370   4.847  15.495 -0.8503 -0.4321  0.4481
19183TIP3    H279041   1.420   4.827  15.636  0.1586  1.2742  0.3616
19184TIP3   OH279042   6.529   2.973  13.857 -0.1863 -0.4795 -0.0203
19184TIP3    H179043   6.560   3.020  13.935 -0.2336 -0.0277 -0.2699
19184TIP3    H279044   6.434   2.970  13.867 -0.1465 -0.9582  0.2369
19185TIP3   OH279045   6.088   3.550  14.410 -0.4437 -0.8119  0.1004
19185TIP3    H179046   6.059   3.505  14.331 -0.8568 -1.2217  0.4715
19185TIP3    H279047   6.023   3.526  14.476 -0.0367 -0.5830  0.5939
19186TIP3   OH279048   3.088   0.136  14.051  0.0649  0.6575 -0.3472
19186TIP3    H179049   3.151   0.177  14.110 -0.7526  0.2230  0.8682
19186TIP3    H279050   3.048   0.066  14.103 -1.4780  0.9616 -1.0605
19187TIP3   OH279051   1.741   2.016   5.907  0.1290  0.6129  0.6643
19187TIP3    H179052   1.788   2.025   5.989  1.9056 -1.1073 -0.1051
19187TIP3    H279053   1.663   1.966   5.930 -1.3024  3.1739  1.8749
19188TIP3   OH279054   5.979   6.553   4.079  0.1430 -0.0890 -0.2297
19188TIP3    H179055   6.053   6.520   4.129  0.3184 -0.6939 -0.8783
19188TIP3    H279056   5.909   6.565   4.144 -0.0269 -2.0304 -0.0086
19189TIP3   OH279057   3.663   1.554   5.084  0.1849 -0.0825  0.4497
19189TIP3    H179058   3.742   1.541   5.136  0.3588 -0.9531 -0.0165
19189TIP3    H279059   3.616   1.471   5.089 -0.5368  0.3166  0.4420
19190TIP3   OH279060   2.419   1.156   5.304 -0.0148  0.0272  0.7967
19190TIP3    H179061   2.335   1.183   5.340  0.6366  2.4922  0.6518
19190TIP3    H279062   2.484   1.197   5.361  1.0334  1.6794 -1.4260
19191TIP3   OH279063   4.384   5.178  11.298 -0.7002  0.6311  0.5716
19191TIP3    H179064   4.371   5.205  11.389  3.1192  0.7973  1.2196
19191TIP3    H279065   4.474   5.147  11.295 -0.5577  0.9641 -3.2568
19192TIP3   OH279066   0.504   5.038  12.238  0.1054 -0.7300  0.0819
19192TIP3    H179067   0.409   5.048  12.233  0.1279 -0.6043 -0.1576
19192TIP3    H279068   0.537   5.100  12.173  0.3471 -0.8476  0.0920
19193TIP3   OH279069   1.831   1.527  11.557 -0.1458  0.5419  0.3252
19193TIP3    H179070   1.783   1.471  11.496 -0.3328  0.9717  0.0791
19193TIP3    H279071   1.807   1.494  11.644  0.0824 -0.0405  0.1738
19194TIP3   OH279072   2.073   3.850  16.211  0.0638 -0.2042 -0.6671
19194TIP3    H179073   2.005   3.786  16.186 -1.5247  1.0149  0.3016
19194TIP3    H279074   2.043   3.932  16.171 -0.1006  0.7777  1.3624
19195TIP3   OH279075   1.353   5.769   4.920  0.0526  0.1993  1.0380
19195TIP3    H179076   1.325   5.694   4.972 -0.4933  0.3825  1.0169
19195TIP3    H279077   1.278   5.828   4.920  0.1447  0.3348  0.2811
19196TIP3   OH279078   4.300   5.240   3.943  0.1708 -0.1777  0.5344
19196TIP3    H179079   4.307   5.145   3.951 -0.1326 -0.2005  0.5520
19196TIP3    H279080   4.206   5.256   3.935  0.1098  0.2215  1.8800
19197TIP3   OH279081   2.575   3.926  11.394  0.0613  0.2103 -0.0938
19197TIP3    H179082   2.657   3.906  11.440 -1.2432 -0.7443  1.9313
19197TIP3    H279083   2.509   3.872  11.437 -1.3786 -0.4218 -2.8461
19198TIP3   OH279084   3.235   4.663  12.894  0.1821 -0.3903 -0.3075
19198TIP3    H179085   3.198   4.716  12.824  0.6779  1.2663  0.6202
19198TIP3    H279086   3.160   4.622  12.936 -0.2715  0.0064 -0.7165
19199TIP3   OH279087   1.520   5.744   0.816  0.5209  0.3004  0.2036
19199TIP3    H179088   1.433   5.781   0.828  0.2315 -0.2728 -0.0911
19199TIP3    H279089   1.565   5.762   0.899  0.5608  1.7388 -0.1134
19200TIP3   OH279090   0.033   1.086  11.738 -0.0354  0.4106  0.6862
19200TIP3    H179091   0.038   1.157  11.675 -1.7463  0.3451  0.4457
19200TIP3    H279092  -0.026   1.118  11.806 -0.5488 -0.6354  0.7527
19201TIP3   OH279093   1.894   1.060  16.266 -1.0644  0.5500 -0.5655
19201TIP3    H179094   1.913   0.966  16.267 -1.7218  0.4124 -0.1901
19201TIP3    H279095   1.948   1.094  16.195 -1.1942 -0.1925 -1.0397
19202TIP3   OH279096   4.604   0.205   5.763 -0.4250 -0.0254 -0.5819
19202TIP3    H179097   4.661   0.218   5.687 -0.0822  0.2407 -0.2867
19202TIP3    H279098   4.593   0.293   5.800 -0.2365 -0.2059 -0.0785
19203TIP3   OH279099   6.757   5.834   0.552 -0.4206  0.9612  0.2920
19203TIP3    H179100   6.748   5.917   0.505  0.7667  1.0638  0.2058
19203TIP3    H279101   6.668   5.812   0.580 -0.8800  1.7975 -0.4683
19204TIP3   OH279102   4.762   6.306   1.058 -0.0009  0.5222  0.0297
19204TIP3    H179103   4.827   6.285   1.126 -1.3215 -3.4321  0.3240
19204TIP3    H279104   4.803   6.276   0.977 -1.3812 -2.2928  0.2554
19205TIP3   OH279105   2.361   6.149  12.958 -0.1145 -0.7402  0.2120
19205TIP3    H179106   2.399   6.061  12.959 -0.3251 -0.8294  1.5628
19205TIP3    H279107   2.269   6.135  12.978  0.0635 -0.1398  1.5718
19206TIP3   OH279108   5.039   0.550  15.277  0.1410  0.4386 -0.0191
19206TIP3    H179109   5.018   0.596  15.196 -1.6279  0.5209  0.4411
19206TIP3    H279110   5.065   0.463  15.250  0.4134  0.7348 -0.7229
19207TIP3   OH279111   1.948   4.098  13.334 -0.5790 -0.6576 -0.8385
19207TIP3    H179112   1.995   4.181  13.328 -0.7830 -0.4758 -0.0210
19207TIP3    H279113   1.909   4.098  13.422 -1.1577 -1.3076 -1.0819
19208TIP3   OH279114   3.147   0.462   4.765 -0.5905  0.6177 -0.9085
19208TIP3    H179115   3.233   0.473   4.725  0.3513 -1.0378  0.5281
19208TIP3    H279116   3.142   0.532   4.831 -0.4371  0.8566 -1.1511
19209TIP3   OH279117   4.838   4.693   0.899 -0.2963 -0.4143 -0.0066
19209TIP3    H179118   4.801   4.766   0.948  1.4490  2.3768 -2.5043
19209TIP3    H279119   4.773   4.673   0.832 -0.6608 -1.0145  0.5163
19210TIP3   OH279120   6.633   6.437   2.509 -0.1237 -0.1422  0.2249
19210TIP3    H179121   6.696   6.477   2.448 -1.1110 -0.0476 -0.7643
19210TIP3    H279122   6.675   6.355   2.536  0.9026  0.4390  0.4593
19211TIP3   OH279123   4.312   0.312   0.683  0.5973 -0.9777 -0.5245
19211TIP3    H179124   4.308   0.408   0.677  0.4608 -1.0592 -2.1183
19211TIP3    H279125   4.338   0.295   0.774 -2.1801  0.5036  0.6751
19212TIP3   OH279126   4.212   3.413  13.384 -0.5395 -0.1870  0.5200
19212TIP3    H179127   4.290   3.468  13.390 -0.6978 -0.0742  2.0010
19212TIP3    H279128   4.216   3.376  13.296  0.5278  0.7737  0.1310
19213TIP3   OH279129   5.220   1.099  15.674 -0.3303  0.1271 -0.5050
19213TIP3    H179130   5.294   1.054  15.716  0.2636  0.7883 -0.8061
19213TIP3    H279131   5.259   1.180  15.640 -0.8935 -0.1681 -1.9020
19214TIP3   OH279132   4.966   4.447   0.374  0.3046  0.4329  0.2090
19214TIP3    H179133   5.020   4.488   0.442 -0.8949  0.9136  0.8894
19214TIP3    H279134   4.877   4.477   0.392 -0.1291  0.1002 -1.2286
19215TIP3   OH279135   0.752   4.777  15.103 -0.0168  0.1153  0.3153
19215TIP3    H179136   0.744   4.737  15.017 -0.6950  0.1398  0.3610
19215TIP3    H279137   0.689   4.731  15.157 -0.7947  1.1963  0.3753
19216TIP3   OH279138   6.404   3.733   1.968 -0.0078  0.6997 -0.0908
19216TIP3    H179139   6.352   3.706   1.892 -0.7002  0.4015  0.4769
19216TIP3    H279140   6.356   3.809   2.003 -0.2826  0.1846  0.6633
19217TIP3   OH279141   4.392   3.129  17.026 -0.4824 -0.5885 -1.0713
19217TIP3    H179142   4.369   3.222  17.023 -1.0915 -0.7548 -1.5340
19217TIP3    H279143   4.352   3.091  16.948  1.0165 -0.9600 -1.6935
19218TIP3   OH279144   1.931   2.629  16.183 -0.1862  0.1978  0.4072
19218TIP3    H179145   1.960   2.676  16.261 -0.6861 -0.6285  1.1063
19218TIP3    H279146   1.907   2.698  16.121  0.3156  0.8616  0.9443
19219TIP3   OH279147   3.172   5.342   4.251  0.1793  0.0784  0.0453
19219TIP3    H179148   3.080   5.320   4.240  0.7957 -2.8848 -0.0585
19219TIP3    H279149   3.187   5.416   4.192 -1.9915  0.2845 -0.3166
19220TIP3   OH279150   4.940   4.790   3.279  1.2707 -0.1737  0.3029
19220TIP3    H179151   5.005   4.785   3.209  2.3583 -0.3127  1.2972
19220TIP3    H279152   4.952   4.709   3.329 -2.1954 -2.0887 -1.5938
19221TIP3   OH279153   4.214   1.021  11.454 -0.3712  0.0217 -0.1203
19221TIP3    H179154   4.256   1.107  11.457  0.5477 -0.4335  1.8935
19221TIP3    H279155   4.280   0.964  11.413 -0.8497  0.1826 -1.1461
19222TIP3   OH279156   1.865   4.890   4.664  0.0514  0.2956 -0.6709
19222TIP3    H179157   1.825   4.948   4.729  0.4456 -1.5715  1.3749
19222TIP3    H279158   1.792   4.841   4.628  0.0853 -0.8737  0.7431
19223TIP3   OH279159   1.539   6.735  12.752 -0.2243 -0.1114  0.3443
19223TIP3    H179160   1.460   6.781  12.778  0.6403  1.4413  0.3386
19223TIP3    H279161   1.591   6.729  12.832 -0.1348 -0.6933  0.2460
19224TIP3   OH279162   5.745   6.350   3.954  0.3578 -0.4567  0.3736
19224TIP3    H179163   5.825   6.394   3.984  0.9082 -2.4619  2.1021
19224TIP3    H279164   5.763   6.326   3.863  1.2815  0.0556  0.4095
19225TIP3   OH279165   1.209   6.793   3.208 -0.6332  0.7459 -0.0122
19225TIP3    H179166   1.279   6.843   3.165 -0.6154  0.2098 -0.6146
19225TIP3    H279167   1.251   6.755   3.285  0.5271 -1.8242 -1.7865
19226TIP3   OH279168   3.123   2.373   1.779  0.1264 -0.7148 -0.5068
19226TIP3    H179169   3.208   2.374   1.823  0.0574 -0.1770 -0.3826
19226TIP3    H279170   3.073   2.444   1.820  0.4730  0.6312 -2.2733
19227TIP3   OH279171   3.533   3.717   3.913  0.5628 -0.0622  0.2557
19227TIP3    H179172   3.488   3.636   3.936  0.5720 -0.6031 -1.4792
19227TIP3    H279173   3.480   3.754   3.842  2.6635 -0.5863 -1.6742
19228TIP3   OH279174   1.286   3.465   5.445  0.1484  0.1826  0.0930
19228TIP3    H179175   1.343   3.535   5.477 -0.7972  0.7023  0.7101
19228TIP3    H279176   1.258   3.419   5.524 -0.8211  0.3771 -0.1197
19229TIP3   OH279177   6.448   1.796   0.864 -0.0102  0.1882  0.0484
19229TIP3    H179178   6.483   1.726   0.918  1.4783  0.2807 -0.7558
19229TIP3    H279179   6.395   1.751   0.798  1.3722 -0.2748 -0.7946
19230TIP3   OH279180   1.265   5.737   5.676  0.0717 -0.5493 -0.1941
19230TIP3    H179181   1.252   5.818   5.627  0.7751  0.3018  0.9658
19230TIP3    H279182   1.189   5.733   5.735  0.4628 -0.2704  0.3396
19231TIP3   OH279183   2.673   0.140  15.717  0.4126  0.0342  0.1430
19231TIP3    H179184   2.593   0.178  15.682  1.4794  1.3957 -0.9362
19231TIP3    H279185   2.706   0.085  15.646  0.9845  0.3358  0.1699
19232TIP3   OH279186   1.154   4.148  12.850  0.1250  0.0280  0.3742
19232TIP3    H179187   1.223   4.081  12.847  0.2281  0.1281  0.4776
19232TIP3    H279188   1.089   4.118  12.787  0.3714  0.0526  0.1048
19233TIP3   OH279189   1.339   2.636   1.589 -0.5406 -0.1167 -0.3228
19233TIP3    H179190   1.303   2.547   1.593  0.4483 -0.4903  1.5927
19233TIP3    H279191   1.279   2.688   1.643 -0.9894  0.3620 -1.2548
19234TIP3   OH279192   4.788   3.232  16.762 -0.5105 -0.0053  0.6057
19234TIP3    H179193   4.865   3.249  16.708 -1.1758 -0.8708 -0.6621
19234TIP3    H279194   4.746   3.318  16.772 -1.0796 -0.0025 -1.3863
19235TIP3   OH279195   1.175   1.048   4.353  0.5219  0.2655 -0.5666
19235TIP3    H179196   1.129   1.009   4.427 -0.1557  1.0339 -0.5702
19235TIP3    H279197   1.166   0.985   4.282  0.9169 -0.3361 -0.0901
19236TIP3   OH279198   3.499   3.528   1.881 -0.1248 -0.5442  0.1250
19236TIP3    H179199   3.531   3.527   1.790 -1.4502  1.2882 -0.4180
19236TIP3    H279200   3.545   3.601   1.921 -1.5151  0.3642  0.1215
19237TIP3   OH279201   0.305   6.453   2.992 -0.2762 -0.2728  0.2100
19237TIP3    H179202   0.214   6.424   2.981 -0.0669 -1.1637  0.7365
19237TIP3    H279203   0.303   6.505   3.073 -0.3536 -0.1082  0.1039
19238TIP3   OH279204   5.421   6.399   2.991  0.9048 -0.3797 -0.0221
19238TIP3    H179205   5.469   6.322   2.962 -0.3223 -1.9262  1.7333
19238TIP3    H279206   5.441   6.406   3.085 -0.2211  0.4692  0.1836
19239TIP3   OH279207   0.052   3.074  15.780 -0.0066  0.1007  0.0565
19239TIP3    H179208   0.017   2.993  15.742 -0.2778  0.9807 -1.6682
19239TIP3    H279209   0.140   3.081  15.745  1.1279 -0.8583  2.4811
19240TIP3   OH279210   0.659   4.600  16.206 -0.4560  0.1671  0.2176
19240TIP3    H179211   0.672   4.507  16.226 -0.0767  0.5085  1.6068
19240TIP3    H279212   0.564   4.612  16.212 -0.4134  0.1096  1.2123
19241TIP3   OH279213   0.519   3.916   3.950 -0.3638  0.2328 -0.2029
19241TIP3    H179214   0.522   3.878   4.038 -0.5798  0.2100 -0.2041
19241TIP3    H279215   0.549   3.846   3.892  0.4780  0.4812 -0.0753
19242TIP3   OH279216   0.884   0.004  16.045 -0.2513 -0.2526 -0.3913
19242TIP3    H179217   0.842   0.054  15.975 -0.0562  4.4388  2.4343
19242TIP3    H279218   0.974  -0.007  16.016 -0.4769  0.4504 -1.4033
19243TIP3   OH279219   5.108   5.076  17.116  0.4902 -0.0821  0.3181
19243TIP3    H179220   5.127   5.038  17.030 -1.6151 -1.4291  0.3507
19243TIP3    H279221   5.012   5.080  17.119  0.4613 -0.8483  2.9071
19244TIP3   OH279222   4.899   4.310  15.444  0.2053 -0.3851 -0.1881
19244TIP3    H179223   4.935   4.224  15.465  0.8305 -0.3974 -1.2728
19244TIP3    H279224   4.878   4.348  15.529  0.6628 -1.2922  0.3453
19245TIP3   OH279225   6.628   1.500   5.092 -0.2380 -0.0812 -0.3971
19245TIP3    H179226   6.643   1.413   5.131  0.4198  0.5869  0.9199
19245TIP3    H279227   6.534   1.505   5.081 -0.3310 -0.7892 -0.0321
19246TIP3   OH279228   6.270   1.099  13.221  0.2161  0.4561  0.3160
19246TIP3    H179229   6.356   1.104  13.264  0.3539  1.4998 -0.0503
19246TIP3    H279230   6.252   1.189  13.194  1.3039 -0.3938 -4.0410
19247TIP3   OH279231   4.451   0.824  15.123  0.4434 -0.4142  0.1482
19247TIP3    H179232   4.393   0.869  15.062  0.3984 -1.2212 -0.4064
19247TIP3    H279233   4.404   0.827  15.207  0.1647  0.0153 -0.0160
19248TIP3   OH279234   3.410   4.505   2.524 -0.2786  0.5403  0.3590
19248TIP3    H179235   3.416   4.594   2.490 -0.8452 -0.4570 -2.6602
19248TIP3    H279236   3.496   4.487   2.561  0.1878  1.9601  0.0186
19249TIP3   OH279237   6.484   0.262  14.017 -0.3680  0.2230  0.1755
19249TIP3    H179238   6.571   0.291  13.992 -0.6772 -0.1630 -1.4571
19249TIP3    H279239   6.499   0.194  14.083  0.6214 -0.5010 -0.7668
19250TIP3   OH279240   3.932   1.353   0.576 -0.5453  0.1595 -0.2770
19250TIP3    H179241   3.957   1.357   0.668  3.0185 -1.7761 -0.9763
19250TIP3    H279242   3.853   1.299   0.574 -0.7065  0.2647  1.5980
19251TIP3   OH279243   2.686   0.383  12.809 -0.2232 -0.1872  0.0665
19251TIP3    H179244   2.763   0.334  12.780  0.0140  0.7233 -0.9084
19251TIP3    H279245   2.632   0.318  12.853  1.8583 -0.5043  2.3517
19252TIP3   OH279246   0.191   4.563  16.907 -0.2274  0.1413 -0.0906
19252TIP3    H179247   0.166   4.614  16.984  1.1869  0.0250  0.4823
19252TIP3    H279248   0.256   4.618  16.862  1.3963 -1.1236  0.5895
19253TIP3   OH279249   1.774   6.684   2.387 -0.2841  0.0415 -1.4444
19253TIP3    H179250   1.836   6.756   2.398 -1.3585  0.7426  0.6204
19253TIP3    H279251   1.724   6.707   2.308 -0.2880  1.3202 -1.0860
19254TIP3   OH279252   3.626   3.861  16.212 -0.2710 -0.0682 -0.7806
19254TIP3    H179253   3.674   3.796  16.264 -1.1620 -1.9730 -2.2423
19254TIP3    H279254   3.548   3.881  16.264 -0.5322 -0.9947 -0.8096
19255TIP3   OH279255   1.614   3.860   5.732  0.0650  0.6470 -0.0490
19255TIP3    H179256   1.646   3.847   5.643 -1.1171  2.6545 -0.8297
19255TIP3    H279257   1.693   3.879   5.783  0.7092 -0.0905 -0.7350
19256TIP3   OH279258   6.084   4.878   1.086  0.5375 -0.6006 -0.1911
19256TIP3    H179259   6.030   4.895   1.163 -0.4779 -0.5197 -0.8980
19256TIP3    H279260   6.158   4.827   1.119 -0.0005 -0.7638  0.7974
19257TIP3   OH279261   6.470   3.075   4.608 -0.8453  0.1701  0.3924
19257TIP3    H179262   6.525   3.007   4.568 -0.9172 -0.2391  0.9813
19257TIP3    H279263   6.381   3.050   4.585 -0.8415  0.3673  0.1546
19258TIP3   OH279264   3.624   2.381   5.084 -0.4040  0.8211  0.7625
19258TIP3    H179265   3.530   2.381   5.104 -0.1958  1.2147  1.8435
19258TIP3    H279266   3.664   2.336   5.159  0.3165  1.1087  0.5616
19259TIP3   OH279267   1.646   0.770  15.927 -0.1982  0.4714  0.2311
19259TIP3    H179268   1.677   0.838  15.868 -1.6885 -0.6056 -1.9255
19259TIP3    H279269   1.556   0.753  15.900 -0.9321 -0.1829  2.7858
19260TIP3   OH279270   1.452   0.289  15.974  0.0104 -0.5211  0.0758
19260TIP3    H179271   1.444   0.240  15.892  0.0733 -1.1361  0.4323
19260TIP3    H279272   1.398   0.240  16.036 -1.4796  0.8959 -0.0140
19261TIP3   OH279273   5.947   1.049  13.179 -0.4931 -0.0201  0.4320
19261TIP3    H179274   6.011   1.081  13.243 -0.1313  1.1138 -0.4664
19261TIP3    H279275   5.881   1.118  13.175  0.4120  0.8066 -1.7012
19262TIP3   OH279276   3.516   4.840  10.972  0.0096  0.2491  0.0021
19262TIP3    H179277   3.583   4.899  10.940  0.6237 -0.4366 -0.0156
19262TIP3    H279278   3.537   4.828  11.065  1.5906 -2.0755 -0.5641
19263TIP3   OH279279   1.035   4.229   1.848 -0.0530 -0.5302 -0.1030
19263TIP3    H179280   1.092   4.152   1.838 -0.4633 -1.0540  1.4281
19263TIP3    H279281   0.998   4.221   1.935  0.4139  1.7786  0.3772
19264TIP3   OH279282   2.614   6.626  15.967  0.7744  0.6342  0.0122
19264TIP3    H179283   2.648   6.698  16.021  0.9624  0.5920 -0.0492
19264TIP3    H279284   2.569   6.569  16.029  0.1503  1.0829 -0.0146
19265TIP3   OH279285   2.146   6.494   5.369 -0.0119 -0.3165 -0.4352
19265TIP3    H179286   2.110   6.491   5.281 -0.0071 -0.8510 -0.4197
19265TIP3    H279287   2.107   6.572   5.408 -0.4419 -0.3828 -0.7260
19266TIP3   OH279288   3.966   4.236  12.659 -0.4353  0.3455  0.3122
19266TIP3    H179289   3.979   4.174  12.731 -0.7565 -0.2925 -0.1769
19266TIP3    H279290   3.943   4.182  12.584  0.1274  0.9902 -0.3423
19267TIP3   OH279291   0.683   0.392   4.674 -0.2951 -0.1593 -0.3721
19267TIP3    H179292   0.753   0.366   4.734 -0.7249  0.6011  0.4854
19267TIP3    H279293   0.621   0.318   4.677 -0.8439  0.3245  0.9865
19268TIP3   OH279294   3.315   4.424  14.974  0.2479  0.9905  0.4340
19268TIP3    H179295   3.409   4.411  14.960  0.4868  1.4930  1.4983
19268TIP3    H279296   3.304   4.518  14.982 -0.0426  0.8304  2.2660
19269TIP3   OH279297   2.291   4.293   4.216  0.0650 -0.3768  0.0850
19269TIP3    H179298   2.325   4.317   4.130 -0.8001 -1.8530 -0.7180
19269TIP3    H279299   2.251   4.207   4.202 -1.0012 -0.1819  1.7312
19270TIP3   OH279300   2.814   5.449   2.129  0.3394 -0.3001  0.1292
19270TIP3    H179301   2.793   5.482   2.042  1.4506 -1.6361 -0.6753
19270TIP3    H279302   2.729   5.427   2.167 -0.0655 -2.1909 -1.6629
19271TIP3   OH279303   3.458   5.597   4.932 -0.2195 -0.3625 -0.6206
19271TIP3    H179304   3.366   5.578   4.913 -1.0116  2.2571  0.0569
19271TIP3    H279305   3.469   5.574   5.024 -0.6507  0.5879 -0.3104
19272TIP3   OH279306   2.844   1.517  14.606  0.0248  0.3579  0.3035
19272TIP3    H179307   2.887   1.539  14.524 -1.6560 -0.2463 -0.7741
19272TIP3    H279308   2.775   1.582  14.616  1.2261  1.4565  2.1368
19273TIP3   OH279309   6.798   4.938  15.512  0.0068 -0.4480 -0.2169
19273TIP3    H179310   6.886   4.902  15.503 -0.1380 -1.2701  1.2519
19273TIP3    H279311   6.747   4.892  15.445 -0.0063 -2.5437  1.1288
19274TIP3   OH279312   0.682   2.676  11.141 -0.4716  0.3124  0.4394
19274TIP3    H179313   0.749   2.729  11.097 -0.3210 -1.3995 -1.5643
19274TIP3    H279314   0.600   2.722  11.126  0.0091  1.6417  1.6144
19275TIP3   OH279315   2.246   4.407   6.066  0.0872 -0.2805 -0.4157
19275TIP3    H179316   2.195   4.487   6.052  0.6108  0.0039 -0.7558
19275TIP3    H279317   2.233   4.386   6.158  0.2303  0.4040 -0.2300
19276TIP3   OH279318   4.937   0.759   5.245 -0.0346  0.0526 -0.0381
19276TIP3    H179319   4.984   0.842   5.244  2.7980 -1.4490 -1.8861
19276TIP3    H279320   4.964   0.717   5.327  1.0957 -0.3817 -0.6240
19277TIP3   OH279321   0.027   6.386   5.647 -0.8357 -0.1976  0.1483
19277TIP3    H179322   0.106   6.395   5.701 -1.2968 -0.3487  0.8637
19277TIP3    H279323   0.012   6.292   5.644 -0.4537 -0.2447 -0.7977
19278TIP3   OH279324   1.582   0.718   2.237 -0.2444  0.1673 -0.3391
19278TIP3    H179325   1.630   0.786   2.285  0.4456 -2.0649  2.4212
19278TIP3    H279326   1.510   0.765   2.195  1.3196  2.8543 -0.2527
19279TIP3   OH279327   5.820   0.272  13.692 -0.3735  0.1575 -0.1579
19279TIP3    H179328   5.814   0.177  13.699  0.4694  0.0550 -0.6800
19279TIP3    H279329   5.733   0.300  13.665 -0.8314 -0.3845  0.6955
19280TIP3   OH279330   3.811   3.151  16.076  0.0224 -0.0620  0.4586
19280TIP3    H179331   3.720   3.180  16.088 -0.1238 -0.5852  0.6726
19280TIP3    H279332   3.858   3.229  16.048 -1.3233 -0.5990 -4.0296
19281TIP3   OH279333   3.122   4.123   0.131 -0.0764  0.2219  0.4352
19281TIP3    H179334   3.073   4.056   0.179 -1.4837  0.7509 -0.1959
19281TIP3    H279335   3.162   4.076   0.058 -0.7290  0.0000  0.2179
19282TIP3   OH279336   2.456   1.275   0.939  0.2149 -0.0652 -0.2311
19282TIP3    H179337   2.540   1.320   0.929  0.5228 -0.8557 -1.4098
19282TIP3    H279338   2.428   1.256   0.850 -0.4649 -1.1882  0.2013
19283TIP3   OH279339   5.753   1.454  14.042 -0.3256 -0.1860  0.0969
19283TIP3    H179340   5.658   1.452  14.056 -0.3373 -0.6140 -0.0190
19283TIP3    H279341   5.776   1.363  14.023 -0.1856  0.2186 -1.7948
19284TIP3   OH279342   2.359   6.296   1.242  0.1492 -0.1488  0.2890
19284TIP3    H179343   2.399   6.219   1.200 -1.5002 -1.4387  0.9512
19284TIP3    H279344   2.272   6.301   1.202  0.6974  2.2533 -0.7427
19285TIP3   OH279345   1.246   6.159   1.739 -0.1899  0.0146 -0.1730
19285TIP3    H179346   1.154   6.139   1.755  0.5225 -3.1119  0.5965
19285TIP3    H279347   1.285   6.075   1.713  2.4079  1.3009 -0.7811
19286TIP3   OH279348   0.724   3.783   0.001  0.3504 -0.4952 -0.0081
19286TIP3    H179349   0.673   3.845   0.052  0.9092 -1.1203  1.3636
19286TIP3    H279350   0.783   3.837  -0.052 -0.1905  0.1673  0.0554
19287TIP3   OH279351   0.673   5.973  11.869  0.0339  0.2721  0.0684
19287TIP3    H179352   0.677   6.054  11.920  1.6878  0.2188  0.0825
19287TIP3    H279353   0.689   6.000  11.779 -0.9984  0.1325 -0.1704
19288TIP3   OH279354   1.275   1.125   0.141 -0.0527  0.8368  0.0320
19288TIP3    H179355   1.249   1.172   0.061 -0.3309 -0.1459 -0.4604
19288TIP3    H279356   1.239   1.037   0.130  1.9297 -0.0230  0.1567
19289TIP3   OH279357   1.535   0.071  13.339 -0.0369 -0.7624  0.2219
19289TIP3    H179358   1.474   0.033  13.276 -0.6084 -1.1032  0.9688
19289TIP3    H279359   1.597   0.120  13.285 -1.2004 -0.0599 -0.5300
19290TIP3   OH279360   4.854   4.105   5.254 -0.6549  0.2262  0.1578
19290TIP3    H179361   4.905   4.026   5.274 -1.8124 -0.8819 -1.0594
19290TIP3    H279362   4.870   4.121   5.161  0.9230  2.5011  0.7357
19291TIP3   OH279363   3.106   5.488  16.008 -0.1140  0.1523 -0.4752
19291TIP3    H179364   3.095   5.407  16.058 -0.5037 -1.7950 -3.4827
19291TIP3    H279365   3.164   5.465  15.936  2.3955  3.4502  0.2279
19292TIP3   OH279366   4.858   2.986   6.454 -0.0591  0.1912  0.0522
19292TIP3    H179367   4.886   2.898   6.432  0.4665  0.3531  0.0750
19292TIP3    H279368   4.773   2.974   6.498 -0.1338 -0.2743 -0.2152
19293TIP3   OH279369   6.032   6.727  12.299  0.0568 -0.0039  0.6124
19293TIP3    H179370   6.054   6.654  12.241 -3.1653  1.1821 -2.5077
19293TIP3    H279371   6.095   6.795  12.277  2.2374 -1.2533  2.5781
19294TIP3   OH279372   0.800   3.436   5.635  0.3534  0.0500  0.5209
19294TIP3    H179373   0.839   3.457   5.550  0.3337 -1.7907  0.0059
19294TIP3    H279374   0.744   3.511   5.655 -1.3167 -0.3607 -2.1281
19295TIP3   OH279375   1.100   2.260  16.064 -0.0165  0.4309  0.0031
19295TIP3    H179376   1.089   2.202  15.989  1.5978 -0.9938  0.7905
19295TIP3    H279377   1.035   2.231  16.128  0.7397 -0.5064  0.3660
19296TIP3   OH279378   5.827   2.031  16.257  0.0205 -0.2048  0.4976
19296TIP3    H179379   5.861   2.120  16.246  0.3811 -0.3053  0.7830
19296TIP3    H279380   5.833   2.014  16.351 -1.8713  0.1887  0.7231
19297TIP3   OH279381   1.096   1.990  15.561  0.4989  0.2148  0.5871
19297TIP3    H179382   1.157   1.982  15.487 -0.1779  0.2160  0.0169
19297TIP3    H279383   1.063   1.901  15.575  0.6719  0.2038  0.9297
19298TIP3   OH279384   0.600   2.718   4.345  1.1061 -0.1106 -1.0459
19298TIP3    H179385   0.630   2.718   4.436  0.0471 -0.1738 -0.6835
19298TIP3    H279386   0.588   2.625   4.324  3.3945 -0.2652 -1.9808
19299TIP3   OH279387   4.797   2.517  14.124 -0.3809 -0.3430 -0.3700
19299TIP3    H179388   4.842   2.489  14.044  0.6627  3.7740 -1.4878
19299TIP3    H279389   4.867   2.545  14.183 -1.1662  2.7261 -0.6941
19300TIP3   OH279390   6.758   0.334  17.131  0.1245 -0.2414 -0.0938
19300TIP3    H179391   6.817   0.263  17.103  0.2317 -0.3624  0.4339
19300TIP3    H279392   6.809   0.414  17.119 -0.1946 -0.1881 -1.2447
19301TIP3   OH279393   0.351   5.841  14.064  0.1108  0.0616  0.4918
19301TIP3    H179394   0.323   5.764  14.015 -0.8397  0.6508  0.0743
19301TIP3    H279395   0.278   5.862  14.121  1.9117 -1.7788  3.7354
19302TIP3   OH279396   4.616   3.659  16.372 -0.2995 -0.9149 -0.1552
19302TIP3    H179397   4.675   3.718  16.325  1.6080 -1.2111  1.7074
19302TIP3    H279398   4.577   3.604  16.303  0.4963  0.2526 -1.5832
19303TIP3   OH279399   3.051   6.145  10.838  0.2305 -0.6167 -0.4848
19303TIP3    H179400   3.101   6.170  10.761 -0.7617  1.1732 -0.5896
19303TIP3    H279401   3.036   6.051  10.827 -3.0070  0.0744 -4.4187
19304TIP3   OH279402   0.745   3.212  10.331 -0.1126 -0.4846 -0.4192
19304TIP3    H179403   0.714   3.128  10.296 -0.4572 -0.5622  0.0755
19304TIP3    H279404   0.751   3.268  10.254 -2.2264 -0.2293 -0.4468
19305TIP3   OH279405   0.974   6.729  11.994 -0.1457  0.2767  0.4480
19305TIP3    H179406   1.046   6.737  12.057 -0.9432  1.0107  1.2974
19305TIP3    H279407   0.918   6.661  12.031  0.0123 -0.1779 -0.1305
19306TIP3   OH279408   5.683   5.242  11.800  0.6771 -0.3014 -0.4124
19306TIP3    H179409   5.593   5.250  11.830  0.7471 -0.3873 -0.1703
19306TIP3    H279410   5.706   5.329  11.768  0.3555 -0.4012 -0.9108
19307TIP3   OH279411   3.120   5.414   1.566  0.3466  0.0681 -0.2775
19307TIP3    H179412   3.113   5.320   1.584 -1.3703  0.1325 -0.4892
19307TIP3    H279413   3.093   5.423   1.474 -0.6421  0.8782  0.0690
19308TIP3   OH279414   1.686   2.531  15.942  0.4078 -0.0398  0.0226
19308TIP3    H179415   1.594   2.539  15.967  0.6022  0.2933  0.6682
19308TIP3    H279416   1.726   2.613  15.971  1.2137 -0.7887  1.1416
19309TIP3   OH279417   5.699   0.255  10.344  0.3394  0.3492  0.1450
19309TIP3    H179418   5.659   0.289  10.424 -2.5641  1.6496 -1.7012
19309TIP3    H279419   5.667   0.165  10.338 -0.2743  0.5742 -0.0376
19310TIP3   OH279420   2.422   4.446   2.719 -0.0112  0.3608  0.5231
19310TIP3    H179421   2.369   4.387   2.773  0.8295 -0.6762  0.2590
19310TIP3    H279422   2.379   4.531   2.727 -1.9523 -0.5083 -0.0199
19311TIP3   OH279423   0.175   4.865   3.838 -0.0911 -0.3635  0.5579
19311TIP3    H179424   0.132   4.950   3.846  2.9350  1.4197 -0.4020
19311TIP3    H279425   0.228   4.857   3.916 -0.4468 -1.4852  0.7027
19312TIP3   OH279426   4.229   6.726   6.207 -0.9578  0.9486  0.3808
19312TIP3    H179427   4.142   6.701   6.237 -0.2969 -0.1879  1.4372
19312TIP3    H279428   4.286   6.655   6.235  0.3701  1.8006 -0.0364
19313TIP3   OH279429   3.576   4.382   0.602  0.3536  0.4155  0.6238
19313TIP3    H179430   3.496   4.378   0.550  1.1481 -1.3722 -0.5838
19313TIP3    H279431   3.647   4.382   0.537  1.3452  0.0101  1.6751
19314TIP3   OH279432   4.738   4.539  12.626 -0.3795  0.2419 -0.4968
19314TIP3    H179433   4.763   4.630  12.643  0.2698 -0.0268  0.0152
19314TIP3    H279434   4.776   4.489  12.698 -1.6689 -0.3042 -0.1809
19315TIP3   OH279435   4.073   4.930  11.827  0.2007  0.7267 -0.1298
19315TIP3    H179436   4.131   4.874  11.879  0.3314  1.0698  0.0907
19315TIP3    H279437   3.987   4.921  11.868  0.2429  0.7738 -0.0329
19316TIP3   OH279438   3.879   2.866   1.413  0.1962 -0.2989 -0.4652
19316TIP3    H179439   3.871   2.831   1.325 -0.3833 -2.2640  0.3145
19316TIP3    H279440   3.791   2.861   1.449  0.3802  0.6933  0.1657
19317TIP3   OH279441   6.247   6.310   4.715 -0.2165  0.2431  0.2587
19317TIP3    H179442   6.337   6.343   4.719 -0.4519  0.9031  0.2012
19317TIP3    H279443   6.227   6.284   4.805 -0.8083  2.4130  0.8119
19318TIP3   OH279444   2.671   3.786   6.473 -0.0593  0.0423 -0.5547
19318TIP3    H179445   2.679   3.856   6.537  1.7619  0.4093 -1.1092
19318TIP3    H279446   2.577   3.766   6.470 -0.6187  2.3487 -0.2801
19319TIP3   OH279447   3.276   3.899  15.111 -0.3104  0.1264 -0.2794
19319TIP3    H179448   3.193   3.939  15.087  0.3300  0.0598 -2.9570
19319TIP3    H279449   3.332   3.972  15.136 -0.5120  0.4100 -0.6513
19320TIP3   OH279450   5.886   5.800   5.274  0.2737 -0.4167 -0.0692
19320TIP3    H179451   5.952   5.835   5.334  1.0563 -1.2767 -0.4109
19320TIP3    H279452   5.876   5.709   5.300  1.7403 -1.2546 -2.1328
19321TIP3   OH279453   5.184   2.410  12.935 -0.0068 -0.2818  0.6056
19321TIP3    H179454   5.210   2.344  12.871  1.8604  1.9926 -1.1329
19321TIP3    H279455   5.245   2.399  13.008  0.4269 -0.3025  0.2361
19322TIP3   OH279456   4.055   0.831   1.400  1.1302 -0.0549  0.4900
19322TIP3    H179457   4.060   0.760   1.464  0.9652  0.5037  1.1306
19322TIP3    H279458   4.113   0.899   1.435  0.4150  0.5851  0.4696
19323TIP3   OH279459   2.207   4.709  15.465 -0.2996  0.3220  0.2569
19323TIP3    H179460   2.161   4.667  15.537 -0.9669  1.8531  0.7596
19323TIP3    H279461   2.142   4.717  15.396 -0.3927  1.1479  0.4292
19324TIP3   OH279462   5.734   5.141   3.023  0.1284  0.1282  0.0690
19324TIP3    H179463   5.752   5.183   2.939 -0.2001  0.1760  0.0211
19324TIP3    H279464   5.642   5.114   3.017 -0.1848  1.0011  0.7821
19325TIP3   OH279465   0.328   0.273  13.552  0.1456 -0.0320  0.0525
19325TIP3    H179466   0.390   0.201  13.557  1.0591  0.6100 -1.3014
19325TIP3    H279467   0.374   0.348  13.590  0.0902  0.3645 -0.6363
19326TIP3   OH279468   6.195   6.093  16.124  0.2690 -0.3526  0.2180
19326TIP3    H179469   6.175   6.063  16.213  1.7401  1.2781  1.1760
19326TIP3    H279470   6.276   6.143  16.134  0.3222  0.1074 -2.0209
19327TIP3   OH279471   2.157   1.436   0.205  0.2676 -0.1413 -0.0218
19327TIP3    H179472   2.243   1.436   0.247 -1.1554  0.7674  3.1773
19327TIP3    H279473   2.096   1.414   0.275 -2.2236  0.2153 -1.9462
19328TIP3   OH279474   2.794   0.551   5.437  0.3916  0.3698 -0.1131
19328TIP3    H179475   2.887   0.555   5.460  0.5564 -1.2269 -0.3466
19328TIP3    H279476   2.755   0.497   5.506 -0.0822 -0.1651 -0.7841
19329TIP3   OH279477   4.270   3.269   5.169 -0.2784  0.4990 -0.3611
19329TIP3    H179478   4.229   3.234   5.248  0.3554  0.2929 -0.1116
19329TIP3    H279479   4.360   3.236   5.173  0.0210  1.2497 -0.6939
19330TIP3   OH279480   1.947   6.472   5.784 -0.0974  0.1721 -0.1462
19330TIP3    H179481   2.026   6.517   5.755 -1.0517  0.4031 -2.6743
19330TIP3    H279482   1.899   6.537   5.834 -0.5773  1.4502 -2.1464
19331TIP3   OH279483   4.734   0.139  16.469  0.1142  0.3003 -0.2328
19331TIP3    H179484   4.670   0.200  16.506 -0.0865  0.1852 -0.3981
19331TIP3    H279485   4.804   0.196  16.437 -1.2427  0.6438 -2.7849
19332TIP3   OH279486   1.580   3.331   0.385  0.4088 -0.5484  0.2222
19332TIP3    H179487   1.507   3.374   0.340  0.9273  0.6896  0.5251
19332TIP3    H279488   1.616   3.271   0.320  0.6183  0.6044 -0.7698
19333TIP3   OH279489   2.478   4.703  11.106 -0.7761  0.1023 -0.1480
19333TIP3    H179490   2.448   4.788  11.137  1.5543  1.0580 -0.3174
19333TIP3    H279491   2.560   4.721  11.062 -1.0865 -2.0358 -1.7534
19334TIP3   OH279492   3.111   1.492  13.090 -0.1203 -0.5736  0.6042
19334TIP3    H179493   3.166   1.542  13.151  2.0471  0.9807 -2.3184
19334TIP3    H279494   3.036   1.464  13.142  1.2276  1.1404  3.7655
19335TIP3   OH279495   4.116   2.070   5.404 -0.4152 -0.0124 -0.3465
19335TIP3    H179496   4.122   2.135   5.474 -0.3391  0.1187 -0.4744
19335TIP3    H279497   4.025   2.075   5.375 -0.4377 -0.0410 -0.2807
19336TIP3   OH279498   5.287   2.293  13.541  0.2041  0.1268 -0.4336
19336TIP3    H179499   5.345   2.298  13.617  1.0427  0.5822 -1.0954
19336TIP3    H279500   5.259   2.201  13.538 -0.6142  0.3049  0.9817
19337TIP3   OH279501   2.612   1.550   1.366  0.4102  0.0904 -0.3311
19337TIP3    H179502   2.544   1.607   1.402  0.1873 -1.5487  2.0894
19337TIP3    H279503   2.565   1.492   1.306  0.1034  0.4406 -0.4365
19338TIP3   OH279504   2.309   0.105   1.274 -0.1102 -0.0568  0.6589
19338TIP3    H179505   2.249   0.034   1.293 -0.2280  0.0047  0.5152
19338TIP3    H279506   2.394   0.073   1.305 -0.3056  0.0574  1.3122
19339TIP3   OH279507   6.146   5.979  12.299 -0.5007  0.8753  1.1480
19339TIP3    H179508   6.180   5.965  12.387 -1.1215 -2.1740  1.0032
19339TIP3    H279509   6.223   6.001  12.246  0.8266 -2.3926  1.5115
19340TIP3   OH279510   6.042   6.451   4.555  0.2467  0.0852  0.0799
19340TIP3    H179511   5.997   6.500   4.623  1.2437  0.1979  0.6785
19340TIP3    H279512   6.121   6.418   4.598  1.3383  0.8902 -1.2573
19341TIP3   OH279513   2.283   0.614  12.864 -0.2340  0.2406  0.4054
19341TIP3    H179514   2.377   0.616  12.882 -0.3049 -3.1752  1.9783
19341TIP3    H279515   2.242   0.641  12.946 -0.6166  0.8367  0.0202
19342TIP3   OH279516   3.227   5.468  14.884  0.1944  0.1235  0.3522
19342TIP3    H179517   3.156   5.437  14.941  0.6190 -0.9739  0.3064
19342TIP3    H279518   3.236   5.400  14.817 -0.4256  1.4622 -1.1799
19343TIP3   OH279519   5.089   6.720   2.902 -0.0029  0.0676 -0.2624
19343TIP3    H179520   5.117   6.702   2.992 -0.1251 -0.1633 -0.2703
19343TIP3    H279521   5.140   6.658   2.849 -0.3257 -0.1690 -0.3012
19344TIP3   OH279522   3.050   1.025  11.590  0.3650  0.3837  0.6536
19344TIP3    H179523   3.018   0.962  11.525 -0.5650 -0.9104  2.2853
19344TIP3    H279524   3.091   1.094  11.538 -1.8737  0.3091 -1.4115
19345TIP3   OH279525   5.733   2.239  16.521  0.2106  0.3973  0.1116
19345TIP3    H179526   5.759   2.312  16.578 -1.9066  1.0380  0.3552
19345TIP3    H279527   5.744   2.161  16.576 -2.0075  1.0242  1.5668
19346TIP3   OH279528   3.601   4.903   5.082  0.2442  0.3670  0.7873
19346TIP3    H179529   3.674   4.941   5.033  1.5030 -0.6061  1.8244
19346TIP3    H279530   3.525   4.956   5.058  1.0997  0.8166 -1.0598
19347TIP3   OH279531   2.690   2.983   4.395 -0.2708 -0.2480 -0.2259
19347TIP3    H179532   2.717   2.959   4.483 -0.2592  0.3278 -0.0736
19347TIP3    H279533   2.765   2.960   4.340 -1.0178 -2.5323 -0.3957
19348TIP3   OH279534   3.132   4.846   5.701  0.6583 -0.2870 -0.2446
19348TIP3    H179535   3.205   4.803   5.747 -0.1006 -0.3253  0.9558
19348TIP3    H279536   3.164   4.935   5.684  0.5468  0.0990  1.4062
19349TIP3   OH279537   6.773   4.244  15.419  0.1985 -0.0049  0.4525
19349TIP3    H179538   6.741   4.242  15.509  2.4296 -0.4766  1.2904
19349TIP3    H279539   6.831   4.320  15.416 -1.1958  1.0861 -1.1340
19350TIP3   OH279540   0.703   2.146  10.736 -0.2141  0.1393  0.2204
19350TIP3    H179541   0.746   2.227  10.762  0.1045 -0.4189  1.4974
19350TIP3    H279542   0.717   2.141  10.641  2.6582 -0.0670  0.5610
19351TIP3   OH279543   4.500   4.504   6.151 -0.1207  0.0687 -0.3382
19351TIP3    H179544   4.503   4.566   6.223  0.7355 -0.5660  0.1881
19351TIP3    H279545   4.520   4.419   6.191 -0.8502 -0.4842 -1.1112
19352TIP3   OH279546   0.830   3.985  13.973 -0.3153 -0.5715  0.0965
19352TIP3    H179547   0.777   3.918  14.016  1.1582 -1.7349  0.1749
19352TIP3    H279548   0.871   4.033  14.045  0.0900 -0.7950  0.0128
19353TIP3   OH279549   5.532   4.908  15.303  0.0684  0.6898  0.2532
19353TIP3    H179550   5.526   4.830  15.358 -1.0396  1.3322  1.0737
19353TIP3    H279551   5.597   4.885  15.236 -0.1668 -0.8880  0.5324
19354TIP3   OH279552   4.679   5.313   0.286  0.3333  0.6607 -0.3491
19354TIP3    H179553   4.757   5.321   0.231  0.1165  0.9118 -0.6267
19354TIP3    H279554   4.686   5.384   0.350 -0.1595  1.3212 -1.0046
19355TIP3   OH279555   1.115   6.275   1.282 -0.4474  0.2451 -0.7173
19355TIP3    H179556   1.072   6.348   1.327 -2.4419 -1.3954  0.1739
19355TIP3    H279557   1.129   6.307   1.193 -2.1917  1.3878 -0.6290
19356TIP3   OH279558   1.511   0.989  11.839  0.1233 -0.6346  0.4750
19356TIP3    H179559   1.516   1.059  11.773  0.2196  0.0743  1.2100
19356TIP3    H279560   1.418   0.974  11.851  0.1012 -0.6339  0.2953
19357TIP3   OH279561   5.409   4.221  10.520 -0.1147  0.2190 -0.4877
19357TIP3    H179562   5.389   4.166  10.444  3.2927 -1.1507 -0.5921
19357TIP3    H279563   5.419   4.160  10.593  1.2306  0.9147 -0.0423
19358TIP3   OH279564   3.674   4.356  13.906 -0.1505 -0.2969  0.5957
19358TIP3    H179565   3.627   4.439  13.917 -0.7397 -0.6832  1.1229
19358TIP3    H279566   3.611   4.289  13.935  0.3706 -0.9142  0.3392
19359TIP3   OH279567   6.477   6.413   0.449 -0.0450  0.2972 -0.0306
19359TIP3    H179568   6.493   6.476   0.379 -0.7697 -0.6420 -1.0804
19359TIP3    H279569   6.386   6.386   0.436 -0.4307  0.6413  1.7369
19360TIP3   OH279570   3.397   0.992  17.128  0.0759 -0.1809  0.0287
19360TIP3    H179571   3.403   0.925  17.059  0.6106 -0.6459  0.5071
19360TIP3    H279572   3.455   1.062  17.099 -0.5003  0.0928 -0.4849
19361TIP3   OH279573   4.542   4.497  12.969  0.2819  0.0605 -0.5292
19361TIP3    H179574   4.636   4.493  12.955  0.3261  0.2719 -0.3045
19361TIP3    H279575   4.508   4.541  12.891  0.4539  0.6543 -0.2801
19362TIP3   OH279576   0.532   6.361  13.270 -1.3453  0.2630  0.4764
19362TIP3    H179577   0.456   6.326  13.222  1.1605 -1.3514 -2.6981
19362TIP3    H279578   0.575   6.284  13.306  0.0886  0.8646  0.1035
19363TIP3   OH279579   3.874   1.503  16.390 -0.2310  1.1091 -0.4990
19363TIP3    H179580   3.923   1.421  16.392  0.3992  1.4828  0.9946
19363TIP3    H279581   3.785   1.477  16.365 -0.2391 -0.1608  0.7231
19364TIP3   OH279582   5.420   6.512  16.773  0.3938  0.2345  0.0246
19364TIP3    H179583   5.336   6.516  16.819  0.5838 -1.8257  0.6363
19364TIP3    H279584   5.401   6.467  16.691  0.2817  2.8830 -1.5021
19365TIP3   OH279585   2.192   3.941   5.040  0.4068  0.0500 -0.4476
19365TIP3    H179586   2.101   3.912   5.027  0.9778 -2.1227 -0.0078
19365TIP3    H279587   2.215   3.986   4.959 -0.1591 -1.9553 -1.7967
19366TIP3   OH279588   1.461   6.145  14.831 -0.1913  0.2807 -0.9679
19366TIP3    H179589   1.388   6.093  14.862 -0.7825  0.7827 -1.4856
19366TIP3    H279590   1.539   6.101  14.865 -0.7901  0.8322  1.2414
19367TIP3   OH279591   1.486   6.634  16.417  0.2218 -0.6446  0.1942
19367TIP3    H179592   1.503   6.727  16.397 -1.2669 -0.3388  0.2702
19367TIP3    H279593   1.520   6.587  16.340  0.4336  0.0043 -0.1176
19368TIP3   OH279594   5.179   3.506  14.617  0.4472 -0.6579  0.4340
19368TIP3    H179595   5.233   3.503  14.538  0.7642  1.2141  0.5346
19368TIP3    H279596   5.142   3.418  14.624  1.0364 -1.0890 -1.3484
19369TIP3   OH279597   0.893   1.372  15.818  0.0208 -0.4710 -0.1569
19369TIP3    H179598   0.938   1.312  15.759 -2.5300 -1.1363 -1.5854
19369TIP3    H279599   0.806   1.333  15.830 -1.4519  2.4598 -0.4236
19370TIP3   OH279600   0.025   2.711  12.959  0.3491 -0.4417 -0.2353
19370TIP3    H179601  -0.002   2.794  12.920  1.3790 -0.4140 -0.9267
19370TIP3    H279602   0.120   2.708  12.946  0.6818 -0.6541  1.8905
19371TIP3   OH279603   1.359   6.047   4.699  0.3473 -0.0240 -0.0880
19371TIP3    H179604   1.278   6.098   4.694  0.8797  0.7492 -1.0556
19371TIP3    H279605   1.342   5.970   4.645 -0.6697 -1.2572  1.8421
19372TIP3   OH279606   2.132   0.816  13.331 -0.3723 -0.2463  0.4159
19372TIP3    H179607   2.203   0.779  13.383  1.1429  1.0234 -0.6580
19372TIP3    H279608   2.057   0.759  13.348  1.0258 -1.9159  1.2058
19373TIP3   OH279609   4.137   6.744  16.934  0.1725 -0.3633  0.1898
19373TIP3    H179610   4.176   6.789  17.009 -1.0028 -0.7541  1.0715
19373TIP3    H279611   4.117   6.814  16.872  0.5657  0.0461  0.5135
19374TIP3   OH279612   0.873   4.785   4.345  0.2275  0.1970  0.0556
19374TIP3    H179613   0.928   4.752   4.273  0.6145  0.9437  0.0011
19374TIP3    H279614   0.813   4.713   4.363  0.4943 -0.2175 -0.6388
19375TIP3   OH279615   5.741   0.198  14.930 -0.0102 -0.4982  0.5800
19375TIP3    H179616   5.778   0.126  14.881 -0.6265  0.5571 -1.5338
19375TIP3    H279617   5.743   0.272  14.870 -1.4322  0.7082  1.9240
19376TIP3   OH279618   4.801   2.597  17.115 -0.0648  0.1631  0.2627
19376TIP3    H179619   4.812   2.590  17.020  0.4289  2.2922  0.1192
19376TIP3    H279620   4.768   2.511  17.142 -0.2490 -0.4652 -1.8272
19377TIP3   OH279621   1.369   1.123  14.209  0.2616 -0.1129 -0.3916
19377TIP3    H179622   1.383   1.155  14.119 -1.3422 -1.1757 -1.0604
19377TIP3    H279623   1.444   1.157  14.258  0.5929  1.4451 -1.8762
19378TIP3   OH279624   3.276   4.451  14.555 -0.6656 -0.8275 -0.7432
19378TIP3    H179625   3.345   4.516  14.570  0.5643 -2.2931  0.2419
19378TIP3    H279626   3.200   4.487  14.600 -0.0285 -0.0354 -0.2607
19379TIP3   OH279627   2.162   5.549   4.707 -0.4859 -0.1678  0.4344
19379TIP3    H179628   2.132   5.478   4.649  0.1179  1.1858 -1.6315
19379TIP3    H279629   2.254   5.561   4.685 -0.6240  1.3742  0.6055
19380TIP3   OH279630   3.774   6.357  13.027  0.0918  0.1205 -0.4758
19380TIP3    H179631   3.823   6.360  13.109 -2.9302  1.5923  1.4748
19380TIP3    H279632   3.810   6.429  12.975  1.7428 -0.5423 -0.3164
19381TIP3   OH279633   3.576   1.038  13.715  0.2343 -0.1420 -0.0895
19381TIP3    H179634   3.598   1.131  13.714  1.0030 -0.3143  0.3833
19381TIP3    H279635   3.631   1.001  13.784 -1.3821 -0.6314  0.9898
19382TIP3   OH279636   2.708   3.094   4.981 -0.1618 -0.3742 -0.2397
19382TIP3    H179637   2.618   3.124   4.993  0.6058  1.1550  2.5914
19382TIP3    H279638   2.700   3.014   4.928 -3.0832  0.0637 -0.6164
19383TIP3   OH279639   4.272   3.675   2.833  0.1618  0.1377  0.3735
19383TIP3    H179640   4.244   3.630   2.913 -0.8030 -1.3997 -0.7787
19383TIP3    H279641   4.326   3.748   2.865 -0.3430 -0.3058  2.4212
19384TIP3   OH279642   5.821   5.253   2.703 -0.0920 -0.4966 -0.4153
19384TIP3    H179643   5.881   5.266   2.630  0.2550 -1.6536 -0.3562
19384TIP3    H279644   5.742   5.300   2.677  1.0529  1.6743 -0.1550
19385TIP3   OH279645   3.726   5.504   0.680  0.0155 -0.1315  0.0258
19385TIP3    H179646   3.724   5.580   0.737 -0.2646  0.4904 -0.7885
19385TIP3    H279647   3.672   5.439   0.725 -1.4919  0.8780 -0.2329
19386TIP3   OH279648   4.545   6.014  11.873  0.1924  0.0491 -0.3256
19386TIP3    H179649   4.535   6.108  11.893 -0.0759  0.1788 -1.0238
19386TIP3    H279650   4.604   5.981  11.940  1.1081  0.9440 -0.6687
19387TIP3   OH279651   2.335   4.935   0.848 -0.4654 -0.8937 -0.2777
19387TIP3    H179652   2.308   5.003   0.785  0.0432 -2.3791 -2.1990
19387TIP3    H279653   2.410   4.972   0.893 -0.4040 -0.0452 -1.0506
19388TIP3   OH279654   6.280   4.529   2.557 -0.2320  0.4897  0.5409
19388TIP3    H179655   6.294   4.602   2.618 -1.3495  0.2440  1.1267
19388TIP3    H279656   6.240   4.570   2.480  1.0131  0.7740  0.0180
19389TIP3   OH279657   4.266   4.182  13.563 -0.2516  0.4978 -0.3631
19389TIP3    H179658   4.275   4.087  13.571 -0.7418  0.5030  0.2154
19389TIP3    H279659   4.215   4.194  13.483  1.2291  0.3414 -1.3888
19390TIP3   OH279660   6.431   2.661   5.332  0.2545  0.4402 -0.0545
19390TIP3    H179661   6.351   2.671   5.281  1.0225  0.8516 -1.2359
19390TIP3    H279662   6.469   2.749   5.336  0.3622  0.3551  0.9813
19391TIP3   OH279663   4.336   6.714  11.431  0.0904 -0.1709 -0.2463
19391TIP3    H179664   4.291   6.648  11.483 -0.0207 -1.8442 -2.3268
19391TIP3    H279665   4.427   6.710  11.461  0.2112 -1.7320 -0.7440
19392TIP3   OH279666   4.546   4.468   4.320 -0.3381  0.5382  0.0249
19392TIP3    H179667   4.552   4.426   4.406  0.5874 -0.0723 -0.3194
19392TIP3    H279668   4.545   4.561   4.339  0.2058  0.4166  0.6863
19393TIP3   OH279669   3.423   2.619   3.352 -0.0582  0.1008 -0.4830
19393TIP3    H179670   3.454   2.528   3.354  0.5182  0.2983 -0.2067
19393TIP3    H279671   3.332   2.613   3.322 -0.5160 -0.6898  1.0038
19394TIP3   OH279672   6.728   3.191   2.288  0.2310 -0.0616  0.3436
19394TIP3    H179673   6.777   3.269   2.261 -0.2110 -0.0619 -0.4814
19394TIP3    H279674   6.769   3.165   2.371  0.4855  0.9501  0.5505
19395TIP3   OH279675   5.335   4.848  11.475 -0.2035  0.5301 -0.1032
19395TIP3    H179676   5.329   4.864  11.380  0.2452 -0.5709 -0.3304
19395TIP3    H279677   5.425   4.820  11.489  0.1307  1.9735  0.8857
19396TIP3   OH279678   6.028   5.437   5.645  0.4058 -0.7027 -0.9142
19396TIP3    H179679   6.007   5.522   5.683 -0.3370 -0.6247 -1.4659
19396TIP3    H279680   6.122   5.441   5.626  0.7214 -0.6106  0.5254
19397TIP3   OH279681   2.185   4.060   4.181 -0.2610 -0.5458  0.3310
19397TIP3    H179682   2.253   4.033   4.119  1.6097 -1.9624  2.8248
19397TIP3    H279683   2.133   3.981   4.196 -0.1117 -0.4919  1.2080
19398TIP3   OH279684   2.094   5.462   5.703 -0.2509  0.8356  0.2303
19398TIP3    H179685   2.001   5.468   5.680  0.3112 -0.8142 -3.1290
19398TIP3    H279686   2.102   5.379   5.750 -0.5758  1.4282  1.3569
19399TIP3   OH279687   0.787   6.790   0.897  0.1196 -0.3124  0.0114
19399TIP3    H179688   0.857   6.725   0.891  0.2296 -0.3126  1.1357
19399TIP3    H279689   0.787   6.834   0.812  1.1602 -0.6439 -0.1646
19400TIP3   OH279690   1.791   2.146  11.986 -0.3612 -0.2749  0.3768
19400TIP3    H179691   1.883   2.156  12.009 -0.1239  0.3360 -0.7864
19400TIP3    H279692   1.787   2.167  11.893 -1.8966  1.1117  0.7069
19401TIP3   OH279693   1.902   1.530  13.539  0.0291 -0.1305 -0.6671
19401TIP3    H179694   1.923   1.576  13.620  0.5362 -1.1395 -0.2071
19401TIP3    H279695   1.941   1.585  13.470  0.7290  0.0661 -0.1252
19402TIP3   OH279696   6.702   6.631   1.319  0.2762 -0.3826  0.1530
19402TIP3    H179697   6.650   6.553   1.299  0.4764  0.1583 -3.1843
19402TIP3    H279698   6.771   6.600   1.378 -1.2567 -2.0578  1.1547
19403TIP3   OH279699   5.483   3.847  12.074 -0.1008  0.3761 -0.3016
19403TIP3    H179700   5.415   3.912  12.056 -0.4155  0.0617 -0.2759
19403TIP3    H279701   5.442   3.763  12.053  1.0897  0.3108 -2.7333
19404TIP3   OH279702   4.884   6.065  12.133 -0.2899  0.1850  0.0163
19404TIP3    H179703   4.948   6.108  12.190  0.7444 -0.0202 -0.9540
19404TIP3    H279704   4.914   6.084  12.045 -1.1679 -0.5413 -0.4572
19405TIP3   OH279705   4.425   2.886  11.996 -0.2912 -0.0516 -0.1332
19405TIP3    H179706   4.380   2.860  12.076 -2.0043 -0.7317 -1.2633
19405TIP3    H279707   4.364   2.944  11.951  0.6383  0.3063 -0.9752
19406TIP3   OH279708   5.953   4.021   1.851 -0.2674  0.0124  0.2156
19406TIP3    H179709   5.985   4.005   1.762  0.2694  0.7731  0.2549
19406TIP3    H279710   5.869   3.976   1.855  1.0976 -2.7223  0.3395
19407TIP3   OH279711   6.795   3.523   0.491  0.1188  0.4705  0.5709
19407TIP3    H179712   6.740   3.500   0.415  0.3917  0.9165  0.2295
19407TIP3    H279713   6.733   3.559   0.555 -0.0567  0.5193  0.3756
19408TIP3   OH279714   3.834   3.438   1.875  0.3334  0.0593  0.2500
19408TIP3    H179715   3.794   3.492   1.807 -2.1840  0.8629  2.2327
19408TIP3    H279716   3.857   3.499   1.945  1.7450 -0.8856  0.6619
19409TIP3   OH279717   3.519   3.593  13.577  0.1692  0.3281  0.0081
19409TIP3    H179718   3.534   3.632  13.663 -0.9760 -0.1533  0.4442
19409TIP3    H279719   3.424   3.593  13.566  0.3073  0.7440 -1.4378
19410TIP3   OH279720   2.842   6.189   0.203  0.2725 -0.1085 -0.2611
19410TIP3    H179721   2.930   6.150   0.201 -0.2682 -1.4021 -0.0762
19410TIP3    H279722   2.792   6.132   0.262 -0.2462  1.6257  1.0335
19411TIP3   OH279723   1.815   5.322   2.887 -0.1701  0.0249 -0.3497
19411TIP3    H179724   1.868   5.396   2.916  1.3631 -0.9138 -0.6705
19411TIP3    H279725   1.782   5.349   2.801  2.1060 -0.4345 -1.4389
19412TIP3   OH279726   0.932   3.613  16.994  0.0935 -0.5045  0.0240
19412TIP3    H179727   0.966   3.690  16.948  2.6300 -0.3036  2.0350
19412TIP3    H279728   0.874   3.649  17.061  0.6994 -0.3777  0.4861
19413TIP3   OH279729   1.431   4.545  11.936  0.0329  0.0233  0.7033
19413TIP3    H179730   1.390   4.466  11.903 -1.6745  0.7336  1.0146
19413TIP3    H279731   1.381   4.617  11.897  2.1124  1.0116 -0.3159
19414TIP3   OH279732   4.816   1.746   1.872 -0.1645 -0.4278 -0.1721
19414TIP3    H179733   4.790   1.839   1.871  0.7508 -0.1238  1.3656
19414TIP3    H279734   4.890   1.742   1.932  1.0223 -1.8835 -1.6197
19415TIP3   OH279735   5.486   1.897  11.417 -0.3484  0.8659  0.5432
19415TIP3    H179736   5.486   1.813  11.462 -0.6794  1.3137  1.4082
19415TIP3    H279737   5.535   1.956  11.475  0.8327  1.0206 -0.5650
19416TIP3   OH279738   4.327   5.672  12.718  0.0001  0.1234 -0.0881
19416TIP3    H179739   4.406   5.631  12.683  0.1022  1.3527 -1.3913
19416TIP3    H279740   4.348   5.688  12.811  0.8092 -0.6450 -0.1252
19417TIP3   OH279741   0.264   5.464  16.068 -0.1212 -0.2447  0.3183
19417TIP3    H179742   0.207   5.393  16.036 -0.2733 -0.5101  1.1483
19417TIP3    H279743   0.203   5.529  16.102  0.0342  0.1117 -0.0723
19418TIP3   OH279744   3.672   0.699  16.958 -0.1565  0.4319  0.2882
19418TIP3    H179745   3.604   0.764  16.940  1.6629  1.6652 -3.0060
19418TIP3    H279746   3.643   0.621  16.912  0.5259  0.9226 -1.0214
19419TIP3   OH279747   6.160   3.204   3.475 -0.3481  0.3745 -0.6743
19419TIP3    H179748   6.250   3.216   3.444 -0.0306 -0.1613  0.0139
19419TIP3    H279749   6.123   3.293   3.476  0.3618  0.6760 -0.4228
19420TIP3   OH279750   1.220   1.653  12.921 -0.0433  0.0418  0.2830
19420TIP3    H179751   1.228   1.661  13.016 -1.3720  0.5695  0.3747
19420TIP3    H279752   1.213   1.559  12.906 -0.9639 -0.0017  0.8418
19421TIP3   OH279753   3.396   5.402  16.703 -0.5499 -0.9857 -0.0935
19421TIP3    H179754   3.380   5.350  16.624  1.8466  0.0435 -1.3439
19421TIP3    H279755   3.422   5.488  16.671  0.3270 -0.4716  1.8207
19422TIP3   OH279756   0.004   4.572   2.143 -0.2127 -0.4102 -0.2511
19422TIP3    H179757  -0.032   4.484   2.129  0.0903 -0.6869  0.6741
19422TIP3    H279758   0.095   4.566   2.114 -0.4372 -0.1464 -1.0446
19423TIP3   OH279759   1.036   1.123  16.757  0.0329  0.7913  0.3720
19423TIP3    H179760   1.082   1.039  16.761  0.3507  1.0079  1.7043
19423TIP3    H279761   1.020   1.137  16.664  1.2696 -0.0531  0.0037
19424TIP3   OH279762   0.546   3.120   1.209  0.5088 -0.4850 -0.1045
19424TIP3    H179763   0.503   3.041   1.240 -1.7851  0.3163 -1.0089
19424TIP3    H279764   0.510   3.135   1.122  1.5597  1.0585 -0.3253
19425TIP3   OH279765   5.630   6.155  16.669  0.4439 -0.0735  0.0782
19425TIP3    H179766   5.600   6.239  16.633  1.8813  0.1843 -0.6030
19425TIP3    H279767   5.628   6.095  16.594  0.5324 -0.3503  0.2957
19426TIP3   OH279768   5.270   1.614   5.654  0.2766 -0.2374 -0.7101
19426TIP3    H179769   5.249   1.663   5.574  0.2028 -0.3385 -0.7541
19426TIP3    H279770   5.352   1.568   5.633  0.5172  0.1189 -0.5555
19427TIP3   OH279771   5.371   3.385   2.988  0.0243 -0.1469 -0.8289
19427TIP3    H179772   5.387   3.342   2.904  1.9314  0.3362 -0.7565
19427TIP3    H279773   5.429   3.461   2.988 -0.1051 -0.0062  0.8294
19428TIP3   OH279774   2.258   1.841  15.048  0.0579  0.1906 -0.0960
19428TIP3    H179775   2.167   1.870  15.053 -0.1923 -0.7858  3.6753
19428TIP3    H279776   2.252   1.746  15.034  0.5304  0.1911 -0.3161
19429TIP3   OH279777   4.555   1.467  14.521 -0.3006 -0.2120 -0.1430
19429TIP3    H179778   4.462   1.446  14.530 -0.5556  1.2326  0.8406
19429TIP3    H279779   4.557   1.561  14.504  1.0380  0.8602  4.3796
19430TIP3   OH279780   1.135   0.234   5.557 -0.1039  0.5783  0.1444
19430TIP3    H179781   1.183   0.153   5.545  0.9879  1.1060  0.7856
19430TIP3    H279782   1.201   0.297   5.588 -0.9737  1.6335 -0.0748
19431TIP3   OH279783   0.704   3.822   2.265  0.1578  0.0418 -0.4160
19431TIP3    H179784   0.654   3.901   2.244 -0.6512 -0.0143  1.1733
19431TIP3    H279785   0.736   3.836   2.354 -0.6473 -1.7242  0.1962
19432TIP3   OH279786   3.795   6.591   4.631  0.3155 -0.2542 -0.3727
19432TIP3    H179787   3.704   6.608   4.656  1.3756 -0.1085  4.4799
19432TIP3    H279788   3.816   6.660   4.568 -2.5959  0.3228 -0.8563
19433TIP3   OH279789   1.733   4.146   6.111 -0.5062  0.4664  0.1119
19433TIP3    H179790   1.643   4.138   6.141 -0.6236  1.5438  0.0849
19433TIP3    H279791   1.784   4.167   6.189 -0.6993  2.5026 -0.2395
19434TIP3   OH279792   3.450   6.215  14.729 -0.6597 -0.2116  0.4278
19434TIP3    H179793   3.408   6.285  14.679 -0.5402  0.5480  1.3484
19434TIP3    H279794   3.544   6.234  14.723 -0.6541  0.0226  1.0975
19435TIP3   OH279795   2.630   0.728  14.333 -0.1811  0.7067  0.5101
19435TIP3    H179796   2.574   0.651  14.332  0.0703  0.5063  1.0324
19435TIP3    H279797   2.616   0.766  14.420  0.1720  0.8916  0.4897
19436TIP3   OH279798   6.110   5.190  14.419 -0.4234  0.4655 -0.2601
19436TIP3    H179799   6.018   5.198  14.443 -0.4603  1.6746 -0.7440
19436TIP3    H279800   6.153   5.261  14.465  0.0441  0.7281 -1.0751
19437TIP3   OH279801   3.438   6.337   4.553 -0.1539 -0.1484  0.0154
19437TIP3    H179802   3.497   6.378   4.490  0.4567  1.1332  1.3721
19437TIP3    H279803   3.371   6.295   4.498  1.8297 -1.4798 -1.5631
19438TIP3   OH279804   1.978   2.565  13.493  0.3645  0.4983  0.2202
19438TIP3    H179805   2.073   2.560  13.488  0.3490 -0.1774  0.5446
19438TIP3    H279806   1.953   2.493  13.551 -0.3397  0.6983  0.1718
19439TIP3   OH279807   0.934   5.113  16.053 -0.6576 -0.5157  0.0046
19439TIP3    H179808   1.028   5.130  16.056 -0.8317  0.6477 -0.6830
19439TIP3    H279809   0.924   5.041  15.992 -0.0725 -1.8951  1.4719
19440TIP3   OH279810   0.110   4.774  15.132 -0.4220  0.4434 -0.2997
19440TIP3    H179811   0.017   4.791  15.145 -0.2462 -0.0220  1.8691
19440TIP3    H279812   0.113   4.690  15.086 -1.0734  0.1066  0.2622
19441TIP3   OH279813   0.331   0.413   5.440  0.4564 -0.5136  0.2613
19441TIP3    H179814   0.324   0.441   5.349  1.6781 -2.4163 -0.4805
19441TIP3    H279815   0.379   0.484   5.483 -1.8688  1.3536 -0.0246
19442TIP3   OH279816   3.999   3.485  13.533  0.0830 -0.5637  0.0683
19442TIP3    H179817   4.004   3.547  13.461 -2.2024 -1.6047 -1.1094
19442TIP3    H279818   4.056   3.412  13.506  0.8374 -0.0665  0.3000
19443TIP3   OH279819   5.073   1.768   3.427 -0.3975 -0.1334 -0.2506
19443TIP3    H179820   5.052   1.724   3.509  0.8069  1.3407  0.9270
19443TIP3    H279821   5.165   1.793   3.436 -0.9062  2.3279 -0.9042
19444TIP3   OH279822   1.290   0.825   0.782  0.2457  0.4589 -0.0678
19444TIP3    H179823   1.337   0.808   0.701  1.0818 -2.0982  0.8467
19444TIP3    H279824   1.242   0.744   0.800 -3.0776  2.2717  0.0621
19445TIP3   OH279825   3.088   1.942  15.087 -0.8685 -0.5255 -0.1068
19445TIP3    H179826   3.073   2.027  15.128 -2.3771 -0.5911 -0.4835
19445TIP3    H279827   3.118   1.886  15.159 -0.3394  0.1853  0.2367
19446TIP3   OH279828   5.786   0.283  11.829  0.4028 -0.1334 -0.1387
19446TIP3    H179829   5.812   0.246  11.744  1.2878 -0.9963  0.4717
19446TIP3    H279830   5.787   0.377  11.816 -0.3016 -0.2741 -1.3102
19447TIP3   OH279831   3.099   4.990   0.357 -0.4508 -0.0899  0.0020
19447TIP3    H179832   3.141   5.055   0.300 -1.7198  1.3292  0.6297
19447TIP3    H279833   3.126   4.906   0.320  3.5603  0.6399  0.8006
19448TIP3   OH279834   1.590   1.260  17.100 -0.2299  0.3128  0.4414
19448TIP3    H179835   1.645   1.198  17.148 -0.5234 -0.1518  0.1823
19448TIP3    H279836   1.533   1.205  17.046 -0.1015  0.8195 -0.2249
19449TIP3   OH279837   0.280   3.827   4.697  0.2160 -0.2465  0.0149
19449TIP3    H179838   0.230   3.855   4.774  1.6036 -3.1470  2.1774
19449TIP3    H279839   0.270   3.732   4.695  3.4711 -0.6976 -0.9559
19450TIP3   OH279840   5.678   5.603  10.657  0.4587  0.4714 -0.4364
19450TIP3    H179841   5.594   5.566  10.683  0.6232  0.6287  0.3457
19450TIP3    H279842   5.701   5.556  10.577  0.5564 -0.9903  0.4022
19451TIP3   OH279843   5.909   1.696  15.658 -0.0367  0.2277  0.4711
19451TIP3    H179844   6.000   1.724  15.662 -0.5827  1.9723  1.2944
19451TIP3    H279845   5.893   1.653  15.742 -0.0038 -0.0424  0.3425
19452TIP3   OH279846   5.465   1.400  13.203  0.1684 -0.1291  0.3169
19452TIP3    H179847   5.555   1.433  13.201 -0.0237  0.4206  0.5762
19452TIP3    H279848   5.434   1.418  13.291 -0.9152  1.6653 -0.3714
19453TIP3   OH279849   3.734   0.563   1.197  0.0813  0.3557  0.0826
19453TIP3    H179850   3.743   0.549   1.102  2.0020  1.3983  0.0422
19453TIP3    H279851   3.753   0.656   1.209  1.1900 -0.0288  1.6112
19454TIP3   OH279852   6.339   1.520  11.564 -0.0526 -0.1864 -0.4337
19454TIP3    H179853   6.420   1.568  11.550 -0.5192  1.2721  1.3476
19454TIP3    H279854   6.312   1.491  11.477  1.5070  0.7266 -1.2616
19455TIP3   OH279855   3.932   4.449  13.857 -0.2167  0.1288  0.3466
19455TIP3    H179856   3.985   4.384  13.812 -0.9568  0.0548 -0.4480
19455TIP3    H279857   3.845   4.410  13.862 -0.1143  0.0465  2.0490
19456TIP3   OH279858   2.373   2.282  13.042 -0.5608  0.1518 -0.0413
19456TIP3    H179859   2.456   2.309  13.082 -0.1005  1.2474 -1.6278
19456TIP3    H279860   2.362   2.191  13.068  1.2432 -0.0675  0.0610
19457TIP3   OH279861   0.773   0.136  15.518 -0.9224  0.0205 -0.2569
19457TIP3    H179862   0.688   0.095  15.534  0.0798 -2.5206 -0.8302
19457TIP3    H279863   0.837   0.068  15.543  0.9114  1.4007 -0.9558
19458TIP3   OH279864   2.358   6.372  13.790 -0.4940  0.4439  0.1561
19458TIP3    H179865   2.439   6.320  13.787 -1.5740 -1.2902 -1.5219
19458TIP3    H279866   2.317   6.348  13.873  0.0155  0.1890  0.3370
19459TIP3   OH279867   5.593   0.503   2.707 -0.3432 -0.2863  0.4420
19459TIP3    H179868   5.592   0.408   2.710 -0.3089 -0.3091  4.0691
19459TIP3    H279869   5.686   0.526   2.709 -0.2287 -0.0521 -2.7608
19460TIP3   OH279870   3.225   3.002  15.536  0.1052  0.0497  0.4595
19460TIP3    H179871   3.195   2.951  15.612 -3.0675  0.4335 -0.3677
19460TIP3    H279872   3.183   3.087  15.547 -0.6430  0.0446 -1.7945
19461TIP3   OH279873   3.913   2.750  12.709 -0.0933  0.5764  0.1771
19461TIP3    H179874   3.934   2.667  12.665 -1.3417  0.1120  0.4124
19461TIP3    H279875   3.989   2.805  12.693  0.6711 -0.5421 -0.1713
19462TIP3   OH279876   1.392   1.581   4.082 -0.1569 -0.5581  0.5439
19462TIP3    H179877   1.466   1.534   4.121 -0.2436  0.8103  2.5368
19462TIP3    H279878   1.331   1.593   4.155 -1.2196  0.4787 -0.4807
19463TIP3   OH279879   4.406   0.451   4.628 -0.7827 -0.3376  0.1768
19463TIP3    H179880   4.463   0.507   4.682 -1.6500 -1.3513  2.2637
19463TIP3    H279881   4.396   0.500   4.547 -0.7000  2.1034  1.5125
19464TIP3   OH279882   6.434   4.430  12.953 -0.3485 -0.2795 -0.7308
19464TIP3    H179883   6.433   4.339  12.923  0.2303 -0.3391 -0.5774
19464TIP3    H279884   6.487   4.429  13.032  0.9485  0.4303 -1.5490
19465TIP3   OH279885   0.351   4.117  12.308  0.3434 -0.0129 -0.8734
19465TIP3    H179886   0.340   4.082  12.396  2.1869  1.0839 -0.1618
19465TIP3    H279887   0.278   4.079  12.258 -0.6489 -0.7773  1.0571
19466TIP3   OH279888   6.448   3.750  12.665  0.0848  0.1536  0.2313
19466TIP3    H179889   6.367   3.755  12.715  0.0895 -0.4570  0.3039
19466TIP3    H279890   6.421   3.758  12.574 -0.5363 -3.6645 -0.0932
19467TIP3   OH279891   0.694   6.272   4.915 -0.3606  0.2026  0.3143
19467TIP3    H179892   0.603   6.246   4.901 -0.1249 -1.1856  1.2069
19467TIP3    H279893   0.691   6.368   4.921 -1.4828  0.3264 -1.5221
19468TIP3   OH279894   5.530   2.028  14.746  0.0218  0.1594  0.2226
19468TIP3    H179895   5.493   2.114  14.726  0.9467  0.4428 -0.3378
19468TIP3    H279896   5.455   1.975  14.773 -1.3008 -0.0595 -3.3646
19469TIP3   OH279897   0.577   6.288  16.674  0.3942 -0.5892  0.4179
19469TIP3    H179898   0.530   6.235  16.610 -0.4902 -2.1490  2.2755
19469TIP3    H279899   0.522   6.365  16.687  0.8457  0.0147 -1.0308
19470TIP3   OH279900   4.327   3.696   6.312  0.1247  0.1797  0.0465
19470TIP3    H179901   4.384   3.746   6.254  0.5519  1.0331  1.1606
19470TIP3    H279902   4.297   3.622   6.259  0.9718  0.6035 -1.0573
19471TIP3   OH279903   2.832   5.667   3.406  0.2075  0.1858  0.4185
19471TIP3    H179904   2.798   5.756   3.393 -0.1787  0.0902  0.7497
19471TIP3    H279905   2.905   5.660   3.345 -0.3546  0.3981 -0.2812
19472TIP3   OH279906   2.408   6.095  16.889  0.4257  0.0878 -0.5357
19472TIP3    H179907   2.501   6.102  16.866  0.4226  0.0921 -0.5458
19472TIP3    H279908   2.372   6.181  16.867 -0.0199 -0.5376 -2.5037
19473TIP3   OH279909   2.444   6.724  14.088 -0.4348 -0.2136  0.2768
19473TIP3    H179910   2.484   6.669  14.155 -1.2703 -0.9582  0.1796
19473TIP3    H279911   2.405   6.797  14.137  0.1239 -0.0360  0.4630
19474TIP3   OH279912   2.797   0.877  13.160  0.3251 -0.5036  0.0430
19474TIP3    H179913   2.770   0.785  13.157 -0.8689 -0.1407 -1.2180
19474TIP3    H279914   2.772   0.906  13.248 -0.7636 -0.9610 -0.1048
19475TIP3   OH279915   5.732   3.352   0.423  1.4031  0.2759  0.0209
19475TIP3    H179916   5.673   3.278   0.437  1.5349 -0.1494 -1.4551
19475TIP3    H279917   5.693   3.400   0.349  1.4949  1.5006  0.7376
19476TIP3   OH279918   5.215   5.455  16.199 -0.1675  0.1935 -0.5254
19476TIP3    H179919   5.268   5.528  16.169  0.8577 -0.3694 -0.1162
19476TIP3    H279920   5.212   5.394  16.125  1.8540 -0.9117  0.2253
19477TIP3   OH279921   2.539   3.204   0.313  0.0465 -0.0761  0.5335
19477TIP3    H179922   2.561   3.283   0.363  2.0513  0.0987 -0.5204
19477TIP3    H279923   2.568   3.223   0.224 -1.3886 -1.2327 -0.2320
19478TIP3   OH279924   2.789   3.268  10.533 -0.1436  0.3659  0.2868
19478TIP3    H179925   2.738   3.221  10.467  2.2207 -0.2477 -1.2366
19478TIP3    H279926   2.829   3.200  10.586 -0.2353  0.8104  0.9383
19479TIP3   OH279927   2.404   2.057   3.933  0.1341 -0.8571 -0.3766
19479TIP3    H179928   2.488   2.059   3.979  0.6882 -1.0263 -1.3619
19479TIP3    H279929   2.339   2.053   4.004  0.9342 -0.5147  0.4044
19480TIP3   OH279930   6.769   0.901  13.593  0.3842 -0.7412 -0.0651
19480TIP3    H179931   6.831   0.875  13.661  1.2383 -1.3233 -1.0371
19480TIP3    H279932   6.804   0.864  13.512 -1.1855 -1.0089 -0.6717
19481TIP3   OH279933   2.877   4.268   0.189  0.0638  0.6941 -0.1842
19481TIP3    H179934   2.960   4.264   0.142  0.9224  1.4982  1.1709
19481TIP3    H279935   2.881   4.351   0.237 -1.5610  0.7795 -0.1319
19482TIP3   OH279936   2.736   4.389   4.462  0.4093  0.3580  0.3903
19482TIP3    H179937   2.786   4.417   4.385  0.9597 -1.5375  0.0132
19482TIP3    H279938   2.668   4.332   4.426  2.1542 -2.5945  1.4022
19483TIP3   OH279939   2.420   6.466   0.726  0.1047 -0.2563  0.2288
19483TIP3    H179940   2.337   6.446   0.770 -0.2081  0.8944  0.2014
19483TIP3    H279941   2.480   6.398   0.755 -0.7284 -0.8481  0.6050
19484TIP3   OH279942   3.945   0.087   6.175 -0.3284 -0.0956 -0.0317
19484TIP3    H179943   3.982   0.002   6.150  1.1788  0.1233  1.3512
19484TIP3    H279944   4.017   0.149   6.166 -0.9512  0.7519  0.6239
19485TIP3   OH279945   6.676   1.614  15.816 -0.1767  0.1708 -0.1403
19485TIP3    H179946   6.672   1.599  15.722  1.6554 -1.8374  0.0215
19485TIP3    H279947   6.609   1.681  15.833  0.6628  1.9543 -3.0992
19486TIP3   OH279948   1.906   5.977   0.262 -0.2680  0.2531  0.0605
19486TIP3    H179949   1.852   5.899   0.275 -0.2310  0.4895  1.8232
19486TIP3    H279950   1.870   6.042   0.322  0.8708  0.9899 -0.0205
19487TIP3   OH279951   3.184   0.885   3.238 -0.0980 -0.4964 -0.2788
19487TIP3    H179952   3.135   0.960   3.269 -1.7261 -1.5091 -0.2766
19487TIP3    H279953   3.167   0.882   3.144 -1.2280 -1.6571 -0.0598
19488TIP3   OH279954   4.957   6.254   4.021  0.2275 -0.2435 -1.0299
19488TIP3    H179955   4.991   6.342   4.032  1.1166 -0.6746 -0.2345
19488TIP3    H279956   4.986   6.228   3.933 -0.5384  0.4592 -1.5012
19489TIP3   OH279957   0.997   2.461  12.879 -0.0717 -0.4861 -0.3045
19489TIP3    H179958   1.078   2.500  12.846  0.2920 -0.1066  0.9731
19489TIP3    H279959   0.928   2.513  12.838  0.4032  1.4654  1.2007
19490TIP3   OH279960   4.772   5.788  15.427  0.2135  0.0277  0.2591
19490TIP3    H179961   4.802   5.787  15.517  2.4223  0.0616 -0.4209
19490TIP3    H279962   4.846   5.822  15.377 -1.2970  1.0001 -1.4694
19491TIP3   OH279963   2.459   5.873   1.240  0.4357 -0.5854  0.2282
19491TIP3    H179964   2.377   5.890   1.287  0.2565 -0.7289 -0.0294
19491TIP3    H279965   2.525   5.870   1.308  0.4960  1.2022  0.2905
19492TIP3   OH279966   1.927   0.628  16.518 -0.7299  0.2643 -0.5542
19492TIP3    H179967   1.921   0.641  16.613  0.1633 -0.7010 -0.3499
19492TIP3    H279968   1.876   0.700  16.481 -0.3641  1.1722  0.6440
19493TIP3   OH279969   5.963   2.229   5.554 -0.0286 -0.2841 -0.1623
19493TIP3    H179970   5.965   2.215   5.648 -0.2256 -0.8284 -0.2347
19493TIP3    H279971   5.870   2.230   5.531 -0.0335  1.1331 -0.1778
19494TIP3   OH279972   3.375   2.695   0.697 -0.6037  0.2398  0.5978
19494TIP3    H179973   3.394   2.669   0.606 -2.3695  0.1643  0.2291
19494TIP3    H279974   3.445   2.653   0.748 -0.2551 -0.7024 -0.5898
19495TIP3   OH279975   3.245   5.920   0.080 -0.3714  0.8616 -0.3388
19495TIP3    H179976   3.244   5.853   0.148 -0.0769  1.4742  0.2759
19495TIP3    H279977   3.328   5.907   0.035 -0.8435  0.0420 -1.0218
19496TIP3   OH279978   1.624   4.224   2.484 -0.2828 -0.1168  0.0561
19496TIP3    H179979   1.557   4.212   2.552 -0.2372  1.7045  0.4682
19496TIP3    H279980   1.575   4.226   2.402 -0.4204 -1.5432  0.0831
19497TIP3   OH279981   0.879   2.136  12.926 -0.2172 -0.0672 -0.2736
19497TIP3    H179982   0.947   2.151  12.861 -0.9531  0.8449 -0.8664
19497TIP3    H279983   0.875   2.041  12.936 -0.5638 -0.2740 -2.0952
19498TIP3   OH279984   6.550   3.442  16.210  0.3143  0.8347 -0.1677
19498TIP3    H179985   6.531   3.474  16.298 -0.4226  0.2553 -0.1022
19498TIP3    H279986   6.515   3.510  16.152  1.4652  1.5710 -0.0189
19499TIP3   OH279987   1.734   5.442  15.799  0.0704 -0.9579 -0.4183
19499TIP3    H179988   1.655   5.390  15.814  0.4372 -1.2300  0.6454
19499TIP3    H279989   1.709   5.532  15.823  0.5172 -1.3104  1.5088
19500TIP3   OH279990   3.340   6.682   0.351 -0.2734 -0.0223  0.1376
19500TIP3    H179991   3.311   6.593   0.371  0.6322 -0.7038 -1.4102
19500TIP3    H279992   3.303   6.701   0.265 -1.3616  1.5472  0.9050
19501TIP3   OH279993   1.372   2.177  16.876 -0.7933 -0.1808  0.5143
19501TIP3    H179994   1.401   2.190  16.786 -0.8832 -0.6929  0.4100
19501TIP3    H279995   1.295   2.233  16.884 -0.6411  0.0571  0.3514
19502TIP3   OH279996   0.338   1.632   1.805  0.5196 -0.0756 -0.3667
19502TIP3    H179997   0.353   1.548   1.763  2.2042  0.1600 -0.3223
19502TIP3    H279998   0.347   1.614   1.899 -1.0173 -0.1786 -0.2129
19503TIP3   OH279999   1.007   5.076   4.092 -0.3380 -0.6185 -0.2494
19503TIP3    H180000   1.060   5.153   4.116 -2.0948  0.6132 -0.1009
19503TIP3    H280001   1.070   5.005   4.084  1.3325  0.7758 -0.1124
19504TIP3   OH280002   1.182   2.249  11.113  0.1852  0.1274 -0.2862
19504TIP3    H180003   1.271   2.272  11.089  0.5534 -1.2764 -0.3139
19504TIP3    H280004   1.161   2.307  11.186  0.3754  1.8601 -1.5511
19505TIP3   OH280005   2.595   1.622   5.986 -0.2746 -0.5462 -0.3857
19505TIP3    H180006   2.548   1.701   5.963 -0.3654 -0.4817  0.0104
19505TIP3    H280007   2.621   1.635   6.077 -3.1435 -2.3052  0.8400
19506TIP3   OH280008   5.800   0.706  15.616 -0.2206 -0.3298  0.0276
19506TIP3    H180009   5.845   0.662  15.544  0.3790 -1.1393  0.8628
19506TIP3    H280010   5.869   0.758  15.658 -0.6461  0.4192 -0.1918
19507TIP3   OH280011   0.611   4.696   5.014 -0.1718  0.6510  0.3746
19507TIP3    H180012   0.540   4.650   5.059 -1.2811  1.4564 -0.4680
19507TIP3    H280013   0.641   4.761   5.077 -0.1512  0.2648  0.7629
19508TIP3   OH280014   6.196   3.515   5.213 -0.0354  0.5899 -0.5355
19508TIP3    H180015   6.286   3.499   5.242 -0.2472  0.1561 -0.1151
19508TIP3    H280016   6.203   3.526   5.118  0.2914 -0.6481 -0.6627
19509TIP3   OH280017   2.500   1.183   6.768 -0.0406 -0.6376  0.0461
19509TIP3    H180018   2.418   1.161   6.723  0.2865 -2.5654  0.3006
19509TIP3    H280019   2.567   1.178   6.700 -0.1314  1.3322 -0.2492
19510TIP3   OH280020   2.603   3.976   5.803 -0.7015  0.1190  0.0150
19510TIP3    H180021   2.608   3.884   5.776  1.0829  0.3919 -0.7212
19510TIP3    H280022   2.612   4.025   5.722  0.2070  0.9373  0.5851
19511TIP3   OH280023   5.744   3.314  13.889 -0.4386 -0.3533 -0.0923
19511TIP3    H180024   5.710   3.403  13.877 -1.1479 -0.7825 -1.4522
19511TIP3    H280025   5.839   3.324  13.882 -0.2900  0.6376  2.2653
19512TIP3   OH280026   1.351   3.391   1.069  0.0340 -0.0345 -0.0725
19512TIP3    H180027   1.399   3.354   0.995  1.5009  1.5929 -0.0084
19512TIP3    H280028   1.419   3.415   1.132 -1.0382  0.4656  0.9332
19513TIP3   OH280029   2.853   6.770   5.169  0.0235  0.0584  0.8065
19513TIP3    H180030   2.855   6.680   5.135  0.8456  0.4727 -0.3335
19513TIP3    H280031   2.774   6.808   5.131 -0.8104 -0.4264  2.0103
19514TIP3   OH280032   4.376   4.238   1.588 -0.1078  0.4949  0.1490
19514TIP3    H180033   4.405   4.172   1.651 -0.0892 -0.1559 -0.5304
19514TIP3    H280034   4.287   4.212   1.565 -0.4628  1.2667  0.6055
19515TIP3   OH280035   6.207   6.714   1.090 -0.0960 -0.1889 -0.1137
19515TIP3    H180036   6.176   6.710   1.180  1.3226  0.3106  0.4183
19515TIP3    H280037   6.244   6.627   1.074  2.0068  0.4836  0.7119
19516TIP3   OH280038   5.431   3.397   0.749  0.1981  0.9020 -0.5021
19516TIP3    H180039   5.419   3.481   0.794 -1.4590  1.3888 -1.7323
19516TIP3    H280040   5.424   3.418   0.656 -0.8543 -0.6621 -0.8210
19517TIP3   OH280041   4.656   2.525   1.146 -0.0561  0.6658 -0.3643
19517TIP3    H180042   4.646   2.595   1.081 -2.9704  1.1139  0.4237
19517TIP3    H280043   4.575   2.474   1.138  1.0992 -1.4202  0.5022
19518TIP3   OH280044   3.156   0.395  11.908 -0.3132  0.0231 -0.1097
19518TIP3    H180045   3.186   0.348  11.986 -0.8766  1.0967  0.7978
19518TIP3    H280046   3.139   0.326  11.843 -0.5392 -0.9696  0.9630
19519TIP3   OH280047   0.988   2.865  12.495 -0.0817 -0.9569  0.2166
19519TIP3    H180048   0.997   2.927  12.423 -0.2792 -0.8994  0.2409
19519TIP3    H280049   1.030   2.785  12.463  0.4587 -0.7096  0.3135
19520TIP3   OH280050   2.416   2.871   5.619  0.1837 -0.4835 -0.0566
19520TIP3    H180051   2.442   2.869   5.711  1.4881 -1.3602 -0.4078
19520TIP3    H280052   2.465   2.945   5.582  1.0679 -1.2326 -0.4117
19521TIP3   OH280053   4.302   2.836   2.608  0.1572 -0.0106 -0.0970
19521TIP3    H180054   4.380   2.879   2.643  0.3778  0.1881 -0.8115
19521TIP3    H280055   4.244   2.827   2.683 -0.1445  2.0875  0.0004
19522TIP3   OH280056   5.070   3.553   3.067  0.1394  0.1952 -0.0720
19522TIP3    H180057   5.073   3.476   3.124  0.5572  0.2294 -0.0419
19522TIP3    H280058   5.130   3.531   2.995  1.1747  0.9557  0.5352
19523TIP3   OH280059   6.463   5.958   3.505  0.3274  0.6572  0.0955
19523TIP3    H180060   6.516   6.037   3.505  1.0138  0.2181  1.1305
19523TIP3    H280061   6.512   5.896   3.559 -0.8661 -0.0135  0.4573
19524TIP3   OH280062   3.487   0.644  12.393  0.1384  0.1943 -0.2189
19524TIP3    H180063   3.449   0.642  12.305 -1.9424  2.2552  0.5300
19524TIP3    H280064   3.555   0.710  12.388 -1.4299  1.9106  0.1653
19525TIP3   OH280065   4.927   0.206  12.967  0.2088 -0.3432  0.2643
19525TIP3    H180066   4.975   0.123  12.971  0.6947 -0.0272  3.1442
19525TIP3    H280067   4.903   0.215  12.875  2.1182 -2.5374 -0.5564
19526TIP3   OH280068   0.386   5.178   1.989 -0.3937  0.4020 -0.7083
19526TIP3    H180069   0.307   5.232   1.981 -0.2834  0.4880 -1.2619
19526TIP3    H280070   0.376   5.111   1.922 -0.2306  0.1080 -0.4437
19527TIP3   OH280071   0.972   1.595   3.961  0.1552  0.1844  0.0867
19527TIP3    H180072   0.879   1.616   3.974  0.1654  0.7222 -0.6360
19527TIP3    H280073   0.977   1.501   3.975 -0.5648  0.0919 -0.2110
19528TIP3   OH280074   2.869   2.335  12.144  0.4529  0.2310 -0.4451
19528TIP3    H180075   2.806   2.271  12.112 -1.4406  1.8416 -0.1451
19528TIP3    H280076   2.887   2.307  12.234 -0.7673  0.3711 -0.1369
19529TIP3   OH280077   5.496   6.590   3.731 -0.2256  0.1014  0.1860
19529TIP3    H180078   5.506   6.670   3.680 -1.3368 -0.8040 -1.5362
19529TIP3    H280079   5.542   6.608   3.813 -2.4239  3.4140  0.9115
19530TIP3   OH280080   3.901   5.609  11.928 -0.0768 -0.0909 -0.3879
19530TIP3    H180081   3.844   5.553  11.980 -1.1146  0.7391 -0.5868
19530TIP3    H280082   3.921   5.683  11.985 -0.8195  0.5800 -0.9604
19531TIP3   OH280083   3.664   4.977  13.005 -0.0385 -0.7370 -0.9702
19531TIP3    H180084   3.588   4.918  12.999 -0.8592  0.1174  0.4139
19531TIP3    H280085   3.625   5.064  13.014  1.1388 -0.1359 -1.5587
19532TIP3   OH280086   6.426   2.688  15.445  0.2330 -0.3203 -0.7736
19532TIP3    H180087   6.364   2.758  15.425  1.8105  0.4920 -3.2190
19532TIP3    H280088   6.494   2.731  15.496  1.9917  0.4286 -3.5734
19533TIP3   OH280089   4.861   3.787   0.533 -0.7452  0.5872  0.3887
19533TIP3    H180090   4.797   3.725   0.566  0.5267  0.1991  2.3119
19533TIP3    H280091   4.946   3.747   0.551  0.1095  0.8572 -2.5204
19534TIP3   OH280092   2.024   5.095   0.523 -0.7291 -0.3602 -0.3627
19534TIP3    H180093   1.960   5.025   0.540  1.5403 -2.3325  0.7771
19534TIP3    H280094   2.016   5.152   0.599 -1.1675 -0.5531 -0.2535
19535TIP3   OH280095   4.477   0.308  13.562 -0.4554  0.5705 -0.0161
19535TIP3    H180096   4.537   0.381  13.543  1.1545 -0.0882  2.1896
19535TIP3    H280097   4.401   0.349  13.602  0.2431  1.0970  0.8015
19536TIP3   OH280098   1.810   1.458   1.763 -0.0897 -0.4918 -0.0654
19536TIP3    H180099   1.814   1.525   1.831  0.3407  0.4916 -1.0480
19536TIP3    H280100   1.831   1.376   1.810  0.5812  0.2142  0.9117
19537TIP3   OH280101   1.810   5.062   5.897 -0.2263  0.0754  0.4230
19537TIP3    H180102   1.744   5.108   5.949 -0.2094 -2.1599  2.5931
19537TIP3    H280103   1.774   4.974   5.885  1.2966 -0.4638 -0.4849
19538TIP3   OH280104   3.108   2.595  11.996 -0.0084 -0.2141  0.4229
19538TIP3    H180105   3.046   2.636  12.057  2.1118  4.5320 -0.1831
19538TIP3    H280106   3.058   2.584  11.915 -1.4354 -1.8440  1.4344
19539TIP3   OH280107   0.337   0.156  16.173  0.4315  0.3421 -0.3795
19539TIP3    H180108   0.424   0.173  16.208  0.0597  1.4126  0.0816
19539TIP3    H280109   0.279   0.162  16.250 -0.1807  0.8916 -0.8686
19540TIP3   OH280110   0.577   4.948  12.492  0.2197  0.7909  0.1555
19540TIP3    H180111   0.503   4.969  12.550 -0.2889  1.3776 -0.6841
19540TIP3    H280112   0.556   4.993  12.410  1.3218  0.6335 -0.2232
19541TIP3   OH280113   2.561   0.620  12.911 -0.3920 -0.8353  0.9495
19541TIP3    H180114   2.603   0.691  12.862 -0.3201 -0.8286  1.0195
19541TIP3    H280115   2.607   0.541  12.881  0.0942 -0.7632  1.4737
19542TIP3   OH280116   1.245   5.119   1.592 -0.6954  0.4490  0.3461
19542TIP3    H180117   1.175   5.055   1.606 -0.4761  0.4578  1.5981
19542TIP3    H280118   1.316   5.070   1.551 -1.3626  0.4099 -0.8124
19543TIP3   OH280119   1.018   1.578  10.777 -0.0037 -0.1300  0.3223
19543TIP3    H180120   1.045   1.663  10.744  0.9080 -0.2539  0.7149
19543TIP3    H280121   1.029   1.519  10.702  0.1949 -0.0595  0.2956
19544TIP3   OH280122   4.938   6.415   1.721  0.2393 -0.1562  0.0554
19544TIP3    H180123   4.934   6.320   1.732 -1.1455 -0.1885 -0.5667
19544TIP3    H280124   4.848   6.445   1.734  0.4613  0.9529 -0.8057
19545TIP3   OH280125   6.378   2.545  15.827 -0.2133 -0.1980  0.2786
19545TIP3    H180126   6.406   2.473  15.883 -1.1710 -1.0068 -0.2430
19545TIP3    H280127   6.371   2.505  15.740  0.1566  0.7633 -0.1999
19546TIP3   OH280128   2.594   3.064  16.553  0.0981 -0.3776  0.9669
19546TIP3    H180129   2.683   3.030  16.555  1.6746  3.2471  1.2414
19546TIP3    H280130   2.553   3.031  16.632  1.9291 -0.5092  1.9057
19547TIP3   OH280131   0.577   6.213   2.564 -0.0659 -0.2118  0.1794
19547TIP3    H180132   0.550   6.295   2.606 -0.5661 -0.9027  1.2592
19547TIP3    H280133   0.643   6.177   2.623  0.1959 -0.5588 -0.3211
19548TIP3   OH280134   0.744   2.611  17.041  0.1563 -0.7877 -0.3423
19548TIP3    H180135   0.805   2.574  17.105 -0.7355  0.1692  1.0908
19548TIP3    H280136   0.795   2.679  16.997  0.0010  0.4348  1.2735
19549TIP3   OH280137   3.481   2.148   3.122  0.2283 -0.2240  0.1697
19549TIP3    H180138   3.523   2.087   3.061 -0.0775  0.5408 -0.8262
19549TIP3    H280139   3.439   2.213   3.066  0.6169  0.9658  1.2161
19550TIP3   OH280140   6.209   2.315  17.017  0.3820  0.5069  0.1932
19550TIP3    H180141   6.286   2.366  16.992  1.2583 -0.5920  0.5443
19550TIP3    H280142   6.148   2.379  17.053  0.3664  1.6628 -1.7742
19551TIP3   OH280143   2.310   4.490   1.734  0.5405  0.5521  0.4634
19551TIP3    H180144   2.274   4.403   1.753 -0.0124  0.5469 -0.5589
19551TIP3    H280145   2.373   4.474   1.663  2.2280  0.6406  1.8567
19552TIP3   OH280146   3.004   2.675   1.045  0.1658 -0.3505 -0.0065
19552TIP3    H180147   2.932   2.651   0.987 -0.4065  3.1681 -1.0294
19552TIP3    H280148   3.059   2.597   1.050 -2.7065 -2.5699 -0.6792
19553TIP3   OH280149   4.234   5.792   1.226  0.3790 -0.7351  0.2584
19553TIP3    H180150   4.148   5.833   1.222  1.2092  0.9744 -1.3504
19553TIP3    H280151   4.216   5.700   1.247 -1.9098 -0.7102 -1.3297
19554TIP3   OH280152   3.936   3.652   1.531  0.2393  0.1090  0.5834
19554TIP3    H180153   3.909   3.576   1.584 -0.7643 -0.4286 -0.6523
19554TIP3    H280154   3.854   3.697   1.510  0.7902  1.3381  0.9692
19555TIP3   OH280155   1.064   6.199  15.663  0.0032  0.1041  0.1815
19555TIP3    H180156   1.027   6.162  15.743  0.8460  0.4309  0.7343
19555TIP3    H280157   1.157   6.178  15.667  0.3819  1.6730  0.1791
19556TIP3   OH280158   6.252   3.559   1.245  0.1926 -0.1119 -0.0885
19556TIP3    H180159   6.238   3.510   1.326  0.8652 -0.1777 -0.0105
19556TIP3    H280160   6.237   3.496   1.175  1.5148 -0.5768  0.0147
19557TIP3   OH280161   4.868   2.022   2.244 -0.0015  1.0857  0.6223
19557TIP3    H180162   4.857   2.051   2.334  0.3127  0.4579  0.8682
19557TIP3    H280163   4.808   1.948   2.235  1.0024  0.2389  0.7504
19558TIP3   OH280164   2.571   6.774  15.243 -0.1384  0.2884 -0.0166
19558TIP3    H180165   2.576   6.803  15.152 -1.1279 -0.9853 -0.5038
19558TIP3    H280166   2.515   6.696  15.240  0.9218 -0.5774  1.4846
19559TIP3   OH280167   6.020   5.620   2.198  0.5588  0.7359  0.6416
19559TIP3    H180168   6.090   5.625   2.133  0.0100 -1.0470 -0.1437
19559TIP3    H280169   5.944   5.658   2.155 -0.4529 -2.5331 -0.8121
19560TIP3   OH280170   6.563   6.709   2.337 -0.2015 -0.6902 -0.8978
19560TIP3    H180171   6.628   6.677   2.399  0.1845 -1.2561 -1.5712
19560TIP3    H280172   6.590   6.671   2.253  0.6768  1.8994 -1.9073
19561TIP3   OH280173   6.597   2.026   5.070  0.4047  0.3415 -0.3630
19561TIP3    H180174   6.521   2.084   5.062 -0.3802 -0.6836 -0.6332
19561TIP3    H280175   6.561   1.938   5.054  1.5086 -0.2427  0.2706
19562TIP3   OH280176   1.328   5.702  12.789  0.2271 -0.0388 -0.1764
19562TIP3    H180177   1.387   5.701  12.714 -1.7635 -0.9451 -1.8425
19562TIP3    H280178   1.321   5.610  12.814 -1.5256 -0.1712 -0.9696
19563TIP3   OH280179   4.722   4.037  11.017  0.4790 -0.3967  0.5925
19563TIP3    H180180   4.774   4.116  11.029 -0.3045  0.0859  0.8528
19563TIP3    H280181   4.785   3.965  11.030  2.0425  0.0689 -3.0592
19564TIP3   OH280182   3.983   3.693   5.969  0.5121 -0.5328  0.8984
19564TIP3    H180183   3.973   3.599   5.985 -0.5616 -0.5960 -0.0919
19564TIP3    H280184   4.073   3.712   5.996  0.7825 -1.8698  0.9888
19565TIP3   OH280185   5.902   4.538  14.864 -0.0586 -0.2537 -1.0945
19565TIP3    H180186   5.836   4.494  14.918 -0.9269  0.3970 -1.6047
19565TIP3    H280187   5.985   4.504  14.896 -0.6010 -0.5731  0.0316
19566TIP3   OH280188   1.584   1.406   5.786 -0.3374  0.1291 -0.0099
19566TIP3    H180189   1.507   1.370   5.829 -0.7571  0.2346 -0.6634
19566TIP3    H280190   1.655   1.345   5.807 -0.7204 -0.2705  0.1197
19567TIP3   OH280191   5.736   3.118  16.667  0.2948 -0.0469 -0.2429
19567TIP3    H180192   5.691   3.093  16.586 -0.7978  2.5762 -0.5280
19567TIP3    H280193   5.678   3.089  16.737 -0.4240  0.6547 -0.5311
19568TIP3   OH280194   3.814   3.926   2.147 -0.7308 -0.0071  0.1535
19568TIP3    H180195   3.770   3.982   2.210  1.9976  1.3804  1.0199
19568TIP3    H280196   3.878   3.984   2.104  1.4374 -2.1248  0.2717
19569TIP3   OH280197   3.724   6.291  16.364 -0.4348 -0.3106  0.1441
19569TIP3    H180198   3.743   6.272  16.456  0.2216  1.5118  0.4279
19569TIP3    H280199   3.777   6.228  16.315 -1.4922 -1.9231  0.9674
19570TIP3   OH280200   4.248   4.288   2.046  0.2765 -0.5827  0.2420
19570TIP3    H180201   4.315   4.346   2.008  0.2607 -0.4606  0.4031
19570TIP3    H280202   4.277   4.273   2.136 -0.6173  0.5662  0.7440
19571TIP3   OH280203   5.217   1.340  12.335 -0.1684 -0.1834 -0.0096
19571TIP3    H180204   5.282   1.293  12.386 -0.1184 -0.4914 -0.3583
19571TIP3    H280205   5.251   1.429  12.328 -0.9208  0.3127  1.8543
19572TIP3   OH280206   4.994   3.622   4.113 -0.6244  0.0542  0.0613
19572TIP3    H180207   4.916   3.664   4.147 -0.9161  0.2973 -0.8682
19572TIP3    H280208   5.035   3.581   4.189 -1.6381 -0.0629  0.5599
19573TIP3   OH280209   5.796   5.759   0.408 -0.0036  0.4568 -0.0957
19573TIP3    H180210   5.881   5.802   0.404  1.2527 -1.9067 -0.7254
19573TIP3    H280211   5.758   5.773   0.321  0.8045 -0.4146 -0.6093
19574TIP3   OH280212   0.484   0.345  16.323  0.5380 -0.8208  0.0437
19574TIP3    H180213   0.545   0.305  16.261  0.5571 -0.2743 -0.2961
19574TIP3    H280214   0.472   0.278  16.390 -0.6096 -2.0234 -1.2739
19575TIP3   OH280215   6.761   5.705   5.552  0.3373  0.3553 -0.6793
19575TIP3    H180216   6.666   5.694   5.550 -0.5253  5.3128 -0.4054
19575TIP3    H280217   6.786   5.709   5.460  0.1528 -0.0372 -0.7509
19576TIP3   OH280218   2.050   2.722  13.046 -0.1388  0.6367 -0.2343
19576TIP3    H180219   2.128   2.666  13.052 -1.5978 -1.5056  0.1915
19576TIP3    H280220   2.079   2.798  12.996  1.8080 -0.8280 -1.5184
19577TIP3   OH280221   5.323   1.907  11.177 -0.1053  0.2794 -0.1267
19577TIP3    H180222   5.355   1.894  11.087 -0.8349  3.1253 -0.9072
19577TIP3    H280223   5.402   1.912  11.230  0.4449  0.4837 -0.9408
19578TIP3   OH280224   3.386   4.684  16.353 -0.2483  0.3241  0.5585
19578TIP3    H180225   3.382   4.780  16.355 -1.7918  0.2678  1.7468
19578TIP3    H280226   3.325   4.656  16.421  0.6133 -1.5100  0.6390
19579TIP3   OH280227   5.733   0.502  12.943  0.2728 -0.1457 -0.2275
19579TIP3    H180228   5.724   0.567  13.012 -0.7343 -1.5200  0.9863
19579TIP3    H280229   5.715   0.551  12.862  0.1733  1.2046  0.5791
19580TIP3   OH280230   2.448   1.378   1.218 -0.7816  0.4072 -0.1239
19580TIP3    H180231   2.374   1.408   1.272 -1.0875 -2.4571  1.2402
19580TIP3    H280232   2.410   1.364   1.131 -0.9916  2.1421 -0.3565
19581TIP3   OH280233   6.601   1.821   3.040 -0.0353  0.4255  0.6603
19581TIP3    H180234   6.571   1.907   3.069  2.7281  2.8825 -2.8481
19581TIP3    H280235   6.525   1.784   2.994 -0.9032  1.5487  1.1332
19582TIP3   OH280236   2.141   3.519   0.248 -0.4387 -0.4812  0.6207
19582TIP3    H180237   2.084   3.593   0.269 -2.6410 -1.5362 -1.1765
19582TIP3    H280238   2.131   3.459   0.323  0.5884  0.5559  1.6220
19583TIP3   OH280239   6.319   1.942   1.058 -0.3274  0.2316 -0.6133
19583TIP3    H180240   6.229   1.909   1.050  0.0257 -0.7413 -0.6739
19583TIP3    H280241   6.364   1.908   0.980 -0.0934  1.3651 -0.9896
19584TIP3   OH280242   3.482   1.945  12.604  0.4325 -0.3280  0.2934
19584TIP3    H180243   3.472   1.873  12.541  0.3082 -0.7424  0.7796
19584TIP3    H280244   3.493   1.901  12.688  0.0131  0.2321  0.6407
19585TIP3   OH280245   2.938   3.270  11.898  0.3611  0.1589  0.0869
19585TIP3    H180246   2.851   3.308  11.886  1.1080  2.2717  0.9967
19585TIP3    H280247   2.988   3.300  11.822  1.1119  1.5340  1.0907
19586TIP3   OH280248   4.850   0.654  15.441  0.1268  0.4356 -0.5713
19586TIP3    H180249   4.903   0.646  15.520  0.2618  0.8545 -0.6156
19586TIP3    H280250   4.906   0.619  15.371  0.0304  0.1216 -0.4932
19587TIP3   OH280251   1.268   5.295  14.437 -0.5082  0.6682  0.0049
19587TIP3    H180252   1.255   5.356  14.509 -1.3566  2.8943 -1.9174
19587TIP3    H280253   1.361   5.303  14.414  0.1769 -1.2775  1.7996
19588TIP3   OH280254   2.186   3.854   2.540 -0.1744  0.7491 -0.9328
19588TIP3    H180255   2.258   3.904   2.578  1.4086 -1.7744 -0.3640
19588TIP3    H280256   2.117   3.858   2.607  2.0414 -2.4338  1.8941
19589TIP3   OH280257   3.546   2.564  15.694  0.6884  0.2475 -0.2758
19589TIP3    H180258   3.554   2.606  15.779  0.3969 -1.1808  0.4767
19589TIP3    H280259   3.632   2.577  15.653  0.9582  0.6025  0.3808
19590TIP3   OH280260   1.356   2.525  12.897 -0.2456 -0.7602 -0.4832
19590TIP3    H180261   1.334   2.561  12.811 -0.1168 -1.4342 -0.8020
19590TIP3    H280262   1.444   2.558  12.914  0.0804 -1.3253 -1.0085
19591TIP3   OH280263   1.821   3.889   1.639  0.0010  0.2573 -0.1729
19591TIP3    H180264   1.909   3.909   1.605  0.2600 -0.5874 -0.0336
19591TIP3    H280265   1.836   3.817   1.700 -0.9133 -0.4865 -0.8108
19592TIP3   OH280266   6.265   3.721  16.188  0.1911  0.5969  0.3068
19592TIP3    H180267   6.291   3.775  16.262 -0.5170 -1.6675  2.3471
19592TIP3    H280268   6.171   3.707  16.200  0.3924 -1.2690  0.0367
19593TIP3   OH280269   0.410   3.861   3.544  0.6168  0.4995  0.0860
19593TIP3    H180270   0.411   3.875   3.449  0.5916  0.3944  0.0702
19593TIP3    H280271   0.406   3.949   3.581  2.4110  0.6326  0.0358
19594TIP3   OH280272   3.596   0.368   4.649  0.1292  0.4796 -0.0404
19594TIP3    H180273   3.606   0.295   4.587 -0.8291 -3.0518  3.5618
19594TIP3    H280274   3.511   0.407   4.626 -0.0238 -0.4558 -1.1766
19595TIP3   OH280275   1.551   0.575   0.193  0.3975 -0.3892 -0.4779
19595TIP3    H180276   1.481   0.512   0.207  0.6305 -0.4026  0.6534
19595TIP3    H280277   1.632   0.528   0.212  0.5782  0.2247  0.3134
19596TIP3   OH280278   2.090   1.735   3.945 -0.1601  0.0434 -0.4231
19596TIP3    H180279   2.139   1.814   3.967 -2.2451  1.5546 -0.9648
19596TIP3    H280280   2.070   1.743   3.852 -0.7394 -0.9237 -0.4026
19597TIP3   OH280281   3.164   3.094   3.015  0.4613 -0.1824 -0.2916
19597TIP3    H180282   3.173   3.130   2.926 -1.3041 -1.9732 -1.2758
19597TIP3    H280283   3.116   3.012   3.003 -1.5410  0.4414  2.4961
19598TIP3   OH280284   2.607   5.191  12.406 -0.0204 -0.1187 -0.4762
19598TIP3    H180285   2.520   5.156  12.386  0.2667 -0.9450 -0.2999
19598TIP3    H280286   2.647   5.126  12.463  0.3409  0.7373  0.2690
19599TIP3   OH280287   3.643   5.570  12.101  0.1178  0.2752  0.2506
19599TIP3    H180288   3.582   5.559  12.028  1.4615 -3.9967 -0.4997
19599TIP3    H280289   3.660   5.664  12.104 -3.9268  1.2915 -1.5316
19600TIP3   OH280290   6.811   1.965   4.193 -0.2050  0.6209  0.1038
19600TIP3    H180291   6.850   1.968   4.280 -0.0005  0.6707  0.0110
19600TIP3    H280292   6.744   2.034   4.194 -0.7904  0.0637  0.4969
19601TIP3   OH280293   3.597   4.276   3.891  0.4751  0.8332 -0.2928
19601TIP3    H180294   3.672   4.285   3.950  0.6251  2.8465 -0.6983
19601TIP3    H280295   3.601   4.186   3.861  1.9775  0.5196  0.7006
19602TIP3   OH280296   2.958   2.843  13.122 -0.0071 -0.4406 -0.3468
19602TIP3    H180297   3.006   2.912  13.169  0.2286 -1.1852  0.5318
19602TIP3    H280298   2.975   2.861  13.030  0.1050  0.6445 -0.1301
19603TIP3   OH280299   3.321   5.945   5.180 -0.5524 -0.1452 -0.4282
19603TIP3    H180300   3.383   5.927   5.110 -0.6216  0.5892 -0.6775
19603TIP3    H280301   3.368   6.002   5.240 -1.1779  0.9144 -0.9226
19604TIP3   OH280302   1.653   1.436  10.926 -0.1595  0.0624 -0.5871
19604TIP3    H180303   1.643   1.438  10.831  0.7780 -1.8097 -0.7574
19604TIP3    H280304   1.738   1.395  10.941  0.4080  1.6902  1.0594
19605TIP3   OH280305   1.788   1.716  14.181 -0.2689 -0.1632  0.6427
19605TIP3    H180306   1.872   1.684  14.213 -0.1247  0.9613  1.4492
19605TIP3    H280307   1.809   1.770  14.105  0.2027  2.9281  2.7623
19606TIP3   OH280308   4.297   1.217  13.780  0.3637 -0.2020 -0.3903
19606TIP3    H180309   4.354   1.159  13.830 -2.2634 -1.9978  0.7879
19606TIP3    H280310   4.342   1.230  13.697  2.6850 -1.0275  0.6515
19607TIP3   OH280311   2.188   5.222   1.980 -0.3051 -0.0116  0.2228
19607TIP3    H180312   2.231   5.225   2.066 -0.0735 -0.5991  0.1312
19607TIP3    H280313   2.256   5.192   1.920 -1.0498 -1.8482  0.2306
19608TIP3   OH280314   4.433   1.112   2.073  0.0791 -0.4252 -0.1983
19608TIP3    H180315   4.454   1.039   2.131  1.4420 -1.2907 -1.7254
19608TIP3    H280316   4.356   1.083   2.024  0.4750 -0.7349 -0.6349
19609TIP3   OH280317   0.916   0.811   1.038 -0.4946 -0.1307 -0.6872
19609TIP3    H180318   0.960   0.728   1.017 -2.3107 -1.2260 -0.4426
19609TIP3    H280319   0.986   0.868   1.071  0.8610 -1.4605 -1.1336
19610TIP3   OH280320   3.499   5.501   2.082  0.0852  0.4500 -0.0931
19610TIP3    H180321   3.537   5.559   2.016 -0.0711  1.8558  0.9806
19610TIP3    H280322   3.478   5.560   2.155 -1.1764 -0.7950  0.5983
19611TIP3   OH280323   5.797   6.297  15.068  0.5776  0.2400  0.5628
19611TIP3    H180324   5.703   6.285  15.082  0.2854  1.5513 -0.1871
19611TIP3    H280325   5.804   6.340  14.983  1.8241  0.6669  0.8617
19612TIP3   OH280326   5.654   1.271  10.412  0.2946  0.6345  0.2271
19612TIP3    H180327   5.690   1.183  10.410  1.7995  1.1396  2.1217
19612TIP3    H280328   5.572   1.263  10.462  0.6237  0.3443  0.7314
19613TIP3   OH280329   3.425   0.389  14.389 -0.1231 -0.0890  0.0927
19613TIP3    H180330   3.357   0.440  14.434  2.1579  2.5011  0.9058
19613TIP3    H280331   3.488   0.368  14.458  0.7871 -0.8421 -0.9375
19614TIP3   OH280332   5.763   5.854   3.302 -0.4749  0.0848  0.0594
19614TIP3    H180333   5.669   5.840   3.315 -0.2586 -0.5001  1.1080
19614TIP3    H280334   5.805   5.795   3.365  0.5736  1.4665  0.7204
19615TIP3   OH280335   3.181   1.732  15.465 -0.4536  0.3334  0.4854
19615TIP3    H180336   3.162   1.763  15.554 -1.6991 -2.9919  1.5419
19615TIP3    H280337   3.100   1.691  15.436  0.4348 -0.0742 -1.5567
19616TIP3   OH280338   0.757   6.129  15.071  0.2806  0.0096  0.3519
19616TIP3    H180339   0.779   6.105  14.982  0.0552 -4.2876  1.2559
19616TIP3    H280340   0.661   6.125  15.074  0.2588  0.5942  0.6944
19617TIP3   OH280341   6.013   5.091   3.044  0.3597 -0.2241 -0.4626
19617TIP3    H180342   6.028   5.074   3.137 -0.4559 -2.1512 -0.6373
19617TIP3    H280343   5.945   5.159   3.042  2.1189  1.6635  0.2913
19618TIP3   OH280344   0.364   1.619  12.445  0.2336 -0.3861 -0.2160
19618TIP3    H180345   0.437   1.619  12.507 -0.9036 -0.3682  1.1827
19618TIP3    H280346   0.395   1.566  12.371  1.8120  0.0153  0.1161
19619TIP3   OH280347   3.049   0.503  15.949 -0.7357 -0.0675 -0.2420
19619TIP3    H180348   2.986   0.548  15.892  1.0493  0.3754 -1.9516
19619TIP3    H280349   3.056   0.415  15.912  1.2055  0.5286 -1.4754
19620TIP3   OH280350   5.494   6.399   3.523  0.0902  0.2948 -0.2630
19620TIP3    H180351   5.492   6.309   3.554  0.3875 -0.0127 -1.1212
19620TIP3    H280352   5.531   6.449   3.597 -0.0934 -0.2749  0.2195
19621TIP3   OH280353   2.680   3.612   4.524  0.7869  0.4651 -0.5533
19621TIP3    H180354   2.645   3.531   4.487 -1.3614  0.3059  1.6212
19621TIP3    H280355   2.775   3.602   4.518  0.6243 -0.4459 -3.8678
19622TIP3   OH280356   3.670   5.196  11.968 -0.3103 -0.0965  0.0954
19622TIP3    H180357   3.689   5.178  12.060 -0.6155 -0.1054  0.1594
19622TIP3    H280358   3.598   5.259  11.971  1.7414  2.4349 -0.0943
19623TIP3   OH280359   4.135   0.486   3.141  0.0131 -0.1516  0.0930
19623TIP3    H180360   4.116   0.556   3.079 -0.4402 -0.0292  0.3694
19623TIP3    H280361   4.065   0.423   3.129  1.4193 -1.5371 -1.5260
19624TIP3   OH280362   5.703   2.599  14.301 -0.3960  0.3718 -0.6802
19624TIP3    H180363   5.612   2.567  14.303 -0.3306  0.2057 -0.3407
19624TIP3    H280364   5.742   2.565  14.382  0.1760 -0.1618 -1.1742
19625TIP3   OH280365   0.599   5.992  16.216  0.0222  0.4921  0.4934
19625TIP3    H180366   0.671   6.054  16.230 -1.0422  1.8101  0.2708
19625TIP3    H280367   0.559   6.020  16.134  0.2197 -1.2211 -0.2368
19626TIP3   OH280368   1.707   2.062   3.865  0.3224  0.1034 -0.3113
19626TIP3    H180369   1.658   1.980   3.862 -3.1846  2.0086 -2.3964
19626TIP3    H280370   1.664   2.113   3.934  0.8122  1.0445 -0.6812
19627TIP3   OH280371   2.461   2.938   5.195  0.5921 -0.1139  0.5034
19627TIP3    H180372   2.381   2.912   5.241 -0.5792  0.1313 -1.3294
19627TIP3    H280373   2.445   3.028   5.167  0.7131 -0.6861 -1.5205
19628TIP3   OH280374   1.336   3.096  12.795 -0.5746  0.6202  0.0097
19628TIP3    H180375   1.332   3.023  12.856 -0.1454  1.6356  1.3075
19628TIP3    H280376   1.308   3.172  12.846  2.7248  2.0753 -0.0681
19629TIP3   OH280377   2.023   3.229  12.317 -0.2724  0.1431  0.3529
19629TIP3    H180378   2.092   3.264  12.374  0.9756 -2.1654  0.3951
19629TIP3    H280379   1.958   3.299  12.312  1.2767  1.7790  1.6860
19630TIP3   OH280380   4.164   1.476   4.145  0.3440  0.5360 -0.5808
19630TIP3    H180381   4.199   1.404   4.198 -0.1829  0.2909 -0.5589
19630TIP3    H280382   4.188   1.453   4.056  0.4149  0.4708 -0.5458
19631TIP3   OH280383   3.021   2.251  16.890 -0.0879 -0.0732 -0.3784
19631TIP3    H180384   3.080   2.176  16.886 -0.5738 -0.4866 -0.0081
19631TIP3    H280385   3.003   2.262  16.984 -0.4046  0.2008 -0.4696
19632TIP3   OH280386   2.781   0.641   1.516 -0.2169  0.4396  0.4685
19632TIP3    H180387   2.859   0.610   1.469  2.5516  0.9287  4.2077
19632TIP3    H280388   2.753   0.718   1.467  3.3716  1.8335  0.2440
19633TIP3   OH280389   0.653   0.398  12.206  0.2897  0.0972 -0.4030
19633TIP3    H180390   0.604   0.348  12.271  3.5903 -0.2138  2.0959
19633TIP3    H280391   0.728   0.342  12.184  2.4480  2.5665  0.1210
19634TIP3   OH280392   0.336   0.818   3.585 -0.1802  0.4493  0.9517
19634TIP3    H180393   0.265   0.762   3.554  0.2452 -0.6315  1.8638
19634TIP3    H280394   0.292   0.893   3.625 -0.8695 -0.6532  2.3349
19635TIP3   OH280395   4.250   5.523   3.632  0.0901 -0.1756 -0.2018
19635TIP3    H180396   4.314   5.494   3.568  1.0778 -0.1413  0.7358
19635TIP3    H280397   4.302   5.552   3.707 -1.0282 -1.5452  1.1908
19636TIP3   OH280398   3.316   4.366  16.438  0.3163  0.6256 -0.1321
19636TIP3    H180399   3.377   4.295  16.418  0.0771  0.8378 -1.7334
19636TIP3    H280400   3.244   4.354  16.376 -0.8979  0.8480  1.1987
19637TIP3   OH280401   0.236   3.596  14.528 -0.2879  0.0355 -0.7383
19637TIP3    H180402   0.212   3.684  14.498  1.7041  1.0588  0.4588
19637TIP3    H280403   0.194   3.588  14.614 -0.9217 -0.4377 -1.0810
19638TIP3   OH280404   2.226   2.710  15.913 -0.2415 -0.7113 -0.0479
19638TIP3    H180405   2.231   2.803  15.936  2.8210 -0.9030  0.5191
19638TIP3    H280406   2.245   2.665  15.996  0.8010 -1.7337 -0.8166
19639TIP3   OH280407   4.569   1.266  15.383 -0.1684  0.8312  0.1271
19639TIP3    H180408   4.545   1.338  15.441  0.5424 -0.0291  1.5456
19639TIP3    H280409   4.641   1.301  15.330  0.6285  0.9847  1.2752
19640TIP3   OH280410   6.030   3.904  16.541  0.4578 -0.1978 -0.3970
19640TIP3    H180411   6.020   3.963  16.615  0.1986 -1.9688  1.0457
19640TIP3    H280412   5.984   3.947  16.469  2.0354  2.3007 -0.0193
19641TIP3   OH280413   5.284   3.733  11.405 -0.2656 -0.2162 -0.2346
19641TIP3    H180414   5.300   3.817  11.364  0.5552 -0.4935 -0.5055
19641TIP3    H280415   5.325   3.669  11.346 -1.4963 -0.8726 -0.4029
19642TIP3   OH280416   6.058   3.334   1.348 -0.2939  0.0488 -0.5282
19642TIP3    H180417   6.047   3.310   1.256 -2.9820 -2.5454  0.3343
19642TIP3    H280418   5.999   3.409   1.360  1.1271  1.3233 -1.1478
19643TIP3   OH280419   2.927   2.668  10.910  0.9184  0.4540  0.1193
19643TIP3    H180420   2.861   2.627  10.854 -1.7226  0.5948  2.8538
19643TIP3    H280421   3.003   2.680  10.853 -0.8100 -1.2532 -2.7979
19644TIP3   OH280422   0.139   6.209   0.372 -0.0425 -0.4003 -0.9848
19644TIP3    H180423   0.138   6.265   0.294  0.0015 -0.1419 -0.7995
19644TIP3    H280424   0.232   6.198   0.393 -0.0923  0.5248 -0.2553
19645TIP3   OH280425   2.272   4.230  16.923 -0.2005  0.0341  0.5858
19645TIP3    H180426   2.300   4.273  17.004  2.5283 -0.2685 -0.1026
19645TIP3    H280427   2.309   4.284  16.854 -0.0421 -1.2880 -0.3883
19646TIP3   OH280428   0.570   6.340   2.332 -0.3642 -0.1558 -0.6363
19646TIP3    H180429   0.570   6.273   2.400  0.1839  0.4030 -0.0682
19646TIP3    H280430   0.509   6.406   2.364  1.4670  1.1388  0.4065
19647TIP3   OH280431   2.607   1.876  15.313 -0.1096  0.1455 -0.3730
19647TIP3    H180432   2.691   1.910  15.280  0.1438 -0.0541  0.0570
19647TIP3    H280433   2.541   1.929  15.269  0.2485  0.4314 -0.5770
19648TIP3   OH280434   2.515   6.040  11.854 -0.0424  0.0372  0.0504
19648TIP3    H180435   2.521   6.031  11.950 -2.5183  0.1694  0.2723
19648TIP3    H280436   2.480   6.128  11.841 -0.2345 -0.1856 -0.9615
19649TIP3   OH280437   4.600   5.249  13.276 -0.1338  0.1215 -0.3748
19649TIP3    H180438   4.513   5.234  13.238  0.5064 -0.3355 -1.6865
19649TIP3    H280439   4.650   5.170  13.255  1.0128  0.9370 -0.7884
19650TIP3   OH280440   3.262   3.741  11.695 -0.0167  0.2473  0.5788
19650TIP3    H180441   3.219   3.732  11.780 -0.1252 -0.0465  0.4920
19650TIP3    H280442   3.276   3.836  11.686 -1.4212  0.4462  0.2225
19651TIP3   OH280443   6.702   0.424   4.761 -0.0666  0.1593  0.2299
19651TIP3    H180444   6.774   0.486   4.765 -0.8925  1.0947  1.0909
19651TIP3    H280445   6.671   0.428   4.670  0.8948 -0.1902 -0.1227
19652TIP3   OH280446   0.145   1.435  15.950  0.1906  0.4205 -0.5145
19652TIP3    H180447   0.084   1.454  15.878 -1.7538  2.3478  1.4817
19652TIP3    H280448   0.133   1.341  15.967 -0.4082  0.2579 -1.7438
19653TIP3   OH280449   2.228   1.298   4.291 -0.1811 -0.0762  0.5432
19653TIP3    H180450   2.147   1.263   4.329  0.0864 -2.4960 -0.8961
19653TIP3    H280451   2.202   1.384   4.256 -2.4761 -1.1878 -0.7696
19654TIP3   OH280452   5.230   4.726  11.692  0.0565 -0.6711  0.0461
19654TIP3    H180453   5.291   4.744  11.621  0.2206 -1.0199  0.0977
19654TIP3    H280454   5.209   4.633  11.683  0.6517 -0.8956  0.8971
19655TIP3   OH280455   6.351   1.959   3.705 -0.1278  0.1557 -0.0156
19655TIP3    H180456   6.394   1.936   3.622  0.2714  0.9502 -0.0293
19655TIP3    H280457   6.421   1.992   3.760 -0.2672 -1.0133  0.8997
19656TIP3   OH280458   6.506   0.562  17.057  0.2409 -0.0009  0.4685
19656TIP3    H180459   6.491   0.624  17.129  0.4855 -1.5267  1.9220
19656TIP3    H280460   6.551   0.488  17.099 -1.0567 -1.6723 -0.9307
19657TIP3   OH280461   6.075   3.376  15.179  0.5751  0.5264  0.4092
19657TIP3    H180462   6.078   3.291  15.221 -1.7235 -0.5486 -1.3687
19657TIP3    H280463   6.125   3.365  15.098 -0.1118  0.6845 -0.0513
19658TIP3   OH280464   3.234   4.291   1.755 -0.0648  0.1131 -0.1382
19658TIP3    H180465   3.327   4.267   1.759  0.0461  0.6258  0.8037
19658TIP3    H280466   3.210   4.282   1.663  1.0048  0.2723 -0.4433
19659TIP3   OH280467   1.911   3.166  16.073  0.2217 -0.0392  0.2087
19659TIP3    H180468   1.829   3.147  16.118 -1.0102  2.1887 -0.9024
19659TIP3    H280469   1.896   3.139  15.982  0.5959  0.6191 -0.0577
19660TIP3   OH280470   2.752   2.258  11.070 -0.0874 -0.0567  0.2571
19660TIP3    H180471   2.680   2.310  11.035 -0.8157 -1.4036 -0.3460
19660TIP3    H280472   2.753   2.180  11.015  2.2274  0.1844 -0.1114
19661TIP3   OH280473   4.388   1.036   3.651  0.1242 -0.2565 -0.0883
19661TIP3    H180474   4.393   0.942   3.666  1.2106 -0.0226  1.1452
19661TIP3    H280475   4.473   1.059   3.614  0.1755  0.3725  0.4081
19662TIP3   OH280476   5.233   0.744   2.118 -0.6120 -0.2807 -0.5961
19662TIP3    H180477   5.214   0.810   2.185  0.7296  1.9938 -2.2875
19662TIP3    H280478   5.149   0.705   2.097 -1.1201 -0.7508  2.0524
19663TIP3   OH280479   5.619   2.792  16.214 -0.1801 -0.5103  0.3890
19663TIP3    H180480   5.652   2.802  16.303 -1.3094  1.4266  0.6417
19663TIP3    H280481   5.659   2.865  16.165 -0.6415 -0.7424 -0.3519
19664TIP3   OH280482   0.505   4.841  17.064  0.2033 -0.3053  0.0635
19664TIP3    H180483   0.438   4.802  17.121  1.0774 -0.4095  1.0539
19664TIP3    H280484   0.496   4.935  17.077 -1.1264 -0.2023 -1.4237
19665TIP3   OH280485   6.681   0.394  11.052  0.4966 -0.0136  0.2663
19665TIP3    H180486   6.614   0.461  11.066  0.3206 -0.3149  0.8978
19665TIP3    H280487   6.646   0.340  10.981  0.5610  0.4541 -0.1311
19666TIP3   OH280488   6.298   0.112   0.329  0.6557  0.1363 -0.5740
19666TIP3    H180489   6.266   0.064   0.406 -0.9508  0.5652 -0.9411
19666TIP3    H280490   6.264   0.063   0.254 -0.8868  1.7186 -0.9551
19667TIP3   OH280491   4.700   1.921   2.657  0.0098  0.1863 -0.1959
19667TIP3    H180492   4.721   2.011   2.630 -1.0937  0.3581 -0.5421
19667TIP3    H280493   4.710   1.869   2.578 -0.8665  0.2775 -0.3751
19668TIP3   OH280494   5.662   2.525  12.901 -0.2766  0.2253  0.3344
19668TIP3    H180495   5.668   2.541  12.996 -0.7703  3.4628 -0.0469
19668TIP3    H280496   5.745   2.556  12.866  0.0372 -1.2654 -0.2893
19669TIP3   OH280497   2.345   2.226  12.516  0.4798  0.6034 -0.2409
19669TIP3    H180498   2.261   2.267  12.536  0.2759  0.4777 -0.8173
19669TIP3    H280499   2.368   2.178  12.595  0.3092  1.1397  0.1398
19670TIP3   OH280500   0.730   5.284   3.610 -0.3961 -0.5390  0.0625
19670TIP3    H180501   0.651   5.324   3.648 -0.8768 -1.3970 -0.0256
19670TIP3    H280502   0.702   5.250   3.526  0.7096  1.5412 -1.2548
19671TIP3   OH280503   3.276   4.785   6.244 -0.0427 -0.1685  0.1555
19671TIP3    H180504   3.283   4.757   6.336 -1.4451 -0.4689  0.1924
19671TIP3    H280505   3.187   4.763   6.219  0.5610 -0.8806 -1.5546
19672TIP3   OH280506   0.350   4.768   1.078 -0.5105 -0.2369 -0.2817
19672TIP3    H180507   0.268   4.815   1.066 -1.1973 -1.0920  0.8424
19672TIP3    H280508   0.396   4.778   0.994 -0.7933  2.0348 -0.2223
19673TIP3   OH280509   6.698   4.529   0.429 -0.5650  0.1065  0.1547
19673TIP3    H180510   6.684   4.620   0.403 -0.3741  0.2036  0.3852
19673TIP3    H280511   6.690   4.479   0.347 -0.0903  0.3958 -0.0699
19674TIP3   OH280512   6.797   1.607   0.004  0.0039  0.2250  0.8573
19674TIP3    H180513   6.792   1.703   0.004  0.5028  0.3165 -1.5569
19674TIP3    H280514   6.706   1.579  -0.006  0.0368  0.5482 -0.5458
19675TIP3   OH280515   2.355   1.287  17.003  0.4565 -0.0979  0.3191
19675TIP3    H180516   2.397   1.237  16.933  1.1965 -2.0019  2.0400
19675TIP3    H280517   2.401   1.371  17.003  0.8421 -0.2858 -1.0762
19676TIP3   OH280518   0.571   5.454  14.249  0.4474  0.3221 -0.0002
19676TIP3    H180519   0.549   5.547  14.262  1.4237  0.6867 -0.8354
19676TIP3    H280520   0.537   5.411  14.328  0.5208  1.4727  0.6974
19677TIP3   OH280521   5.567   5.549  13.337 -0.4691 -0.3930 -0.4354
19677TIP3    H180522   5.643   5.599  13.365 -0.6419  0.3558 -1.2384
19677TIP3    H280523   5.553   5.485  13.406  0.4114 -0.0245  0.0986
19678TIP3   OH280524   4.607   6.299  15.640 -0.0207  0.4392 -0.3642
19678TIP3    H180525   4.597   6.394  15.650 -0.5136  0.2423  1.2594
19678TIP3    H280526   4.699   6.287  15.617 -0.0279  1.3260 -0.9096
19679TIP3   OH280527   2.156   4.016   2.132  0.8795 -0.4989  0.1763
19679TIP3    H180528   2.115   3.971   2.058  0.5378  1.5370 -0.9240
19679TIP3    H280529   2.089   4.015   2.200  0.1376  0.0878 -0.5334
19680TIP3   OH280530   6.518   5.634   5.365  0.1445  0.0446 -0.2208
19680TIP3    H180531   6.435   5.590   5.347  0.4587 -0.8953  0.5122
19680TIP3    H280532   6.518   5.710   5.308 -0.5337 -0.7796 -1.3625
19681TIP3   OH280533   1.623   1.881  14.348 -0.1529  0.9793  0.2326
19681TIP3    H180534   1.666   1.966  14.358  0.3166  0.6419  1.1306
19681TIP3    H280535   1.663   1.844  14.269  0.8348  0.8968  0.7544
19682TIP3   OH280536   6.101   0.088  14.721  0.0713 -0.4518 -0.5630
19682TIP3    H180537   6.104   0.179  14.691  0.4888 -0.1469  0.3652
19682TIP3    H280538   6.183   0.076  14.768 -0.3327 -1.0765 -0.0097
19683TIP3   OH280539   4.611   6.792   5.542  0.0587 -0.3042  0.2646
19683TIP3    H180540   4.580   6.713   5.587  0.3703  0.8259  2.6604
19683TIP3    H280541   4.538   6.853   5.550 -0.3725 -0.4512 -2.0204
19684TIP3   OH280542   4.148   5.606  13.559  0.2216 -0.4526  0.6473
19684TIP3    H180543   4.141   5.696  13.589 -0.7924  0.1737 -1.2835
19684TIP3    H280544   4.129   5.610  13.466  2.8943 -2.2938 -0.1123
19685TIP3   OH280545   6.015   5.260   1.072 -0.2118 -0.1289 -0.8437
19685TIP3    H180546   6.100   5.230   1.104 -0.7744 -0.6881  0.1852
19685TIP3    H280547   5.993   5.199   1.001  0.0951 -0.1898 -0.8844
19686TIP3   OH280548   2.160   4.343   2.578  0.0427 -0.5569 -0.3596
19686TIP3    H180549   2.231   4.281   2.562  1.2333  0.5863  0.3824
19686TIP3    H280550   2.199   4.429   2.565 -1.5618  0.0734 -1.2840
19687TIP3   OH280551   5.398   1.193  12.493 -0.0619 -0.3078 -0.2030
19687TIP3    H180552   5.415   1.241  12.574 -0.9737  0.0660 -0.2259
19687TIP3    H280553   5.409   1.101  12.518 -0.7802 -0.2197  0.4601
19688TIP3   OH280554   6.481   4.043  17.046  0.2101 -0.3010  0.1928
19688TIP3    H180555   6.526   3.987  16.983 -2.3754 -0.6692 -1.5063
19688TIP3    H280556   6.420   3.984  17.091 -1.2219  0.7532 -0.2742
19689TIP3   OH280557   6.163   1.368  13.196  0.5856 -0.3047 -0.3341
19689TIP3    H180558   6.124   1.400  13.115  1.1403 -2.2425 -1.4471
19689TIP3    H280559   6.102   1.394  13.264 -1.0215 -0.4842 -1.6408
19690TIP3   OH280560   0.334   0.763   5.413 -0.1474 -0.0083 -0.1044
19690TIP3    H180561   0.396   0.832   5.438  0.2031 -0.8603  1.5390
19690TIP3    H280562   0.277   0.753   5.489 -0.6048 -1.0688 -0.5636
19691TIP3   OH280563   2.924   4.306   2.046  0.1664 -0.1232  0.4862
19691TIP3    H180564   2.872   4.230   2.021 -1.3019  1.4555 -1.7240
19691TIP3    H280565   3.015   4.277   2.039 -0.3549 -2.1550  1.5859
19692TIP3   OH280566   0.048   2.723   3.835 -0.1998 -0.1209 -0.5521
19692TIP3    H180567   0.062   2.818   3.833  2.8231 -0.4472 -2.7454
19692TIP3    H280568   0.059   2.700   3.927 -0.4212  1.5895 -0.0517
19693TIP3   OH280569   3.647   3.163  10.909  0.0202  0.0786  0.3959
19693TIP3    H180570   3.581   3.220  10.870 -0.2372  0.8393  1.8744
19693TIP3    H280571   3.596   3.094  10.952  0.2169  0.1009  0.6691
19694TIP3   OH280572   0.427   4.175   2.734 -0.5395  0.3028  0.8020
19694TIP3    H180573   0.516   4.157   2.764 -0.8152 -0.4881  1.1640
19694TIP3    H280574   0.408   4.105   2.672 -0.4948  1.1261 -0.1827
19695TIP3   OH280575   0.660   3.291  17.091 -0.1598  0.0762  0.2908
19695TIP3    H180576   0.662   3.345  17.012 -2.1021 -1.4326 -0.8839
19695TIP3    H280577   0.599   3.335  17.150  0.0473  0.3489  0.3063
19696TIP3   OH280578   2.018   5.032  14.578  0.1363  0.3639 -1.0212
19696TIP3    H180579   1.932   4.991  14.573 -0.0301  0.6757 -0.7615
19696TIP3    H280580   2.033   5.046  14.672  1.0395 -0.8644 -0.9600
19697TIP3   OH280581   2.728   0.693  15.599  0.5871 -0.5255  0.2705
19697TIP3    H180582   2.722   0.598  15.590  1.8724 -0.7495  1.3635
19697TIP3    H280583   2.719   0.709  15.693 -0.6691  0.5501 -0.0111
19698TIP3   OH280584   2.622   1.682  14.594  0.5430 -0.4606 -0.3224
19698TIP3    H180585   2.598   1.687  14.687  2.0509  0.9203  0.0405
19698TIP3    H280586   2.542   1.650  14.551 -0.6903  0.3071  1.2482
19699TIP3   OH280587   3.046   1.162   0.310  0.0623  0.0263 -0.3687
19699TIP3    H180588   3.098   1.110   0.372  0.8964  1.2328 -0.0427
19699TIP3    H280589   2.956   1.131   0.324  0.3152 -0.1702  1.0150
19700TIP3   OH280590   2.107   3.204  17.057  0.3270  0.2469  0.4669
19700TIP3    H180591   2.185   3.258  17.072  0.4710 -0.0111  0.6583
19700TIP3    H280592   2.136   3.138  16.994  0.3642 -0.0641  0.8079
19701TIP3   OH280593   2.116   6.285   6.319  0.4436  0.0226  0.0828
19701TIP3    H180594   2.026   6.254   6.323 -0.2624  2.0396  0.8566
19701TIP3    H280595   2.115   6.353   6.251  1.6160 -0.5545 -0.5576
19702TIP3   OH280596   4.608   5.065   1.404  0.2155 -0.1177 -0.0203
19702TIP3    H180597   4.587   5.103   1.319 -1.4141 -0.1097  0.3504
19702TIP3    H280598   4.630   4.974   1.385  0.7611  0.1139 -0.5312
19703TIP3   OH280599   0.337   0.880  16.719 -0.6771  0.1871 -0.1081
19703TIP3    H180600   0.271   0.877  16.650  0.5511 -0.8924 -1.2853
19703TIP3    H280601   0.420   0.865  16.674  0.4077  1.5106  1.3326
19704TIP3   OH280602   4.712   3.479  16.849 -0.1018  0.2321  0.1392
19704TIP3    H180603   4.796   3.526  16.849  0.0149  0.0508  1.6117
19704TIP3    H280604   4.671   3.504  16.931 -1.1280 -0.3553 -0.1849
19705TIP3   OH280605   4.473   0.992   4.283 -0.0484 -0.4571 -0.0169
19705TIP3    H180606   4.380   0.996   4.306 -0.6646  1.0876 -2.3438
19705TIP3    H280607   4.473   0.990   4.187  2.3012  2.9922 -0.2824
19706TIP3   OH280608   2.960   6.291  15.224  0.3690  0.5885 -0.6354
19706TIP3    H180609   3.038   6.335  15.192  0.2824  1.0712 -0.2049
19706TIP3    H280610   2.971   6.199  15.198  2.0168  0.2407  1.0876
19707TIP3   OH280611   4.935   4.910  14.926 -0.8120  0.0002  0.0141
19707TIP3    H180612   4.870   4.975  14.952 -0.2060  1.0775 -1.0273
19707TIP3    H280613   4.953   4.861  15.005 -0.9388  1.4215  0.9612
19708TIP3   OH280614   3.412   6.488   5.588  0.0261 -0.0843  0.0217
19708TIP3    H180615   3.493   6.478   5.539  0.6085 -1.6813  1.1924
19708TIP3    H280616   3.439   6.524   5.673 -0.6809  0.6471 -0.0448
19709TIP3   OH280617   1.618   2.436  17.050 -0.2404 -0.5084 -0.5141
19709TIP3    H180618   1.655   2.522  17.031 -0.8318 -0.0561  0.3208
19709TIP3    H280619   1.530   2.438  17.012  0.0108 -1.0281 -1.1521
19710TIP3   OH280620   2.357   4.695  13.198  0.6084 -0.2981  0.0927
19710TIP3    H180621   2.425   4.732  13.255  1.4501 -1.1451 -0.3501
19710TIP3    H280622   2.330   4.769  13.143  1.9843 -0.2083 -0.5078
19711TIP3   OH280623   3.676   2.028  15.422  0.5095 -0.0386 -0.2826
19711TIP3    H180624   3.620   1.974  15.478  3.0552 -2.1301  0.4888
19711TIP3    H280625   3.692   1.974  15.345  2.7650 -0.2943  0.2970
19712TIP3   OH280626   1.879   4.495  16.236  0.3002  0.4133 -0.1354
19712TIP3    H180627   1.900   4.551  16.161  0.1381  0.0694 -0.4399
19712TIP3    H280628   1.785   4.511  16.252 -0.3323 -1.4239 -1.6467
19713TIP3   OH280629   6.256   1.358   3.459  0.0877  0.0531  0.0297
19713TIP3    H180630   6.227   1.448   3.475 -0.6993 -0.4898  1.9878
19713TIP3    H280631   6.307   1.335   3.536  3.1834 -0.1261 -1.9281
19714TIP3   OH280632   4.473   6.549  13.169 -0.1622 -0.2040 -0.4574
19714TIP3    H180633   4.432   6.523  13.251 -0.5512 -0.0843 -0.6147
19714TIP3    H280634   4.476   6.644  13.171  1.4615 -0.2290  0.2140
19715TIP3   OH280635   2.539   4.950   6.573 -0.0035  0.1672 -0.5774
19715TIP3    H180636   2.444   4.951   6.560  0.0371  0.7261 -0.8714
19715TIP3    H280637   2.558   5.035   6.612  0.2671 -0.3085  0.3398
19716TIP3   OH280638   0.166   3.204  17.119  0.3454 -0.2957 -0.2272
19716TIP3    H180639   0.122   3.282  17.153 -0.5387 -1.1338  0.6046
19716TIP3    H280640   0.216   3.236  17.043 -1.4584  0.7589 -1.0492
19717TIP3   OH280641   2.243   5.927   1.424 -0.5567  0.4751  0.1351
19717TIP3    H180642   2.263   5.997   1.487  1.1853  0.8126 -0.7357
19717TIP3    H280643   2.281   5.848   1.464 -0.7163  0.4179  0.1722
19718TIP3   OH280644   1.740   1.122  10.741  0.3663 -0.4649 -0.0374
19718TIP3    H180645   1.700   1.190  10.686 -0.7062 -1.0390  0.0047
19718TIP3    H280646   1.777   1.060  10.679 -0.9427 -1.1709 -0.1453
19719TIP3   OH280647   1.690   2.875  16.254  0.0996  0.0058  0.2121
19719TIP3    H180648   1.760   2.894  16.316 -2.4526  1.5227  2.8838
19719TIP3    H280649   1.610   2.906  16.297 -2.5397 -3.2254 -1.7997
19720TIP3   OH280650   0.303   1.196  15.526  0.0672 -0.6020 -0.0242
19720TIP3    H180651   0.322   1.183  15.619  1.1661  2.9400  0.3877
19720TIP3    H280652   0.388   1.188  15.483 -0.0196  0.1247 -0.3512
19721TIP3   OH280653   3.758   6.038   2.744 -0.4547  0.1022  0.3077
19721TIP3    H180654   3.807   5.973   2.794 -0.4601 -0.0489  0.1156
19721TIP3    H280655   3.784   6.023   2.653  0.6943  1.3260  0.3921
19722TIP3   OH280656   3.837   3.804   3.879 -0.3347 -0.0670 -0.5245
19722TIP3    H180657   3.840   3.777   3.787 -0.5264  0.0318 -0.5624
19722TIP3    H280658   3.746   3.790   3.905 -0.1001 -0.8627 -0.1048
19723TIP3   OH280659   0.368   0.582  11.108  0.4115  0.2593  0.3685
19723TIP3    H180660   0.409   0.500  11.136 -0.4670 -0.0204  0.8591
19723TIP3    H280661   0.321   0.558  11.028  1.5848  0.6935 -0.4791
19724TIP3   OH280662   4.829   1.237  12.897 -0.3216  0.1797 -0.4821
19724TIP3    H180663   4.887   1.166  12.870 -0.9298  0.5455 -2.9752
19724TIP3    H280664   4.745   1.194  12.917 -0.1581  0.0201 -0.1227
19725TIP3   OH280665   3.172   4.168   2.000 -0.4802 -0.3002  0.1705
19725TIP3    H180666   3.191   4.203   1.913  1.9711 -1.3597  0.1840
19725TIP3    H280667   3.165   4.073   1.986 -0.3091 -0.4536  1.0887
19726TIP3   OH280668   2.146   0.813  15.486 -0.0910  0.1060 -0.2181
19726TIP3    H180669   2.107   0.883  15.434  0.4084 -0.2061 -1.0352
19726TIP3    H280670   2.128   0.733  15.436  1.4355 -0.0656 -0.5612
19727TIP3   OH280671   6.642   2.731  16.856 -0.3646  0.4696  0.3709
19727TIP3    H180672   6.625   2.701  16.767 -3.7546 -0.5670  1.2363
19727TIP3    H280673   6.703   2.667  16.892  3.2641  2.3467 -1.8428
19728TIP3   OH280674   5.001   5.148   0.614 -0.0095  0.1340  0.2090
19728TIP3    H180675   4.957   5.173   0.696  0.4221  3.1823 -0.3600
19728TIP3    H280676   5.094   5.161   0.631  0.3227 -1.6006 -0.0767
19729TIP3   OH280677   1.630   5.510  12.798  0.4889 -0.1904  0.5752
19729TIP3    H180678   1.697   5.574  12.775 -0.1273  0.5785  0.8869
19729TIP3    H280679   1.627   5.511  12.894  1.5677 -1.8401  0.6699
19730TIP3   OH280680   1.738   4.222   5.769  0.0912 -0.4027 -0.0095
19730TIP3    H180681   1.813   4.264   5.727 -0.7920 -0.3009 -1.5205
19730TIP3    H280682   1.765   4.130   5.779  1.3730  0.1016  1.8022
19731TIP3   OH280683   2.747   0.807  15.855  0.5640  0.2117  0.0099
19731TIP3    H180684   2.836   0.835  15.874  0.1988  2.4492 -1.2128
19731TIP3    H280685   2.695   0.888  15.861 -0.9407 -0.5645 -1.7371
19732TIP3   OH280686   5.433   3.157  14.588  0.1425  0.1310 -0.4894
19732TIP3    H180687   5.463   3.219  14.655 -0.0333 -0.5451  0.2186
19732TIP3    H280688   5.371   3.101  14.633  1.9053 -1.9749 -0.5219
19733TIP3   OH280689   4.124   6.685  13.778 -0.3653 -0.9331  0.3338
19733TIP3    H180690   4.192   6.707  13.842  0.9797 -2.8142 -0.3507
19733TIP3    H280691   4.072   6.617  13.820  0.1127 -1.6945 -0.2604
19734TIP3   OH280692   0.172   6.258  14.903 -0.5590 -0.2110 -0.7642
19734TIP3    H180693   0.121   6.177  14.902  0.1093 -0.7531  1.8845
19734TIP3    H280694   0.120   6.320  14.852 -1.4852 -2.0515 -2.1790
19735TIP3   OH280695   5.210   0.088  13.490  0.3813  0.5698 -0.1364
19735TIP3    H180696   5.150   0.036  13.438  0.1356 -1.4518  1.9842
19735TIP3    H280697   5.265   0.133  13.426 -3.2618  2.5139 -2.1747
19736TIP3   OH280698   5.996   2.729   0.475  0.6155 -1.0318  0.4314
19736TIP3    H180699   6.064   2.709   0.411  0.0754 -0.1796 -0.4343
19736TIP3    H280700   6.035   2.792   0.535 -0.3550  2.1022 -2.0084
19737TIP3   OH280701   3.679   2.453   0.493  0.5934 -0.4560 -0.0563
19737TIP3    H180702   3.594   2.496   0.495  1.7754  2.0695 -0.1015
19737TIP3    H280703   3.674   2.392   0.419 -0.6136  0.8967 -1.1434
19738TIP3   OH280704   0.350   2.643   1.129  0.2028 -0.7511  0.3070
19738TIP3    H180705   0.425   2.679   1.084 -0.2027 -1.9196 -1.3956
19738TIP3    H280706   0.355   2.679   1.218  2.6378 -0.6641  0.1894
19739TIP3   OH280707   3.284   3.520   4.432 -0.2931  0.2107 -0.3526
19739TIP3    H180708   3.282   3.615   4.417  1.4937  0.1241 -1.4481
19739TIP3    H280709   3.370   3.504   4.471 -0.3497 -1.0139 -0.6976
19740TIP3   OH280710   5.393   0.125   5.847  0.4599  0.1611  0.1940
19740TIP3    H180711   5.413   0.096   5.936  0.5176  0.4068  0.2628
19740TIP3    H280712   5.397   0.221   5.852 -1.5106  0.2680  0.3949
19741TIP3   OH280713   1.988   3.888  12.162  0.0571  0.0133 -0.1809
19741TIP3    H180714   1.902   3.856  12.190  0.2030  1.6688  2.4738
19741TIP3    H280715   2.038   3.808  12.143 -1.2889 -1.0849  0.6779
19742TIP3   OH280716   2.025   5.089   6.152 -0.0969  0.4631 -0.1879
19742TIP3    H180717   1.961   5.045   6.095  0.8482  2.1378 -2.7473
19742TIP3    H280718   2.104   5.093   6.099  0.9678  1.8587  1.4255
19743TIP3   OH280719   3.364   5.377  13.159 -0.4683 -0.8194  0.3723
19743TIP3    H180720   3.274   5.364  13.130 -1.3600 -0.4836  2.7435
19743TIP3    H280721   3.357   5.394  13.253  2.0509 -0.3980  0.5671
19744TIP3   OH280722   3.988   6.678   6.477  0.1185 -0.0863  0.6986
19744TIP3    H180723   3.920   6.718   6.532 -0.2012 -0.6729  0.7437
19744TIP3    H280724   3.939   6.626   6.413  0.5114  0.0393  0.2933
19745TIP3   OH280725   3.033   2.301   2.816  0.2715 -0.7645 -0.1703
19745TIP3    H180726   2.988   2.359   2.755 -0.2837  0.3918  1.2815
19745TIP3    H280727   3.069   2.231   2.761 -1.3306 -0.4907 -1.6436
19746TIP3   OH280728   4.109   3.719  13.666  0.0011 -0.4779  0.4874
19746TIP3    H180729   4.057   3.638  13.673 -0.4783 -0.3594 -1.2502
19746TIP3    H280730   4.046   3.785  13.638  0.5009  0.4034  1.3845
19747TIP3   OH280731   0.076   5.566  16.549 -0.1288 -0.6393 -0.1674
19747TIP3    H180732   0.049   5.543  16.460  1.1357 -1.6244 -0.3325
19747TIP3    H280733   0.169   5.590  16.540 -0.0446 -0.5475  0.8483
19748TIP3   OH280734   2.766   4.027  16.781  0.2959  0.6932 -0.3364
19748TIP3    H180735   2.840   4.085  16.799  0.0323  1.0508 -0.3855
19748TIP3    H280736   2.733   4.056  16.696  0.7796 -0.1883 -0.8432
19749TIP3   OH280737   1.955   3.518  17.121  0.7810  0.1408 -0.4530
19749TIP3    H180738   2.033   3.564  17.092  0.8324 -0.6767 -1.7082
19749TIP3    H280739   1.971   3.498  17.213  2.8116 -1.4559 -1.0765
19750TIP3   OH280740   4.794   3.854   0.284  0.1235 -0.0381  0.1322
19750TIP3    H180741   4.699   3.859   0.287  0.1728  2.1390 -0.1677
19750TIP3    H280742   4.819   3.824   0.371 -0.8400 -1.5101 -0.0627
19751TIP3   OH280743   2.174   0.243  13.687 -0.3899 -0.0561  0.1235
19751TIP3    H180744   2.221   0.184  13.746 -0.1677 -0.3585 -0.3557
19751TIP3    H280745   2.086   0.249  13.726  0.0989  0.7363  1.1731
19752TIP3   OH280746   3.038   3.147   1.517  0.3147 -0.1058  0.2080
19752TIP3    H180747   3.046   3.232   1.475 -1.6400  0.4922  0.9316
19752TIP3    H280748   3.000   3.090   1.450  0.3128 -0.0265  0.1415
19753TIP3   OH280749   3.311   6.121  16.053 -0.2116  0.0500  0.1615
19753TIP3    H180750   3.315   6.197  15.996  2.1665 -0.8938 -1.1015
19753TIP3    H280751   3.362   6.146  16.131 -0.8084  0.2908  0.4765
19754TIP3   OH280752   1.686   0.696  13.086 -0.2895  0.1487 -0.5236
19754TIP3    H180753   1.596   0.693  13.055  0.3535 -0.7869 -2.4630
19754TIP3    H280754   1.731   0.628  13.036  1.3565  0.1264  0.8958
19755TIP3   OH280755   0.974   1.325   3.232  0.5007 -0.5494 -0.6483
19755TIP3    H180756   0.913   1.252   3.244 -0.2471 -0.0810 -1.4583
19755TIP3    H280757   0.920   1.403   3.245  1.3405 -0.1282  0.4345
19756TIP3   OH280758   5.733   4.392   4.169 -0.4146  0.2887 -0.6140
19756TIP3    H180759   5.770   4.351   4.091  0.4708  1.2405 -0.7133
19756TIP3    H280760   5.767   4.339   4.242  1.2346  1.1640 -0.6991
19757TIP3   OH280761   1.187   1.442  14.007  0.5821 -0.1548 -0.5654
19757TIP3    H180762   1.241   1.380  14.057  0.0813  0.5104  0.8465
19757TIP3    H280763   1.249   1.506  13.973  0.7763  0.3945  0.7370
19758TIP3   OH280764   4.761   4.037   3.791  0.3699 -0.1551 -0.2388
19758TIP3    H180765   4.722   3.981   3.859 -1.2636  1.5001  0.2694
19758TIP3    H280766   4.694   4.043   3.723  0.9807  0.2808 -0.8188
19759TIP3   OH280767   4.946   2.990  14.725 -0.2267  0.0673  0.3806
19759TIP3    H180768   4.911   3.030  14.646 -0.4613  0.2157  0.5577
19759TIP3    H280769   4.892   2.912  14.739 -0.2016  0.0553  0.4119
19760TIP3   OH280770   1.623   0.048  11.128  0.2131  0.0951  0.3553
19760TIP3    H180771   1.653   0.035  11.038  1.0319 -1.1358  0.7782
19760TIP3    H280772   1.613  -0.041  11.163 -1.2447  0.5193  1.1261
19761TIP3   OH280773   1.942   6.062   3.274 -0.0537  0.2032  0.0925
19761TIP3    H180774   1.928   5.979   3.229  0.1911  1.5811 -2.7131
19761TIP3    H280775   2.030   6.055   3.310  0.7966 -0.0346 -1.9070
19762TIP3   OH280776   6.140   2.517  15.168 -0.0544 -0.6881 -0.4738
19762TIP3    H180777   6.169   2.608  15.179  1.1297 -1.2184  1.1240
19762TIP3    H280778   6.120   2.510  15.074  0.4747  1.0288 -0.7587
19763TIP3   OH280779   5.591   6.606   2.896 -0.0127 -0.2558  0.1144
19763TIP3    H180780   5.672   6.560   2.873  1.1669  0.9114  1.7257
19763TIP3    H280781   5.540   6.543   2.946  0.6347 -0.4899  0.4817
19764TIP3   OH280782   4.770   5.423  14.033 -0.0002  0.3596 -0.1228
19764TIP3    H180783   4.750   5.434  13.940  0.5461  0.2508 -0.2607
19764TIP3    H280784   4.685   5.422  14.076 -0.3225 -0.7695 -0.7468
19765TIP3   OH280785   4.733   6.191  10.618  0.5377  0.2111 -0.0307
19765TIP3    H180786   4.669   6.172  10.550 -0.1593 -0.3580  0.7578
19765TIP3    H280787   4.685   6.182  10.700  1.2652  1.2358  0.5383
19766TIP3   OH280788   1.570   0.608   1.812 -0.3143 -0.1061 -0.0328
19766TIP3    H180789   1.612   0.570   1.889 -1.1715  0.9854  0.9980
19766TIP3    H280790   1.639   0.609   1.745  1.7567  2.7313  1.9416
19767TIP3   OH280791   5.436   3.584  11.230  0.5135 -0.2271 -0.1428
19767TIP3    H180792   5.450   3.612  11.139 -0.3222 -1.4843 -0.6792
19767TIP3    H280793   5.408   3.493  11.223 -0.0111 -0.1991  1.3583
19768TIP3   OH280794   2.803   0.207  11.521 -0.0133 -0.2549 -0.1604
19768TIP3    H180795   2.797   0.255  11.438 -0.0369 -1.4110 -0.8655
19768TIP3    H280796   2.878   0.148  11.508  0.4801  0.0998  0.9556
19769TIP3   OH280797   3.700   1.255  12.285  0.2093  1.0115  0.0863
19769TIP3    H180798   3.690   1.264  12.190 -3.0795 -0.1993  0.1902
19769TIP3    H280799   3.793   1.268  12.301  0.7992  1.6863 -3.2406
19770TIP3   OH280800   1.563   2.839  13.999 -1.1159  0.3157 -0.1846
19770TIP3    H180801   1.634   2.841  14.063 -1.8461 -0.3062  0.6733
19770TIP3    H280802   1.492   2.793  14.043 -1.6737 -0.0565 -1.4223
19771TIP3   OH280803   0.136   4.276  14.974 -0.0874  0.4568 -0.0668
19771TIP3    H180804   0.136   4.183  14.997 -1.2489  0.4259 -0.1326
19771TIP3    H280805   0.084   4.318  15.042 -0.6817  0.8614 -0.7497
19772TIP3   OH280806   5.994   0.317   4.539  0.1827 -0.4726  0.6098
19772TIP3    H180807   6.012   0.331   4.632 -0.7055 -3.6524  1.3794
19772TIP3    H280808   5.899   0.312   4.533  0.2456 -0.5880 -0.4267
19773TIP3   OH280809   1.323   6.504  16.922 -0.1936  0.4744 -0.2197
19773TIP3    H180810   1.285   6.530  16.838 -1.3017  1.0708  0.4405
19773TIP3    H280811   1.352   6.414  16.908 -0.3639  0.5641 -1.2409
19774TIP3   OH280812   2.203   0.838  14.827 -0.0859 -0.2068 -0.2279
19774TIP3    H180813   2.274   0.864  14.768  0.7392 -2.3343 -0.2598
19774TIP3    H280814   2.246   0.829  14.913 -0.6277 -0.0903  0.0570
19775TIP3   OH280815   2.598   4.152   0.253  0.0083 -0.2639  0.3444
19775TIP3    H180816   2.627   4.062   0.240  1.3034  0.4396 -2.5812
19775TIP3    H280817   2.660   4.204   0.201 -0.0112  2.4553  2.7908
19776TIP3   OH280818   4.342   0.995   2.401 -0.3707 -0.3140  0.2902
19776TIP3    H180819   4.347   1.089   2.387 -0.2268 -0.4391 -0.5683
19776TIP3    H280820   4.310   0.985   2.491 -0.3524  0.5472  0.3947
19777TIP3   OH280821   3.567   6.488   6.535 -0.4468 -0.2923  0.5551
19777TIP3    H180822   3.589   6.403   6.571 -0.5349 -1.8049 -2.6486
19777TIP3    H280823   3.475   6.480   6.508 -0.4410  0.8061  0.1510
19778TIP3   OH280824   4.756   0.931   0.566 -0.5094  0.2087  0.3168
19778TIP3    H180825   4.793   0.986   0.635 -0.2434 -0.1335  0.4471
19778TIP3    H280826   4.822   0.932   0.496 -0.8869  0.7605 -0.0458
19779TIP3   OH280827   6.165   4.801  11.905  0.0076  0.3439  0.3107
19779TIP3    H180828   6.152   4.742  11.979  0.2817  0.4239  0.4252
19779TIP3    H280829   6.178   4.743  11.830 -1.1239  0.2634  0.1665
19780TIP3   OH280830   2.003   1.467  14.217 -0.6489  0.3711 -0.1021
19780TIP3    H180831   2.058   1.392  14.240 -0.5214 -0.2187 -2.1459
19780TIP3    H280832   2.063   1.527  14.173 -1.1758  0.7569 -0.2938
19781TIP3   OH280833   2.302   0.172  15.650 -0.0488  0.3926  0.0851
19781TIP3    H180834   2.234   0.231  15.681 -0.2575  0.9253 -1.3079
19781TIP3    H280835   2.335   0.129  15.729 -0.5787  1.6400  1.0156
19782TIP3   OH280836   5.025   0.645  16.334  0.0187  0.3209  0.7413
19782TIP3    H180837   5.118   0.663  16.316 -0.0264 -1.5162 -1.7501
19782TIP3    H280838   4.978   0.705  16.276 -0.2721 -0.5195  0.0847
19783TIP3   OH280839   0.584   4.056  12.829 -0.5150  0.1639  0.0935
19783TIP3    H180840   0.598   3.969  12.792  0.7961 -0.1590  1.2698
19783TIP3    H280841   0.489   4.067  12.830 -0.6416 -0.2875 -2.1666
19784TIP3   OH280842   0.232   3.956   2.612 -0.4506  0.2749  0.3795
19784TIP3    H180843   0.198   4.030   2.663  2.2719  1.3117  0.9011
19784TIP3    H280844   0.207   3.976   2.522 -1.6704  0.6547  0.7778
19785TIP3   OH280845   2.815   1.748  11.238  0.0297 -0.1107 -0.4004
19785TIP3    H180846   2.817   1.823  11.297 -0.0569 -0.1575 -0.3377
19785TIP3    H280847   2.862   1.778  11.160  1.4860 -0.5529  0.2719
19786TIP3   OH280848   2.731   2.976   3.465 -0.0103  0.6925 -0.4738
19786TIP3    H180849   2.700   3.052   3.514 -0.2031  0.4370 -0.1927
19786TIP3    H280850   2.651   2.938   3.428 -0.2584 -0.7439  1.3530
19787TIP3   OH280851   5.071   5.667   5.554  0.1015 -0.4135  0.4778
19787TIP3    H180852   5.080   5.704   5.467  0.2480 -0.0670  0.6400
19787TIP3    H280853   5.113   5.581   5.548 -0.7518 -0.8046 -0.0532
19788TIP3   OH280854   3.853   4.849  11.354  0.4140  0.0456  0.4374
19788TIP3    H180855   3.813   4.764  11.338 -1.7613  1.0817 -0.1384
19788TIP3    H280856   3.860   4.855  11.449  2.0181 -1.3438  0.4397
19789TIP3   OH280857   5.857   4.479  11.135 -0.0816 -0.7113 -0.1577
19789TIP3    H180858   5.770   4.487  11.172 -0.2842  1.7456 -1.0232
19789TIP3    H280859   5.857   4.394  11.090 -2.5147 -0.1323 -1.3648
19790TIP3   OH280860   6.227   6.208   2.932 -0.0024  0.0663 -0.0536
19790TIP3    H180861   6.149   6.184   2.983 -0.5630  2.3822  0.2780
19790TIP3    H280862   6.294   6.147   2.961 -1.3632 -1.2272  0.5296
19791TIP3   OH280863   5.869   4.130  15.842  0.3359  0.5154  0.0864
19791TIP3    H180864   5.829   4.197  15.897 -0.3317 -0.0951  0.3743
19791TIP3    H280865   5.798   4.068  15.825  1.0580 -0.3836  0.2592
19792TIP3   OH280866   6.435   0.282   3.264 -0.2591  0.1040 -0.1770
19792TIP3    H180867   6.454   0.233   3.184 -0.2406  0.0928 -0.1658
19792TIP3    H280868   6.368   0.231   3.308  0.5604 -0.5211  0.3927
19793TIP3   OH280869   2.756   2.397   5.298  0.1590  0.1192  0.2595
19793TIP3    H180870   2.752   2.493   5.295  2.0910  0.2249 -0.2062
19793TIP3    H280871   2.713   2.369   5.218  0.6349  0.6676 -0.1995
19794TIP3   OH280872   0.772   3.532  15.923 -0.3864 -0.0978  0.3555
19794TIP3    H180873   0.844   3.533  15.987 -1.4172  2.8973  1.6797
19794TIP3    H280874   0.816   3.526  15.838  1.3369  0.0936  1.1809
19795TIP3   OH280875   0.326   1.131   1.548 -0.7311  0.0957 -0.4844
19795TIP3    H180876   0.413   1.095   1.566 -1.0631 -0.6628 -0.3743
19795TIP3    H280877   0.268   1.088   1.611 -1.2825  0.1644 -0.9373
19796TIP3   OH280878   4.632   5.276  16.285  0.1269 -0.4955 -0.3632
19796TIP3    H180879   4.588   5.302  16.366 -0.2706 -0.6414 -0.5342
19796TIP3    H280880   4.644   5.181  16.293 -0.6505 -0.6390 -0.8359
19797TIP3   OH280881   6.155   4.232   4.898  0.1328 -0.0346  0.3104
19797TIP3    H180882   6.096   4.294   4.855 -0.8962  0.8487  2.8254
19797TIP3    H280883   6.235   4.282   4.913 -0.2667  0.3370  1.2633
19798TIP3   OH280884   0.494   6.612   5.346 -0.0400  0.2104  0.0859
19798TIP3    H180885   0.487   6.524   5.383 -0.8627 -0.0740 -0.7116
19798TIP3    H280886   0.405   6.635   5.321  0.0335  1.5987  0.9958
19799TIP3   OH280887   4.751   4.385   0.715  0.0350  0.7809 -0.4050
19799TIP3    H180888   4.713   4.297   0.714  1.1288  0.2925 -0.5465
19799TIP3    H280889   4.676   4.444   0.717 -0.7277 -0.1718  0.7696
19800TIP3   OH280890   1.207   2.367  11.347 -0.2386  0.4794  0.2255
19800TIP3    H180891   1.289   2.333  11.382  1.1997  4.4728  1.2295
19800TIP3    H280892   1.144   2.359  11.418 -0.6703 -2.0492 -0.3531
19801TIP3   OH280893   2.002   4.851  14.875 -0.1979 -0.0417  0.4206
19801TIP3    H180894   1.919   4.899  14.871  0.8382  1.8617  0.2991
19801TIP3    H280895   1.977   4.760  14.891 -2.2994  0.4521  0.2295
19802TIP3   OH280896   2.265   3.442   5.025  0.1667 -0.0391 -0.4624
19802TIP3    H180897   2.174   3.467   5.009 -0.4137 -0.5324  1.7054
19802TIP3    H280898   2.306   3.522   5.059 -0.3168 -0.5861  1.5124
19803TIP3   OH280899   2.017   1.684  11.392  0.0349  0.2430 -0.1759
19803TIP3    H180900   2.025   1.639  11.307 -0.4446  1.1879 -0.7312
19803TIP3    H280901   1.957   1.630  11.442 -0.7356  0.3848 -0.9291
19804TIP3   OH280902   3.115   1.157   3.214 -0.5912 -0.2608 -0.4088
19804TIP3    H180903   3.046   1.200   3.265 -0.7896 -0.5153 -0.4626
19804TIP3    H280904   3.185   1.223   3.209 -0.5980 -0.2096  0.1324
19805TIP3   OH280905   5.115   1.478   5.129 -0.7026  0.3578 -0.6690
19805TIP3    H180906   5.071   1.524   5.057 -2.0838 -0.4468 -0.3769
19805TIP3    H280907   5.084   1.521   5.208 -0.6950  0.0155 -0.4769
19806TIP3   OH280908   6.772   4.109   4.331 -0.4456 -0.0361 -0.2825
19806TIP3    H180909   6.851   4.064   4.364 -0.4128 -0.7994 -1.3634
19806TIP3    H280910   6.706   4.093   4.398 -0.0463 -0.5184  0.0041
19807TIP3   OH280911   5.077   5.301  11.663 -0.5703 -0.1683 -0.4612
19807TIP3    H180912   5.114   5.236  11.604 -1.1250 -1.1475  0.2439
19807TIP3    H280913   5.125   5.288  11.745  0.1361  1.1231 -0.6419
19808TIP3   OH280914   1.177   5.449  12.804 -0.2099 -0.2932  0.4244
19808TIP3    H180915   1.122   5.524  12.782 -0.2189 -0.1135  1.0501
19808TIP3    H280916   1.200   5.411  12.719 -0.1530  0.4484  0.0985
19809TIP3   OH280917   2.739   6.553  17.120 -0.3466 -0.1840 -0.5680
19809TIP3    H180918   2.653   6.561  17.079 -1.0505 -1.1179  0.6693
19809TIP3    H280919   2.772   6.468  17.090 -1.3211 -1.3730  1.5251
19810TIP3   OH280920   2.645   5.702   4.578  0.0567 -0.3642 -0.4353
19810TIP3    H180921   2.741   5.706   4.571 -0.0380  1.7664 -1.0280
19810TIP3    H280922   2.613   5.753   4.504 -1.5701 -1.0051 -0.2174
19811TIP3   OH280923   6.195   0.657  15.278  0.2776 -0.3746  0.3018
19811TIP3    H180924   6.262   0.662  15.210  0.3264 -1.2171  0.2836
19811TIP3    H280925   6.143   0.737  15.265  0.6954 -0.1879 -0.2855
19812TIP3   OH280926   1.695   2.330   0.413 -0.6791 -0.1101  0.3252
19812TIP3    H180927   1.644   2.355   0.336 -1.2241  1.9520  1.2632
19812TIP3    H280928   1.634   2.276   0.465 -0.6824 -0.5896 -0.1684
19813TIP3   OH280929   4.360   4.858  13.899  0.2417  0.3684  0.1933
19813TIP3    H180930   4.359   4.928  13.834 -0.4692 -0.1535 -0.3788
19813TIP3    H280931   4.452   4.837  13.911  0.4510  1.2358  0.2063
19814TIP3   OH280932   3.777   3.600  15.437 -0.4532  0.1540 -0.5751
19814TIP3    H180933   3.774   3.694  15.421  0.3538  0.2453 -0.2278
19814TIP3    H280934   3.762   3.591  15.532  0.8711  0.0415 -0.3581
19815TIP3   OH280935   2.035   2.730   2.843 -0.3073  0.5099  0.0940
19815TIP3    H180936   2.068   2.819   2.828 -0.0927  0.3631 -0.2939
19815TIP3    H280937   1.945   2.744   2.873 -0.3163  0.8531 -0.0822
19816TIP3   OH280938   2.895   6.574  15.447  0.0678 -0.1946 -0.0221
19816TIP3    H180939   2.870   6.484  15.426 -1.1478  0.1416 -0.0909
19816TIP3    H280940   2.931   6.609  15.366 -1.7812  0.1396 -0.7559
19817TIP3   OH280941   0.075   2.730  14.909  0.2060  0.1942  0.2290
19817TIP3    H180942  -0.009   2.772  14.893  1.1508  1.6613 -1.2589
19817TIP3    H280943   0.091   2.742  15.002 -2.6088 -2.9543  1.3422
19818TIP3   OH280944   5.859   4.976  15.211 -0.2449  0.4593  0.2066
19818TIP3    H180945   5.862   4.933  15.297 -1.9134  2.3425  1.2961
19818TIP3    H280946   5.898   5.062  15.226 -1.1378  1.0504 -0.7404
19819TIP3   OH280947   1.010   3.687   4.859 -0.1038 -0.0067 -0.3265
19819TIP3    H180948   1.094   3.677   4.904 -0.9056  1.5793  1.6566
19819TIP3    H280949   1.034   3.718   4.771  1.4734 -2.5456 -0.8953
19820TIP3   OH280950   4.517   3.681   3.859  0.2945 -0.5636 -0.1357
19820TIP3    H180951   4.462   3.705   3.934  0.7442 -1.6598  0.5717
19820TIP3    H280952   4.606   3.677   3.895  0.9927  1.7660 -1.3848
19821TIP3   OH280953   5.941   0.411  12.631 -0.3875 -0.4771  0.2651
19821TIP3    H180954   5.993   0.347  12.679 -0.5470 -0.6369  0.2257
19821TIP3    H280955   5.955   0.389  12.539  1.4568  0.9992  0.1174
19822TIP3   OH280956   4.070   3.318  12.807  0.1035 -0.1406 -0.2904
19822TIP3    H180957   4.053   3.308  12.901 -1.5869  0.0394 -0.5418
19822TIP3    H280958   4.073   3.229  12.773 -0.8554 -0.1795 -0.2972
19823TIP3   OH280959   6.451   1.531  13.096  0.3868 -0.4945 -0.0394
19823TIP3    H180960   6.376   1.489  13.055  1.5195 -0.6682 -2.0707
19823TIP3    H280961   6.526   1.503  13.042  1.5829  1.5803  0.4666
19824TIP3   OH280962   6.645   6.199  13.743  0.2453 -0.1718 -0.5619
19824TIP3    H180963   6.736   6.179  13.722  0.1072 -2.4187  0.6617
19824TIP3    H280964   6.646   6.215  13.838 -0.7270 -1.0546 -0.3825
19825TIP3   OH280965   0.614   3.556   2.449  0.7258 -0.5027  0.1415
19825TIP3    H180966   0.676   3.630   2.451  0.8605 -0.6224  0.5803
19825TIP3    H280967   0.538   3.587   2.499  0.0780 -0.0563 -1.0920
19826TIP3   OH280968   2.719   1.289   5.397 -0.9387  0.3527  0.1097
19826TIP3    H180969   2.679   1.211   5.435  0.1951 -0.5675 -0.5308
19826TIP3    H280970   2.721   1.272   5.303  0.5720  0.5200  0.0864
19827TIP3   OH280971   2.021   5.281  14.144 -0.6247 -0.2410 -0.4483
19827TIP3    H180972   2.020   5.356  14.085 -0.5672  0.5806  0.5556
19827TIP3    H280973   1.989   5.208  14.091 -2.9101  0.9565 -0.8510
19828TIP3   OH280974   0.371   0.699  15.692  0.0831 -0.5342  0.1003
19828TIP3    H180975   0.324   0.637  15.748 -0.6011 -0.0822  0.0410
19828TIP3    H280976   0.463   0.682  15.711 -0.0657 -1.8858 -0.2577
19829TIP3   OH280977   5.417   0.419   3.688 -0.2601 -0.1516  0.1568
19829TIP3    H180978   5.332   0.382   3.711 -0.1289 -1.5939 -1.4742
19829TIP3    H280979   5.468   0.415   3.768 -1.6446  0.5618  1.1199
19830TIP3   OH280980   4.939   5.632   1.635  0.3788  0.1344  0.1263
19830TIP3    H180981   4.927   5.633   1.541  0.4485  1.8730  0.1179
19830TIP3    H280982   4.860   5.673   1.671  0.1522 -0.8929  0.8732
19831TIP3   OH280983   6.584   4.676  16.324 -0.1640  0.0804 -0.4680
19831TIP3    H180984   6.606   4.661  16.415 -1.3221  1.2337  0.0453
19831TIP3    H280985   6.657   4.640  16.274  1.5552  1.3647  0.9896
19832TIP3   OH280986   6.202   0.425  12.921  0.6981 -0.0795  0.5312
19832TIP3    H180987   6.194   0.347  12.866  1.1028 -1.0967  1.8539
19832TIP3    H280988   6.296   0.434  12.937  0.5816  0.1440  1.1127
19833TIP3   OH280989   5.562   3.859  13.623  0.1263 -0.7143  0.2170
19833TIP3    H180990   5.470   3.876  13.640 -0.9159 -3.4284 -1.9603
19833TIP3    H280991   5.601   3.847  13.710 -1.5159  0.4972  1.1721
19834TIP3   OH280992   2.809   6.357   4.522  0.7173 -0.2827  0.0356
19834TIP3    H180993   2.860   6.335   4.600 -0.3804 -0.1612  0.8068
19834TIP3    H280994   2.753   6.281   4.507  0.5552 -0.0942 -0.3240
19835TIP3   OH280995   1.388   3.502   2.685  0.3133 -0.0625 -0.0993
19835TIP3    H180996   1.435   3.497   2.769 -0.1327  0.7353  0.2093
19835TIP3    H280997   1.332   3.425   2.685 -0.1160  0.2358  0.6112
19836TIP3   OH280998   1.940   0.125  13.265  0.0742  0.2302  0.5745
19836TIP3    H180999   2.011   0.173  13.223 -0.7829  0.3119 -0.8070
19836TIP3    H281000   1.868   0.188  13.270 -1.0024 -0.8073 -1.0999
19837TIP3   OH281001   1.952   3.629  12.873  0.1507 -0.0665 -0.5686
19837TIP3    H181002   1.969   3.609  12.781  1.1553  0.4748 -0.5227
19837TIP3    H281003   1.929   3.722  12.874 -0.5870 -0.2513 -0.3566
19838TIP3   OH281004   4.098   4.467  16.266  0.3638  0.2672 -0.8391
19838TIP3    H181005   4.017   4.465  16.318 -0.5271 -1.4148 -2.1667
19838TIP3    H281006   4.105   4.558  16.237 -0.8846  0.5277 -0.4307
19839TIP3   OH281007   5.779   4.772  14.418 -0.1197 -0.5359 -0.4738
19839TIP3    H181008   5.792   4.716  14.341  0.8128  1.3056 -1.7384
19839TIP3    H281009   5.809   4.719  14.491 -1.5795 -2.5736 -1.2391
19840TIP3   OH281010   0.191   0.156   1.091  0.5147 -0.1918 -0.3569
19840TIP3    H181011   0.099   0.180   1.108  0.6581 -0.1717  0.4447
19840TIP3    H281012   0.200   0.069   1.128  1.1818  0.3800  0.9048
19841TIP3   OH281013   2.214   1.780  12.241  0.4865  0.6819  0.0487
19841TIP3    H181014   2.211   1.685  12.233  3.1901  0.3272  2.1131
19841TIP3    H281015   2.136   1.802  12.292 -3.3512  0.4324 -4.8622
19842TIP3   OH281016   5.422   5.396   0.805  0.1848 -0.0841 -0.4811
19842TIP3    H181017   5.383   5.431   0.885 -0.9916  2.2791 -1.9769
19842TIP3    H281018   5.458   5.473   0.760  0.1862 -1.2094 -2.5641
19843TIP3   OH281019   0.054   4.522  12.098  1.0402  0.1663  0.0860
19843TIP3    H181020   0.076   4.615  12.103 -0.1359  0.5447 -1.2579
19843TIP3    H281021   0.126   4.478  12.143  0.9985  1.7892  1.8769
19844TIP3   OH281022   1.377   4.100  13.654 -0.0973  0.1764 -0.4710
19844TIP3    H181023   1.374   4.142  13.740 -0.1574  0.8088 -0.7781
19844TIP3    H281024   1.465   4.119  13.621 -0.6333  1.3863 -1.2590
19845TIP3   OH281025   3.135   5.089  14.855 -0.4184  0.2751  0.0310
19845TIP3    H181026   3.173   5.115  14.939  0.9003 -1.6458  0.1082
19845TIP3    H281027   3.198   5.027  14.819 -2.4936 -1.4433 -0.8597
19846TIP3   OH281028   6.677   6.370  10.445 -0.0113 -0.7648  0.2109
19846TIP3    H181029   6.651   6.308  10.514 -2.3598  0.5421  0.6305
19846TIP3    H281030   6.611   6.439  10.450  2.6780  2.0347  0.0502
19847TIP3   OH281031   1.654   4.873  12.955 -0.7815 -0.1889 -0.3857
19847TIP3    H181032   1.730   4.815  12.952 -1.6479 -1.4190  0.4749
19847TIP3    H281033   1.595   4.838  12.888 -0.6180  0.7647 -1.0535
19848TIP3   OH281034   2.528   1.049   0.316  0.5336 -0.4107 -0.2391
19848TIP3    H181035   2.455   1.000   0.354  0.6281 -1.4634 -1.3833
19848TIP3    H281036   2.497   1.074   0.229  0.5762  1.3921  0.2261
19849TIP3   OH281037   2.201   6.647   1.906 -0.4462 -0.1481  0.2699
19849TIP3    H181038   2.162   6.723   1.861  0.9037  0.4791  0.1190
19849TIP3    H281039   2.126   6.603   1.947 -1.2113  1.5983  0.8664
19850TIP3   OH281040   0.807   0.684  15.983 -0.1908 -0.0649  0.6670
19850TIP3    H181041   0.866   0.659  15.912 -0.3929 -2.1998  1.1799
19850TIP3    H281042   0.722   0.649  15.958 -1.0020  1.8804  0.5396
19851TIP3   OH281043   4.036   0.516   4.302 -0.5834 -0.5522  0.1337
19851TIP3    H181044   3.957   0.570   4.302  0.9521  1.9723  1.9649
19851TIP3    H281045   4.078   0.535   4.217 -0.9217 -0.2266  0.0365
19852TIP3   OH281046   2.195   6.120   4.250  0.6726 -0.1030  0.7169
19852TIP3    H181047   2.243   6.181   4.306  2.1664  0.5138 -1.1337
19852TIP3    H281048   2.259   6.089   4.187 -1.3423  0.7789 -1.9420
19853TIP3   OH281049   3.499   2.441   1.432  0.6991  0.4252 -0.3082
19853TIP3    H181050   3.503   2.347   1.420 -0.7647  0.4086 -0.9458
19853TIP3    H281051   3.547   2.458   1.513 -2.6011 -1.4196  2.2861
19854TIP3   OH281052   0.927   1.574  14.892 -0.2504 -0.1113 -0.0874
19854TIP3    H181053   0.968   1.507  14.838 -0.5085 -0.3537  0.0191
19854TIP3    H281054   0.942   1.545  14.982  0.9825  0.7509  0.0156
19855TIP3   OH281055   4.972   1.207   1.014  0.4546  0.2640 -0.3576
19855TIP3    H181056   4.991   1.284   1.068 -1.4019  0.4559  0.0667
19855TIP3    H281057   4.893   1.169   1.052  0.1061 -0.6331 -1.8793
19856TIP3   OH281058   0.792   1.887  10.111  0.7114 -0.4344 -0.9475
19856TIP3    H181059   0.793   1.868  10.205  0.9897  0.4733 -0.7605
19856TIP3    H281060   0.845   1.966  10.102 -0.5909  0.3884 -1.6714
19857TIP3   OH281061   3.390   6.096  12.210  0.4265 -0.5214 -0.0257
19857TIP3    H181062   3.440   6.128  12.286  1.9444 -0.7960 -0.8749
19857TIP3    H281063   3.372   6.005  12.231 -0.2813 -0.2590  0.5577
19858TIP3   OH281064   3.672   0.725   2.112  0.4362 -0.6191  0.4005
19858TIP3    H181065   3.735   0.783   2.156 -0.4457  0.0449  0.8175
19858TIP3    H281066   3.612   0.697   2.181 -1.1480  0.6685 -0.3749
19859TIP3   OH281067   6.041   3.087   0.572  0.3593 -0.1846 -0.0532
19859TIP3    H181068   6.045   3.089   0.476 -0.9737 -0.2173 -0.1262
19859TIP3    H281069   6.034   2.994   0.593  1.9087 -0.2864  0.1721
19860TIP3   OH281070   6.538   2.482   1.479  0.0688  0.3331  0.5872
19860TIP3    H181071   6.573   2.459   1.392  0.0713  0.2503  0.6101
19860TIP3    H281072   6.459   2.532   1.461  0.5209  1.0297  0.5262
19861TIP3   OH281073   5.244   6.254   3.415 -0.4826 -0.6596  0.5696
19861TIP3    H181074   5.326   6.289   3.450  0.1274  0.7295 -2.0661
19861TIP3    H281075   5.270   6.180   3.361 -0.5728  1.2062 -2.2223
19862TIP3   OH281076   2.698   5.688  13.808  0.3532 -0.0910 -0.1564
19862TIP3    H181077   2.650   5.608  13.788  1.2812 -1.0975  1.4669
19862TIP3    H281078   2.762   5.662  13.874  0.2915  2.1059  0.8487
19863TIP3   OH281079   0.411   5.622   2.470  0.2330  0.1269 -0.1998
19863TIP3    H181080   0.437   5.673   2.546  3.1778 -0.3566 -0.7642
19863TIP3    H281081   0.378   5.539   2.506  2.4086 -0.4546  0.6049
19864TIP3   OH281082   0.228   1.207   2.462  0.5649  0.1106  0.3319
19864TIP3    H181083   0.231   1.296   2.496 -0.4044  0.5172 -0.5919
19864TIP3    H281084   0.145   1.172   2.495  0.9180 -0.4389  0.6470
19865TIP3   OH281085   3.787   0.519   0.903 -0.0439 -0.0340 -0.5894
19865TIP3    H181086   3.724   0.475   0.846  0.4309  0.5823 -1.6107
19865TIP3    H281087   3.871   0.478   0.883 -0.1420 -1.1641  1.0883
19866TIP3   OH281088   2.810   6.374   2.757  0.1445 -0.0977  0.5276
19866TIP3    H181089   2.867   6.451   2.749  2.3035 -1.5593  1.0258
19866TIP3    H281090   2.752   6.396   2.830  0.5685  1.1555  0.5238
19867TIP3   OH281091   4.908   2.022   5.608  0.5598  0.0903  0.4396
19867TIP3    H181092   4.848   2.019   5.533  0.9979  0.3095  0.0723
19867TIP3    H281093   4.924   2.116   5.622  1.7430  0.0075 -0.2312
19868TIP3   OH281094   2.798   4.760  16.604  0.0253  0.5004 -0.3895
19868TIP3    H181095   2.719   4.706  16.612 -0.0713  0.7447  0.4457
19868TIP3    H281096   2.804   4.805  16.688  0.7043  0.9720 -0.6856
19869TIP3   OH281097   5.824   1.580   5.599 -0.0670  0.1506  0.3617
19869TIP3    H181098   5.760   1.640   5.561  0.3180  0.3298 -0.0170
19869TIP3    H281099   5.796   1.494   5.570  0.0282  0.2559 -0.0517
19870TIP3   OH281100   1.333   2.600  13.191  0.3170 -0.3870  0.0544
19870TIP3    H181101   1.303   2.623  13.103  1.1740  0.8077  0.0449
19870TIP3    H281102   1.262   2.548  13.228  0.4253 -1.8906 -1.7348
19871TIP3   OH281103   5.514   2.402  13.376  0.2665  0.6195  0.0093
19871TIP3    H181104   5.494   2.470  13.440  0.3357  1.6829 -1.0671
19871TIP3    H281105   5.460   2.327  13.403 -0.3235  1.3186  0.8271
19872TIP3   OH281106   2.687   2.269   3.659 -0.1204 -0.2566  0.3802
19872TIP3    H181107   2.720   2.181   3.639  1.5591  0.3593  0.2971
19872TIP3    H281108   2.761   2.313   3.700 -0.6163  1.4321 -0.4637
19873TIP3   OH281109   6.796   5.455   3.202  0.1148 -0.0500 -0.1776
19873TIP3    H181110   6.865   5.396   3.234 -0.0574  0.1452  0.5854
19873TIP3    H281111   6.842   5.535   3.179  0.1850 -0.0297  0.0309
19874TIP3   OH281112   2.180   2.275   5.004 -0.2503  0.4039 -0.4073
19874TIP3    H181113   2.221   2.204   4.956  0.5133  1.1398 -0.8556
19874TIP3    H281114   2.105   2.301   4.950 -1.2121 -0.7944  0.3092
19875TIP3   OH281115   4.291   1.875  13.213 -0.2077 -0.0569  0.3233
19875TIP3    H181116   4.291   1.955  13.159  0.4204 -1.0807 -1.2791
19875TIP3    H281117   4.238   1.813  13.163  0.8918 -1.2351  0.5797
19876TIP3   OH281118   3.886   6.134  16.231  0.0846  0.8527 -0.0848
19876TIP3    H181119   3.926   6.073  16.292 -0.4343  0.8994  0.3056
19876TIP3    H281120   3.830   6.080  16.176  1.1945  0.6810 -1.0929
19877TIP3   OH281121   3.321   1.173   5.255  0.2806 -0.3026  0.2796
19877TIP3    H181122   3.277   1.105   5.204  1.5602 -1.1490  0.2391
19877TIP3    H281123   3.257   1.244   5.262 -1.1517 -1.5563  0.4241
19878TIP3   OH281124   4.152   1.476  11.547  0.1989  0.1377 -0.4493
19878TIP3    H181125   4.070   1.519  11.522  0.4561  2.3748  2.0158
19878TIP3    H281126   4.220   1.540  11.525  0.9688 -0.4303  0.2296
19879TIP3   OH281127   2.355   0.567  15.025 -0.0185 -0.1099  0.0354
19879TIP3    H181128   2.370   0.536  15.114  4.2743  3.0289  0.7538
19879TIP3    H281129   2.291   0.637  15.034  2.3748  2.1051  1.4015
19880TIP3   OH281130   2.221   5.589   0.952 -0.0885  0.2591 -0.4048
19880TIP3    H181131   2.206   5.494   0.959  0.7548  0.1484  0.1047
19880TIP3    H281132   2.196   5.623   1.038  3.4081 -0.0903  0.9308
19881TIP3   OH281133   1.928   0.076  16.864  0.6317  0.0808 -0.5984
19881TIP3    H181134   1.903   0.002  16.920  0.6672 -0.8090 -1.7281
19881TIP3    H281135   1.885   0.152  16.905  1.8443 -0.2525  1.4769
19882TIP3   OH281136   0.489   1.344  11.560 -0.2373 -0.3203 -0.1224
19882TIP3    H181137   0.493   1.382  11.647  0.4651 -1.3894  0.3273
19882TIP3    H281138   0.572   1.298  11.550  0.0384  0.4458 -1.6721
19883TIP3   OH281139   2.741   6.779   3.044 -0.7077  0.5455  0.5633
19883TIP3    H181140   2.765   6.858   3.093  1.4042  0.7006 -0.6092
19883TIP3    H281141   2.789   6.709   3.088 -0.5559  0.3296  0.0544
19884TIP3   OH281142   4.100   1.148   2.643 -0.0353  0.0997 -0.3986
19884TIP3    H181143   4.120   1.056   2.624 -1.4131 -0.2813 -0.1057
19884TIP3    H281144   4.096   1.190   2.557 -1.4757 -0.5818 -0.6877
19885TIP3   OH281145   4.038   0.683  11.274 -0.1294 -0.0551  0.6503
19885TIP3    H181146   3.978   0.610  11.255 -0.3264 -0.1522  1.6041
19885TIP3    H281147   4.111   0.642  11.320  0.3564  0.1729  0.0958
19886TIP3   OH281148   3.801   5.386  16.085  0.5179 -0.1841  0.6381
19886TIP3    H181149   3.894   5.389  16.064  0.1072  0.7236 -1.2531
19886TIP3    H281150   3.775   5.477  16.095 -0.9098 -0.0843 -2.7540
19887TIP3   OH281151   2.717   1.932   6.423  0.0472 -0.1679 -0.3539
19887TIP3    H181152   2.813   1.936   6.423  0.1202 -0.7497  1.4930
19887TIP3    H281153   2.696   1.860   6.364  0.8904 -1.4130  0.7991
19888TIP3   OH281154   4.791   5.937  16.885  0.3309  0.2834 -0.4231
19888TIP3    H181155   4.740   6.017  16.876 -0.9853 -0.4843 -0.0370
19888TIP3    H281156   4.805   5.928  16.979  3.1007  1.6095 -0.6082
19889TIP3   OH281157   0.885   1.372   0.778  0.3078 -0.0903  0.1142
19889TIP3    H181158   0.799   1.376   0.821 -0.2308  0.1785 -0.9507
19889TIP3    H281159   0.872   1.312   0.705  1.0600 -0.1120 -0.0030
19890TIP3   OH281160   2.600   2.765  16.761 -0.1870 -0.0924 -0.7460
19890TIP3    H181161   2.644   2.837  16.716 -0.5554  0.5043 -0.1736
19890TIP3    H281162   2.552   2.808  16.832  0.0312 -0.9606 -0.0591
19891TIP3   OH281163   4.985   4.073   2.929 -0.4211 -0.0784 -0.3297
19891TIP3    H181164   4.950   4.141   2.872  0.1386 -0.3580 -1.0255
19891TIP3    H281165   5.050   4.027   2.874  0.7930  0.2199  0.8000
19892TIP3   OH281166   6.325   5.170  16.697  0.0817 -0.3264 -0.3058
19892TIP3    H181167   6.340   5.090  16.647 -2.2584 -0.0492 -1.6235
19892TIP3    H281168   6.309   5.141  16.786 -0.0493 -1.2827 -0.6304
19893TIP3   OH281169   5.324   5.972  14.166  0.4744  0.2876  0.5389
19893TIP3    H181170   5.369   5.888  14.171 -0.1518 -0.2685 -1.7564
19893TIP3    H281171   5.246   5.954  14.113  1.3507  2.6715 -1.8172
19894TIP3   OH281172   0.124   2.708   2.338 -0.3044 -0.0163 -0.2592
19894TIP3    H181173   0.089   2.770   2.274 -0.2599  0.0124 -0.2557
19894TIP3    H281174   0.127   2.758   2.420 -1.2708 -0.3378 -0.0138
19895TIP3   OH281175   4.165   6.262  13.326 -0.4599  0.4575 -0.3569
19895TIP3    H181176   4.150   6.289  13.416 -0.4290  0.2176 -0.2804
19895TIP3    H281177   4.144   6.339  13.274  1.3968  1.2582 -0.0256
19896TIP3   OH281178   2.107   2.108   5.737 -0.0463 -0.2310  0.2179
19896TIP3    H181179   2.148   2.110   5.651  0.8617 -0.3869  0.6348
19896TIP3    H281180   2.018   2.141   5.722 -0.8305 -2.7569 -1.2482
19897TIP3   OH281181   6.020   3.816  15.242 -0.7906 -0.2359  0.2552
19897TIP3    H181182   6.012   3.911  15.237 -0.0059 -0.1481  0.4466
19897TIP3    H281183   6.103   3.797  15.198 -1.3820 -0.9256 -0.6101
19898TIP3   OH281184   4.360   6.184   3.037  0.0191 -0.6862  0.0319
19898TIP3    H181185   4.330   6.145   2.955 -0.3519 -1.0552  0.3425
19898TIP3    H281186   4.449   6.152   3.048  0.0779 -0.6178 -0.2364
19899TIP3   OH281187   0.637   6.132  16.904  0.4835  0.1901 -0.2401
19899TIP3    H181188   0.715   6.185  16.918 -0.1017  0.8485  0.6634
19899TIP3    H281189   0.603   6.162  16.819  1.0136  0.1537 -0.4653
19900TIP3   OH281190   2.352   4.906  15.163 -0.0381  0.3301  0.2413
19900TIP3    H181191   2.330   4.813  15.150  1.8052 -0.1818  0.4534
19900TIP3    H281192   2.321   4.950  15.084  2.1627 -1.0790 -1.5388
19901TIP3   OH281193   2.545   0.137  16.634 -0.2056  0.2317  0.1417
19901TIP3    H181194   2.539   0.173  16.546 -0.1771  0.6168  0.2968
19901TIP3    H281195   2.478   0.069  16.637 -0.5413  0.5562 -0.0136
19902TIP3   OH281196   4.884   2.452   3.485 -0.1821 -0.6559 -0.0502
19902TIP3    H181197   4.804   2.403   3.468  0.3324 -2.3361  2.0202
19902TIP3    H281198   4.886   2.463   3.580  1.5486  0.2417 -0.1532
19903TIP3   OH281199   3.512   5.109   2.791  0.0321 -1.1430 -0.4024
19903TIP3    H181200   3.514   5.097   2.886  0.2543 -0.3109 -0.2995
19903TIP3    H281201   3.567   5.185   2.775 -1.8781  0.1831 -0.9836
19904TIP3   OH281202   5.113   3.041   3.195 -0.5433  0.0461 -0.2977
19904TIP3    H181203   5.197   3.084   3.210 -0.4751 -0.8784  2.6895
19904TIP3    H281204   5.136   2.954   3.163 -0.2839 -0.2846  0.7264
19905TIP3   OH281205   5.445   3.664   3.213 -0.1254  0.1952  0.1580
19905TIP3    H181206   5.485   3.663   3.126  0.4436  1.4800  0.3792
19905TIP3    H281207   5.409   3.753   3.222  0.8807  0.4944  1.6673
19906TIP3   OH281208   5.903   6.214   6.651  0.1921  0.2320 -0.1235
19906TIP3    H181209   5.834   6.153   6.680 -0.4140  0.8128 -0.3410
19906TIP3    H281210   5.985   6.169   6.675 -0.2641 -0.1432  0.7912
19907TIP3   OH281211   4.354   4.579   3.192  0.5377 -0.1567  0.2815
19907TIP3    H181212   4.293   4.506   3.206  1.2677 -1.0944 -1.2537
19907TIP3    H281213   4.310   4.654   3.232 -0.8186 -1.1666  0.7686
19908TIP3   OH281214   3.318   2.085  14.614  0.1312  0.1771  0.0071
19908TIP3    H181215   3.307   2.018  14.546  0.3162  1.0328 -0.8894
19908TIP3    H281216   3.268   2.052  14.688 -1.6326  0.0860 -1.1648
19909TIP3   OH281217   6.512   3.688  11.472  0.3998  0.1120  0.3502
19909TIP3    H181218   6.587   3.747  11.463  1.4118 -0.9747  1.2975
19909TIP3    H281219   6.442   3.730  11.422  1.5118  1.3687 -0.2069
19910TIP3   OH281220   5.160   4.038  12.948 -0.6556 -0.2867 -0.1888
19910TIP3    H181221   5.083   4.089  12.975 -0.9149 -1.4353  1.4337
19910TIP3    H281222   5.124   3.968  12.894 -0.7480 -0.6366  0.3077
19911TIP3   OH281223   3.051   5.380  11.635 -0.5061  0.0276 -0.0352
19911TIP3    H181224   3.019   5.467  11.661  0.2670 -0.1627  1.7363
19911TIP3    H281225   2.997   5.319  11.686 -0.2794 -0.4765 -0.3992
19912TIP3   OH281226   2.151   3.850  12.883 -0.8354 -0.5810  0.6639
19912TIP3    H181227   2.119   3.812  12.965 -2.7401 -0.5843 -0.0201
19912TIP3    H281228   2.102   3.931  12.873 -0.3006 -0.3541 -0.2523
19913TIP3   OH281229   2.982   0.708  12.731 -0.2546 -0.2562 -0.2913
19913TIP3    H181230   2.979   0.652  12.809 -0.2911  0.3645  0.1554
19913TIP3    H281231   2.908   0.767  12.741  0.9706  1.2609  0.3101
19914TIP3   OH281232   6.400   6.014   6.170  0.0941 -0.3787 -0.4461
19914TIP3    H181233   6.472   5.952   6.164 -0.1813 -0.6883 -0.6024
19914TIP3    H281234   6.435   6.088   6.219  0.7648 -0.1609 -1.2324
19915TIP3   OH281235   1.711   4.380  13.945  0.2146  0.2282  0.1742
19915TIP3    H181236   1.784   4.354  13.890  0.6811  0.5166  0.6553
19915TIP3    H281237   1.688   4.300  13.993 -0.2483 -0.0464 -0.4831
19916TIP3   OH281238   4.340   4.110   0.710 -0.3110  0.2827 -0.0390
19916TIP3    H181239   4.356   4.189   0.657  1.0989  0.1020  0.0731
19916TIP3    H281240   4.322   4.143   0.798  1.7639  0.4998  0.3677
19917TIP3   OH281241   0.441   6.122   2.203 -0.3123  0.1537  0.4487
19917TIP3    H181242   0.386   6.128   2.125 -0.2982  1.7779  0.5192
19917TIP3    H281243   0.466   6.213   2.221  2.1461 -0.4690  0.6015
19918TIP3   OH281244   5.646   5.977  16.436  0.0303 -1.3705  0.0032
19918TIP3    H181245   5.636   5.882  16.438  1.1818 -1.5704 -1.8365
19918TIP3    H281246   5.706   5.994  16.363 -0.6058  0.8128 -0.0900
19919TIP3   OH281247   6.534   2.882   2.532 -0.1930 -0.4699  0.0159
19919TIP3    H181248   6.532   2.816   2.602 -0.1961 -0.1272  0.3392
19919TIP3    H281249   6.443   2.889   2.503  0.0046 -1.5925 -0.9510
19920TIP3   OH281250   3.134   0.887   4.508 -0.4401 -0.5900  0.5428
19920TIP3    H181251   3.114   0.957   4.571 -0.3885  0.3670 -0.4586
19920TIP3    H281252   3.048   0.855   4.479 -0.4950  0.0041  0.0148
19921TIP3   OH281253   6.476   4.657  14.452  0.1386 -0.1448 -0.0034
19921TIP3    H181254   6.406   4.691  14.397 -1.2695  1.6612  2.6923
19921TIP3    H281255   6.434   4.593  14.508  1.4328 -1.5651 -0.5715
19922TIP3   OH281256   1.554   0.499  16.285 -0.8589 -0.2174  0.0140
19922TIP3    H181257   1.535   0.446  16.362 -0.0127 -0.3905  0.1104
19922TIP3    H281258   1.629   0.554  16.311  1.0304 -1.9759 -1.4162
19923TIP3   OH281259   4.559   2.825  11.397 -0.1803 -0.4117  0.0242
19923TIP3    H181260   4.529   2.742  11.358  1.0131 -0.7192 -0.2561
19923TIP3    H281261   4.531   2.892  11.335  0.1244 -0.7382 -0.4749
19924TIP3   OH281262   3.314   2.679  16.666  0.0715  0.1856 -0.6777
19924TIP3    H181263   3.396   2.665  16.714 -1.5176 -2.6013  1.5856
19924TIP3    H281264   3.283   2.764  16.697  0.0004 -0.7295  2.0575
19925TIP3   OH281265   4.020   2.731   6.476  0.1643 -0.2051 -0.1395
19925TIP3    H181266   3.977   2.800   6.426 -1.7093 -0.4036  1.1181
19925TIP3    H281267   4.052   2.775   6.555  2.9069  0.0620 -1.2817
19926TIP3   OH281268   3.730   1.964  14.246  0.3284  0.0799  0.0625
19926TIP3    H181269   3.755   1.961  14.338 -0.3141  3.5580  0.5047
19926TIP3    H281270   3.656   2.025  14.244 -0.2046 -0.5159 -2.6938
19927TIP3   OH281271   2.717   3.618  11.205  0.1188  0.0171 -0.2047
19927TIP3    H181272   2.623   3.629  11.216  0.2851 -0.1697  1.7373
19927TIP3    H281273   2.728   3.598  11.112 -1.7414  0.0807 -0.4771
19928TIP3   OH281274   5.535   0.206  14.668 -0.3323  0.5251 -0.1016
19928TIP3    H181275   5.615   0.258  14.681 -0.7292  1.3990 -1.0958
19928TIP3    H281276   5.467   0.256  14.713 -0.5458  0.3702 -0.2559
19929TIP3   OH281277   3.671   6.457  15.620  0.3358 -0.4583 -0.4569
19929TIP3    H181278   3.735   6.497  15.679 -0.3856 -3.1571  2.4769
19929TIP3    H281279   3.707   6.370  15.601 -0.0235 -0.0908 -3.2330
19930TIP3   OH281280   5.651   6.041   0.036  0.0520  0.3297 -0.1450
19930TIP3    H181281   5.722   6.055  -0.027  0.5137  1.7286  0.6503
19930TIP3    H281282   5.578   6.093   0.001 -0.0365  0.2610 -0.0621
19931TIP3   OH281283   5.758   0.786   2.162  0.5371  0.3174 -0.9756
19931TIP3    H181284   5.742   0.692   2.168  0.8929  0.1256 -2.5923
19931TIP3    H281285   5.736   0.809   2.072 -0.9051  2.0779 -0.2303
19932TIP3   OH281286   4.842   6.664  14.133  0.5734  0.8462 -0.1394
19932TIP3    H181287   4.932   6.686  14.106  0.7237  1.6588  0.9637
19932TIP3    H281288   4.789   6.737  14.099  0.2093  0.0433 -1.3598
19933TIP3   OH281289   1.147   0.325   4.122 -0.4746 -0.4341 -0.1819
19933TIP3    H181290   1.060   0.329   4.163 -1.0162 -0.8982 -1.2373
19933TIP3    H281291   1.148   0.241   4.077  1.1350 -1.1383  1.0882
19934TIP3   OH281292   5.039   1.973   3.925  0.3730  0.0158 -0.1078
19934TIP3    H181293   5.086   1.995   4.006 -0.1136  1.9846 -0.3092
19934TIP3    H281294   5.057   2.047   3.867 -0.2514 -0.8136 -1.3848
19935TIP3   OH281295   1.424   0.367   4.809 -0.0385 -0.2067 -0.3548
19935TIP3    H181296   1.366   0.442   4.797 -1.2418 -0.9036  0.8290
19935TIP3    H281297   1.412   0.343   4.901  1.9117 -0.5648 -0.1540
19936TIP3   OH281298   6.622   4.095   2.593 -0.0122  0.2481  0.1956
19936TIP3    H181299   6.660   4.118   2.508 -2.6392 -0.1999 -1.2282
19936TIP3    H281300   6.656   4.161   2.653  0.6039  1.6396 -1.5859
19937TIP3   OH281301   2.243   2.278   1.869 -0.2389  0.1056  0.3498
19937TIP3    H181302   2.271   2.360   1.910  0.6720 -0.2518  0.4598
19937TIP3    H281303   2.315   2.217   1.884 -1.6394 -1.2850  1.8603
19938TIP3   OH281304   6.078   2.202   3.136  0.0463  0.8142 -0.2633
19938TIP3    H181305   6.089   2.232   3.226 -1.2547  1.1581 -0.1890
19938TIP3    H281306   6.144   2.133   3.124  0.2483  0.7870  0.9412
19939TIP3   OH281307   5.030   2.562  14.255 -0.3861  0.2828  0.1524
19939TIP3    H181308   5.043   2.518  14.339 -0.9282 -0.5247 -0.1723
19939TIP3    H281309   5.118   2.586  14.227 -0.2156  0.7545  1.0465
19940TIP3   OH281310   6.270   5.105   0.459 -0.0018  0.1338 -0.0015
19940TIP3    H181311   6.328   5.033   0.484  0.6232  0.5992 -0.0673
19940TIP3    H281312   6.329   5.180   0.450 -0.6000  0.5798 -0.2368
19941TIP3   OH281313   3.931   3.588  16.779 -0.2678 -0.6154 -0.1380
19941TIP3    H181314   3.900   3.674  16.754 -2.5544 -1.2650  0.1954
19941TIP3    H281315   3.903   3.578  16.870 -1.6610 -2.3524 -0.6976
19942TIP3   OH281316   4.688   3.886  13.667 -0.1009  0.4258  0.6862
19942TIP3    H181317   4.691   3.958  13.603  1.1350  1.5378  1.9473
19942TIP3    H281318   4.641   3.922  13.742  1.8626  0.4975  1.9558
19943TIP3   OH281319   3.447   6.741   2.215 -0.2333 -0.1085  0.7609
19943TIP3    H181320   3.376   6.703   2.163  0.1489 -2.5672  1.8932
19943TIP3    H281321   3.517   6.675   2.213  1.0461  1.1570  1.7064
19944TIP3   OH281322   1.278   4.707  11.746  0.1715  0.2726  0.0988
19944TIP3    H181323   1.192   4.747  11.759 -0.0005  0.2828 -0.9866
19944TIP3    H281324   1.273   4.666  11.660  1.4072  0.6809 -0.1933
19945TIP3   OH281325   3.362   4.356   5.852 -0.1364  0.1706  0.2853
19945TIP3    H181326   3.344   4.321   5.940 -0.0983  1.2412  0.7308
19945TIP3    H281327   3.304   4.432   5.845 -0.8059 -0.4326 -0.9808
19946TIP3   OH281328   3.629   4.071   1.235  0.1401  0.4266  0.1973
19946TIP3    H181329   3.646   3.986   1.274  0.0242  0.1329 -0.3811
19946TIP3    H281330   3.561   4.110   1.291  0.2040  0.1492  0.4707
19947TIP3   OH281331   5.244   4.418  14.276 -0.3758  0.0191 -0.5552
19947TIP3    H181332   5.223   4.338  14.326  1.7151  0.0170  0.4068
19947TIP3    H281333   5.159   4.462  14.266 -0.9565  0.0781  3.1380
19948TIP3   OH281334   3.664   0.123  15.113 -0.0990  0.0214 -0.4337
19948TIP3    H181335   3.755   0.127  15.141  0.1409 -1.6558 -0.8706
19948TIP3    H281336   3.669   0.116  15.017 -0.5194 -2.5198 -0.3480
19949TIP3   OH281337   5.942   1.083   0.372 -0.0208 -0.6262 -0.4058
19949TIP3    H181338   5.902   1.128   0.297  2.2651  0.8696 -0.8553
19949TIP3    H281339   5.994   1.013   0.333  1.6400  0.5108 -0.3740
19950TIP3   OH281340   6.280   5.208   3.429 -0.7556  0.1425  0.2632
19950TIP3    H181341   6.257   5.216   3.522  0.0074 -2.3333  0.7399
19950TIP3    H281342   6.340   5.280   3.413 -1.6545  1.1924  1.4185
19951TIP3   OH281343   6.405   0.743  13.811  0.1030 -0.4832 -0.0731
19951TIP3    H181344   6.383   0.649  13.814 -1.4084 -0.1835 -0.9487
19951TIP3    H281345   6.364   0.775  13.731 -0.2975  1.1568  0.7449
19952TIP3   OH281346   5.270   0.101  11.602  0.4090 -0.0096 -0.1776
19952TIP3    H181347   5.191   0.119  11.551 -0.3565 -1.1664  0.5544
19952TIP3    H281348   5.238   0.081  11.690  1.4879 -0.9447  0.0179
19953TIP3   OH281349   6.123   6.128  16.409 -0.4216  0.0352 -0.4549
19953TIP3    H181350   6.094   6.069  16.478  0.5416 -0.3798 -0.3783
19953TIP3    H281351   6.085   6.213  16.431 -2.5346 -0.7107 -1.0141
19954TIP3   OH281352   4.684   1.538  16.238 -0.1931  0.2939 -0.2797
19954TIP3    H181353   4.655   1.470  16.299 -2.8058  0.3528 -1.3256
19954TIP3    H281354   4.618   1.608  16.247  1.2730  1.8065 -0.7394
19955TIP3   OH281355   0.791   0.630  11.626 -0.5369 -0.3595  0.2472
19955TIP3    H181356   0.709   0.582  11.628 -1.2048  0.5101 -2.2786
19955TIP3    H281357   0.765   0.722  11.615  0.7210 -0.1572 -1.4527
19956TIP3   OH281358   5.071   1.090   3.695 -0.1486 -0.1042 -0.2363
19956TIP3    H181359   5.053   1.080   3.788  3.4169  0.0631  0.5834
19956TIP3    H281360   5.086   1.001   3.663  1.0662  0.0162 -0.0427
19957TIP3   OH281361   1.285   1.936   4.071  0.0272 -0.1810 -0.1688
19957TIP3    H181362   1.381   1.937   4.075  0.1638 -4.0507  2.5402
19957TIP3    H281363   1.264   1.860   4.017 -1.4658 -0.9389  1.4036
19958TIP3   OH281364   3.157   6.037  15.811  0.7328  0.1059 -0.3577
19958TIP3    H181365   3.222   6.107  15.815  0.9690 -0.1752  1.4189
19958TIP3    H281366   3.167   5.990  15.894 -0.7087 -0.8792 -0.7092
19959TIP3   OH281367   1.113   2.212  12.781  0.2166 -0.1468  0.2592
19959TIP3    H181368   1.175   2.213  12.708  1.4181  0.6323  1.2588
19959TIP3    H281369   1.092   2.305  12.795  0.3239 -0.2564  1.1690
19960TIP3   OH281370   5.978   1.535   6.271  0.2977 -0.0823 -0.4031
19960TIP3    H181371   5.943   1.571   6.352  2.8231  1.4560  0.1111
19960TIP3    H281372   5.928   1.579   6.202  0.8639  1.7354  0.2892
19961TIP3   OH281373   2.979   3.788  15.551 -0.0653  0.9926  0.1795
19961TIP3    H181374   2.943   3.743  15.474  2.0439 -0.1858 -0.1925
19961TIP3    H281375   2.981   3.880  15.525  0.8795  0.5797 -1.3185
19962TIP3   OH281376   0.642   1.485   2.789 -0.2559  0.7532 -0.3407
19962TIP3    H181377   0.653   1.402   2.742  2.7870  0.7584  0.1494
19962TIP3    H281378   0.580   1.535   2.735 -1.4651 -1.4602 -1.1184
19963TIP3   OH281379   4.882   6.112   5.167  0.1714 -0.3640 -0.0505
19963TIP3    H181380   4.942   6.084   5.235 -0.6606 -2.0548  0.0280
19963TIP3    H281381   4.826   6.177   5.209 -0.3529 -1.4093  0.9197
19964TIP3   OH281382   5.728   5.475   6.105  0.2720  0.0794 -0.4511
19964TIP3    H181383   5.736   5.402   6.167  0.5849  0.6468  0.1836
19964TIP3    H281384   5.768   5.441   6.024  0.3585 -0.4775 -0.1828
19965TIP3   OH281385   3.016   1.563   4.214 -0.2100 -0.0250 -0.1513
19965TIP3    H181386   3.046   1.479   4.178 -1.1310 -0.4406  0.0411
19965TIP3    H281387   2.921   1.555   4.218 -0.2376  0.6676  0.7886
19966TIP3   OH281388   2.328   4.611   4.405 -0.0241 -0.7033  0.5568
19966TIP3    H181389   2.422   4.626   4.394  0.2918 -2.0807  1.1410
19966TIP3    H281390   2.295   4.692   4.443  0.9016 -0.1534  0.2096
19967TIP3   OH281391   4.066   1.987  15.507  0.2869 -0.8728 -0.6601
19967TIP3    H181392   4.012   2.020  15.579  0.7113 -0.7541 -0.3930
19967TIP3    H281393   4.024   1.905  15.481 -0.0749 -0.7342 -0.5168
19968TIP3   OH281394   1.507   3.837  12.559  0.4376 -0.0921  0.4377
19968TIP3    H181395   1.477   3.750  12.532 -1.9910  1.1390 -1.1532
19968TIP3    H281396   1.593   3.846  12.519 -0.7100 -0.5322 -2.3583
19969TIP3   OH281397   0.565   6.561  12.249 -0.5497  0.1078 -0.6352
19969TIP3    H181398   0.477   6.596  12.262 -0.5400 -0.1327  0.1812
19969TIP3    H281399   0.621   6.616  12.305 -0.3213 -0.3139 -0.4477
19970TIP3   OH281400   0.878   0.581  11.189  0.8829  0.7018 -0.2649
19970TIP3    H181401   0.807   0.644  11.173 -0.5369 -0.6596  0.3571
19970TIP3    H281402   0.951   0.612  11.136 -0.8315  1.0776 -2.5320
19971TIP3   OH281403   0.926   5.911  16.138  0.5592 -0.2333 -0.3691
19971TIP3    H181404   1.009   5.883  16.174  2.0247  0.1831 -3.1245
19971TIP3    H281405   0.871   5.832  16.139  1.8142 -1.1320 -0.6269
19972TIP3   OH281406   3.149   2.335   2.459 -0.5342 -0.2823  0.3902
19972TIP3    H181407   3.231   2.380   2.478 -0.7306  0.2001  0.1062
19972TIP3    H281408   3.146   2.263   2.523  0.7359 -1.1062 -0.4188
19973TIP3   OH281409   3.047   6.777   0.418  0.0218  0.3116  0.9311
19973TIP3    H181410   3.009   6.699   0.377 -0.3026  0.7451  0.3748
19973TIP3    H281411   3.116   6.804   0.358  0.2378  0.3612  1.2017
19974TIP3   OH281412   2.490   6.420  16.104  0.1023  0.2316 -0.0486
19974TIP3    H181413   2.553   6.434  16.175  0.5286 -0.4815 -0.2756
19974TIP3    H281414   2.473   6.326  16.105  0.7416  0.0777 -1.4163
19975TIP3   OH281415   0.453   3.772  12.692 -0.4182 -0.5247 -0.0443
19975TIP3    H181416   0.458   3.735  12.780  0.3249  0.8289  0.5067
19975TIP3    H281417   0.534   3.742  12.649 -0.0825 -0.0170  0.2214
19976TIP3   OH281418   5.850   0.860  16.046 -0.4984  0.3892  0.4314
19976TIP3    H181419   5.877   0.772  16.019 -0.6943  0.5898 -0.4445
19976TIP3    H281420   5.839   0.853  16.140 -0.1797 -0.4416  0.4198
19977TIP3   OH281421   5.162   6.527   0.726  0.0523 -0.1065 -0.3414
19977TIP3    H181422   5.097   6.457   0.735 -2.5197  2.1462 -0.0866
19977TIP3    H281423   5.196   6.541   0.814 -1.1302  0.4452  0.0432
19978TIP3   OH281424   5.943   6.338  13.184 -0.6791  0.3126 -0.1097
19978TIP3    H181425   5.848   6.339  13.198 -0.7989  0.2307 -0.8972
19978TIP3    H281426   5.954   6.310  13.093  0.0087  2.3497 -0.7258
19979TIP3   OH281427   0.145   5.824  15.698  0.7391 -0.5127  0.3889
19979TIP3    H181428   0.238   5.800  15.707  1.4228  1.8200  0.1891
19979TIP3    H281429   0.129   5.822  15.604  0.5067 -1.1050  0.4357
19980TIP3   OH281430   3.551   1.896   3.046 -0.1607 -0.6986  0.4298
19980TIP3    H181431   3.534   1.853   3.129  0.5827  0.0568  0.9807
19980TIP3    H281432   3.518   1.834   2.980 -0.7962 -1.2793  1.2719
19981TIP3   OH281433   1.949   5.991  13.364  0.5269  0.2105 -0.0651
19981TIP3    H181434   1.996   5.954  13.289  0.0916 -1.7583  0.5781
19981TIP3    H281435   2.004   6.063  13.393  1.3611  0.1865 -1.4823
19982TIP3   OH281436   1.219   2.612  14.848 -0.2866 -0.6753 -0.1376
19982TIP3    H181437   1.286   2.560  14.892 -0.7504 -1.9290 -0.8686
19982TIP3    H281438   1.230   2.594  14.755 -0.7510  0.1864 -0.3722
19983TIP3   OH281439   6.766   3.066  16.062  0.3106  0.8974  0.0020
19983TIP3    H181440   6.795   3.082  15.973  0.4496  0.3855 -0.0504
19983TIP3    H281441   6.792   2.975  16.080 -3.3267 -0.5198 -0.9062
19984TIP3   OH281442   1.649   3.120   5.884  0.3965  0.1439  0.2802
19984TIP3    H181443   1.733   3.112   5.839 -0.2554 -0.3369 -0.9193
19984TIP3    H281444   1.671   3.122   5.977  1.7942  0.9883 -0.0346
19985TIP3   OH281445   0.939   1.621  11.620 -0.8769  0.3698  0.4252
19985TIP3    H181446   0.951   1.564  11.544 -1.2760 -0.4472  0.9746
19985TIP3    H281447   0.971   1.570  11.694 -1.0356  0.9408  0.8951
19986TIP3   OH281448   4.959   1.831   5.207 -0.2364 -0.0459 -0.0427
19986TIP3    H181449   5.017   1.889   5.255  0.9655 -1.7830  0.7295
19986TIP3    H281450   4.997   1.824   5.119 -1.2204  1.4335 -0.6245
19987TIP3   OH281451   1.694   0.089   3.217  0.0238 -0.0252 -0.3732
19987TIP3    H181452   1.751   0.107   3.292 -1.9169  0.1977  1.1176
19987TIP3    H281453   1.688  -0.006   3.213  0.3376 -0.0436 -0.4269
19988TIP3   OH281454   1.381   6.440   5.156 -0.6597  0.1671 -0.5246
19988TIP3    H181455   1.358   6.383   5.230 -0.4715  0.8755  0.0940
19988TIP3    H281456   1.336   6.523   5.175  1.2227  1.1343  0.0011
19989TIP3   OH281457   2.011   6.542   4.886  0.3913  0.2697 -0.1054
19989TIP3    H181458   2.024   6.467   4.828 -0.1377  0.2767 -0.2429
19989TIP3    H281459   1.946   6.596   4.841  1.9680  1.6769 -0.8268
19990TIP3   OH281460   4.119   2.258   5.646  0.6335 -0.2296  0.2295
19990TIP3    H181461   4.060   2.197   5.688 -0.1849  1.2293  1.2916
19990TIP3    H281462   4.074   2.343   5.651  1.8613  0.5338 -0.8807
19991TIP3   OH281463   3.263   3.561  10.588 -0.0058 -0.0615  0.0269
19991TIP3    H181464   3.300   3.475  10.566  2.0483  1.0358 -1.1919
19991TIP3    H281465   3.237   3.598  10.503 -0.4746  0.6629  0.4828
19992TIP3   OH281466   5.447   0.396   5.881  0.5183  0.0792  0.2562
19992TIP3    H181467   5.395   0.427   5.807 -1.2227 -1.4278  0.7853
19992TIP3    H281468   5.414   0.445   5.956  0.6879 -0.0483  0.4161
19993TIP3   OH281469   0.894   1.390  14.104  0.1412 -0.4253 -0.4832
19993TIP3    H181470   0.972   1.362  14.057 -0.9790 -2.5638 -1.2115
19993TIP3    H281471   0.898   1.486  14.102  0.8654 -0.3943 -3.7706
19994TIP3   OH281472   0.752   0.468   6.350 -0.1225 -0.1948 -0.5966
19994TIP3    H181473   0.839   0.508   6.357  0.0771 -0.9198  3.5735
19994TIP3    H281474   0.768   0.380   6.317  0.8340 -0.4480  0.4832
19995TIP3   OH281475   5.690   0.870  10.740  0.3282 -0.2435 -0.3262
19995TIP3    H181476   5.671   0.803  10.806 -2.6529 -0.9398 -1.7170
19995TIP3    H281477   5.676   0.953  10.786 -1.3965 -0.7152  0.0693
19996TIP3   OH281478   3.942   1.229   1.421  0.0886  0.4730 -0.3643
19996TIP3    H181479   4.031   1.239   1.456 -0.3192 -0.3723  0.9713
19996TIP3    H281480   3.893   1.187   1.492 -1.0536 -0.2821 -1.5686
19997TIP3   OH281481   2.614   2.472   4.091  0.2125  0.0674  0.2483
19997TIP3    H181482   2.690   2.428   4.053  1.7067  1.8637  0.9712
19997TIP3    H281483   2.638   2.488   4.182 -0.4483  1.8426  0.1591
19998TIP3   OH281484   2.951   0.657   5.135  0.2763  0.1268 -0.0687
19998TIP3    H181485   2.876   0.650   5.195  0.3568  0.2715  0.0477
19998TIP3    H281486   2.925   0.605   5.059 -0.2876  0.8477 -0.3808
19999TIP3   OH281487   4.255   4.141   5.091 -0.1022 -0.0115  0.0922
19999TIP3    H181488   4.285   4.149   5.001  0.5949 -1.6187  0.1496
19999TIP3    H281489   4.290   4.057   5.121 -1.9709 -0.4480  1.2328
20000TIP3   OH281490   4.375   3.910  15.734  0.5688 -0.0675 -0.0816
20000TIP3    H181491   4.291   3.944  15.767  1.2796  2.1345 -0.3757
20000TIP3    H281492   4.411   3.861  15.807  1.2357  3.1238  1.9434
20001TIP3   OH281493   0.373   5.954   1.014  0.2358  0.2646  0.0328
20001TIP3    H181494   0.288   5.913   0.995  0.6583  0.1301 -1.7377
20001TIP3    H281495   0.437   5.899   0.969  1.2657  0.4576  1.2194
20002TIP3   OH281496   1.537   5.572  13.610  0.3751  0.3351  0.0204
20002TIP3    H181497   1.605   5.506  13.622 -0.4317 -0.2210  2.0408
20002TIP3    H281498   1.462   5.538  13.661 -0.9623  1.5372 -1.0612
20003TIP3   OH281499   4.148   5.127   0.585  0.1301 -0.2330  0.0107
20003TIP3    H181500   4.072   5.185   0.596  0.4252  0.1558  0.0332
20003TIP3    H281501   4.186   5.153   0.501  1.4424  1.0189  0.9330
20004TIP3   OH281502   3.834   6.261  15.296 -0.4058  0.0821  0.4122
20004TIP3    H181503   3.838   6.352  15.269 -2.1644  0.3003  0.7479
20004TIP3    H281504   3.797   6.214  15.221 -2.1208  0.1425  1.1630
20005TIP3   OH281505   0.934   2.921  15.920  0.0205 -0.4905 -0.3047
20005TIP3    H181506   0.987   2.857  15.968 -0.5163  0.0673  1.0869
20005TIP3    H281507   0.877   2.960  15.986 -0.9885  0.0935 -1.4658
20006TIP3   OH281508   3.510   6.106  12.799 -0.2129  0.2945  0.1941
20006TIP3    H181509   3.595   6.102  12.756 -0.1183  0.6696  0.3360
20006TIP3    H281510   3.530   6.097  12.892 -0.5541 -2.1578  0.0956
20007TIP3   OH281511   3.465   3.293  13.741  0.1560 -0.0813  0.1491
20007TIP3    H181512   3.521   3.243  13.800  0.6322  0.0740 -0.1620
20007TIP3    H281513   3.527   3.342  13.686 -0.2847  0.0660 -0.2183
20008TIP3   OH281514   2.325   4.306  13.992  0.0002 -0.3441 -0.2838
20008TIP3    H181515   2.302   4.337  13.904  2.0683  0.3828 -0.6458
20008TIP3    H281516   2.405   4.255  13.979  1.4748  1.3629  1.3267
20009TIP3   OH281517   6.526   5.349  13.104  0.2302  0.2681  0.4736
20009TIP3    H181518   6.501   5.438  13.080 -1.1705  0.0436  1.0139
20009TIP3    H281519   6.570   5.358  13.188 -2.0850  0.2566  1.7685
20010TIP3   OH281520   0.041   6.362   1.227 -0.1224 -0.3903 -0.0365
20010TIP3    H181521   0.080   6.276   1.210  1.2730  0.4601 -1.3944
20010TIP3    H281522   0.114   6.417   1.255 -1.1250  0.1935  1.5742
20011TIP3   OH281523   4.783   3.893  15.783  0.2681 -0.3504  0.1318
20011TIP3    H181524   4.860   3.851  15.822 -1.2240 -2.4891  0.9577
20011TIP3    H281525   4.711   3.831  15.799 -1.9927  2.2917  0.8984
20012TIP3   OH281526   5.492   2.280  15.829 -0.3313 -0.4065  0.1833
20012TIP3    H181527   5.549   2.241  15.764 -0.7998  0.4075 -0.7438
20012TIP3    H281528   5.420   2.318  15.778 -0.6579  0.3325  1.1671
20013TIP3   OH281529   4.830   2.052  16.612 -0.2936 -0.4676  0.9961
20013TIP3    H181530   4.852   2.049  16.705 -1.0381 -1.0524  1.1548
20013TIP3    H281531   4.746   2.098  16.608  0.9602  1.9867  0.3656
20014TIP3   OH281532   4.634   0.604  13.966  0.9466  0.8468  0.0214
20014TIP3    H181533   4.541   0.604  13.944  0.2373  0.2890  2.5808
20014TIP3    H281534   4.679   0.598  13.882 -1.3732 -3.7589 -1.2555
20015TIP3   OH281535   0.592   4.531   6.262 -0.3640 -0.5758  0.3072
20015TIP3    H181536   0.508   4.513   6.219 -0.8200 -1.0137  1.3707
20015TIP3    H281537   0.615   4.619   6.232 -0.2978 -1.1410 -1.4246
20016TIP3   OH281538   3.701   5.084  10.990 -0.5482 -1.2681 -0.6111
20016TIP3    H181539   3.769   5.030  11.030 -0.4188  0.0361  1.0293
20016TIP3    H281540   3.741   5.170  10.978 -1.8659 -0.4760  0.3585
20017TIP3   OH281541   5.066   6.279  14.503 -0.0971 -0.4137 -0.4196
20017TIP3    H181542   5.084   6.229  14.423  0.8812 -2.1131  0.8147
20017TIP3    H281543   4.988   6.239  14.540 -1.4170  1.3014 -1.2062
20018TIP3   OH281544   1.663   0.548   5.846 -0.8516 -0.4462 -0.3415
20018TIP3    H181545   1.725   0.502   5.903 -1.9113 -0.8902  0.5139
20018TIP3    H281546   1.709   0.559   5.763  0.7107  0.1374  0.5627
20019TIP3   OH281547   1.646   6.379   1.455 -0.6934 -0.4515  0.2125
20019TIP3    H181548   1.715   6.445   1.464 -2.4133  1.3855  0.6814
20019TIP3    H281549   1.643   6.359   1.362 -0.7442  0.8695 -0.0938
20020TIP3   OH281550   1.016   4.413  16.318 -0.3678 -0.0910 -0.4330
20020TIP3    H181551   0.959   4.383  16.247  0.0381  2.0602 -1.7781
20020TIP3    H281552   1.055   4.333  16.354 -3.7375 -1.6100  0.1994
20021TIP3   OH281553   0.876   3.739   1.353 -0.0093  0.4459 -0.5822
20021TIP3    H181554   0.848   3.745   1.262  1.7015 -0.4443 -1.2183
20021TIP3    H281555   0.900   3.829   1.376  0.1006  0.5842 -1.2181
20022TIP3   OH281556   5.413   4.014  11.776 -0.0438 -0.7143  0.3891
20022TIP3    H181557   5.474   4.085  11.754  0.1079 -0.6714  0.9376
20022TIP3    H281558   5.413   4.011  11.872 -0.0864 -1.4272  0.3677
20023TIP3   OH281559   1.869   0.786   1.598 -0.0067  0.0812  0.3700
20023TIP3    H181560   1.944   0.770   1.655  0.6338  0.9695 -0.2125
20023TIP3    H281561   1.906   0.824   1.518 -0.7083 -2.2929 -1.2260
20024TIP3   OH281562   4.885   5.284  13.376  0.5377  0.5234 -0.0356
20024TIP3    H181563   4.898   5.378  13.383 -1.4720  0.7887  1.2234
20024TIP3    H281564   4.804   5.275  13.325  0.0840 -0.4547  0.8267
20025TIP3   OH281565   4.894   1.946  13.435 -0.6488 -0.1634  0.2416
20025TIP3    H181566   4.811   1.946  13.388 -0.0047  2.2633 -1.0897
20025TIP3    H281567   4.958   1.976  13.370  0.8488  0.2752  1.8315
20026TIP3   OH281568   2.824   5.524   1.504 -0.2348 -0.6317 -0.0538
20026TIP3    H181569   2.847   5.617   1.493  1.4224 -0.8405  1.1110
20026TIP3    H281570   2.877   5.478   1.439  1.9925 -1.0204  1.8775
20027TIP3   OH281571   2.255   4.249   0.600  0.3491 -0.3294  0.0631
20027TIP3    H181572   2.278   4.334   0.564 -0.5874 -0.1430 -0.1263
20027TIP3    H281573   2.316   4.188   0.559  0.9397  0.2284  0.1006
20028TIP3   OH281574   6.435   5.332   4.555  0.3689 -0.0060 -0.3488
20028TIP3    H181575   6.421   5.426   4.542 -0.8264 -0.1778 -0.4136
20028TIP3    H281576   6.529   5.323   4.566  0.5080  1.1912 -0.4478
20029TIP3   OH281577   2.718   4.263   4.147 -0.3187 -0.4325  0.1125
20029TIP3    H181578   2.671   4.274   4.230 -0.9532 -0.3537 -0.2459
20029TIP3    H281579   2.682   4.332   4.091  2.7230  2.0208  0.8802
20030TIP3   OH281580   3.328   0.242  14.171  0.3099  0.1865 -0.5360
20030TIP3    H181581   3.400   0.305  14.171  0.3698  0.1190 -0.3043
20030TIP3    H281582   3.295   0.243  14.261 -0.9869  1.3618 -0.9782
20031TIP3   OH281583   1.514   2.098   1.741 -0.2787 -0.0011 -0.1625
20031TIP3    H181584   1.498   2.145   1.658  0.1617 -0.0768 -0.2896
20031TIP3    H281585   1.431   2.053   1.758 -1.2306  1.9213  0.6869
20032TIP3   OH281586   0.342   5.859   1.531 -0.5259 -0.3574  0.4654
20032TIP3    H181587   0.412   5.906   1.576 -1.1974 -0.7455  1.9860
20032TIP3    H281588   0.327   5.781   1.585  0.4550 -2.2945 -1.8894
20033TIP3   OH281589   2.366   0.443   2.152 -0.1783  0.3144 -0.0716
20033TIP3    H181590   2.424   0.506   2.110 -0.8051  1.2620  0.4563
20033TIP3    H281591   2.324   0.397   2.080  1.6102 -0.7859 -0.4753
20034TIP3   OH281592   4.341   1.613   0.233  0.1431 -0.4270 -0.0180
20034TIP3    H181593   4.403   1.595   0.162  0.2266 -0.2843  0.0184
20034TIP3    H281594   4.266   1.654   0.189  1.2349  2.0451  0.2636
20035TIP3   OH281595   0.373   4.857  12.693  0.5466  0.2070  0.1954
20035TIP3    H181596   0.349   4.785  12.634  0.9187 -0.3166  0.6727
20035TIP3    H281597   0.315   4.847  12.768  1.3299 -0.2714  0.7574
20036TIP3   OH281598   1.811   0.453   6.052  0.1617  0.1438  0.1290
20036TIP3    H181599   1.821   0.370   6.098 -1.2592  0.2362  0.6746
20036TIP3    H281600   1.838   0.519   6.116  0.5319  0.1470 -0.0289
20037TIP3   OH281601   2.404   3.544   6.640  0.0129 -0.1664  0.1494
20037TIP3    H181602   2.383   3.616   6.581  1.1120  0.2166  0.2151
20037TIP3    H281603   2.498   3.550   6.653 -0.2088 -0.2054  1.9903
20038TIP3   OH281604   2.256   1.493   1.388 -0.7108  0.1209 -0.6306
20038TIP3    H181605   2.161   1.479   1.397 -0.9072  1.8376  0.6291
20038TIP3    H281606   2.276   1.560   1.454  2.0580 -2.7261  1.7183
20039TIP3   OH281607   6.115   4.481  10.471  0.6133  1.1275 -0.0973
20039TIP3    H181608   6.077   4.556  10.517  0.9904  0.4670  1.3584
20039TIP3    H281609   6.045   4.415  10.471  1.6218 -0.1144  2.6454
20040TIP3   OH281610   2.032   5.007   6.436  0.6991  0.0405 -0.4087
20040TIP3    H181611   2.009   5.019   6.343 -0.2548  1.2170 -0.0414
20040TIP3    H281612   2.008   4.916   6.454 -0.2706  0.1597 -1.0133
20041TIP3   OH281613   1.506   5.011  14.906  0.8448 -0.5499  0.1670
20041TIP3    H181614   1.445   5.031  14.977  0.5619  0.4064 -0.3151
20041TIP3    H281615   1.450   4.974  14.837  1.1158 -1.4667  0.4352
20042TIP3   OH281616   3.479   5.818  16.327 -0.5164  0.0132  0.1680
20042TIP3    H181617   3.536   5.894  16.340 -0.1590 -0.2558  0.2110
20042TIP3    H281618   3.538   5.751  16.292 -0.6447 -0.5126  0.9410
20043TIP3   OH281619   2.301   5.546   4.390 -0.3960  0.0637  0.0028
20043TIP3    H181620   2.334   5.510   4.472 -2.2510  0.6098  1.0505
20043TIP3    H281621   2.268   5.470   4.342 -0.0341 -0.1604  0.1028
20044TIP3   OH281622   2.676   2.553  13.023 -0.1913 -0.3895  0.1336
20044TIP3    H181623   2.681   2.649  13.016 -1.3012 -0.3999 -1.3498
20044TIP3    H281624   2.669   2.536  13.117  0.5064  0.9466  0.4533
20045TIP3   OH281625   4.387   6.520  12.454  0.1753  0.1076  0.0905
20045TIP3    H181626   4.326   6.452  12.483 -0.0133 -0.1671 -0.9373
20045TIP3    H281627   4.355   6.600  12.496 -2.1826  0.4096 -2.0190
20046TIP3   OH281628   4.371   1.142  14.697  0.0377 -0.2554 -0.2993
20046TIP3    H181629   4.425   1.212  14.734 -1.2619  0.0935  1.0274
20046TIP3    H281630   4.434   1.084  14.654  1.4850  0.0873  1.2362
20047TIP3   OH281631   1.047   5.632   2.871 -0.5920  0.1440 -0.2220
20047TIP3    H181632   0.952   5.636   2.883 -0.5662  1.0879 -0.2142
20047TIP3    H281633   1.081   5.705   2.924  0.2010 -0.6066  0.3313
20048TIP3   OH281634   4.586   4.856   6.209  0.0319 -0.3020 -0.3108
20048TIP3    H181635   4.535   4.792   6.259  0.1953 -0.4198 -0.2923
20048TIP3    H281636   4.604   4.926   6.271  0.3329 -0.5019 -0.1719
20049TIP3   OH281637   2.040   0.454   0.266 -0.2038 -0.4903 -0.1560
20049TIP3    H181638   2.136   0.463   0.267 -0.3571  2.3190 -0.3364
20049TIP3    H281639   2.015   0.469   0.357 -0.4904 -1.4452 -0.0681
20050TIP3   OH281640   5.632   4.327   5.397  0.2942  0.2294  0.2866
20050TIP3    H181641   5.678   4.278   5.466 -0.8491 -0.9563  0.2533
20050TIP3    H281642   5.556   4.365   5.441  0.2341  0.5146 -0.0584
20051TIP3   OH281643   1.186   1.296   3.403 -0.1321 -0.1828 -0.2070
20051TIP3    H181644   1.102   1.282   3.359  0.4124 -0.1899 -1.2710
20051TIP3    H281645   1.185   1.389   3.426 -1.2787 -0.5870  1.6519
20052TIP3   OH281646   4.845   1.175  14.541 -0.1033 -0.0548  0.3494
20052TIP3    H181647   4.831   1.083  14.563  1.9168 -0.7370 -0.9319
20052TIP3    H281648   4.775   1.197  14.480 -1.1950 -0.4022  1.4310
20053TIP3   OH281649   4.968   3.079   1.228  0.2682  1.0513 -0.8802
20053TIP3    H181650   4.930   3.148   1.174 -2.1559  1.6032  1.3065
20053TIP3    H281651   4.920   3.000   1.203 -2.1820  1.6356  1.4645
20054TIP3   OH281652   0.053   1.677  12.846  0.0503 -0.0793  0.5787
20054TIP3    H181653   0.105   1.617  12.899  0.4281  0.0142  0.3197
20054TIP3    H281654   0.095   1.674  12.760  0.4072  0.9692  0.7061
20055TIP3   OH281655   3.530   0.836   5.853 -0.3920  0.6466  0.3427
20055TIP3    H181656   3.450   0.840   5.905 -0.1261  1.4478  0.7039
20055TIP3    H281657   3.599   0.816   5.917 -0.2822  0.0141  0.0433
20056TIP3   OH281658   5.994   5.444  15.845 -0.3896  0.5754  0.5778
20056TIP3    H181659   6.004   5.486  15.759  1.1447  0.9977  0.9270
20056TIP3    H281660   6.084   5.433  15.876 -0.9288  0.6215  2.2235
20057TIP3   OH281661   6.067   1.068   4.550 -0.0448 -0.0159  0.4303
20057TIP3    H181662   6.100   0.991   4.595  2.1201  1.2029  1.0702
20057TIP3    H281663   5.998   1.102   4.607  0.3181 -0.3845  1.0899
20058TIP3   OH281664   0.147   5.972  12.615 -0.4806  0.6064  0.3658
20058TIP3    H181665   0.208   5.936  12.679 -0.6521  1.1929  0.8699
20058TIP3    H281666   0.110   6.049  12.658 -0.5366  1.0592 -0.4764
20059TIP3   OH281667   6.766   2.590  15.734 -0.5842  0.1974 -0.3571
20059TIP3    H181668   6.701   2.654  15.705 -0.8959  0.3435  0.6029
20059TIP3    H281669   6.840   2.642  15.764 -0.2668  0.0519 -0.8784
20060TIP3   OH281670   3.093   2.397   1.486  0.0379 -0.0624  0.1649
20060TIP3    H181671   3.114   2.373   1.576  0.0729 -0.3916  0.0718
20060TIP3    H281672   2.998   2.414   1.488 -0.5201 -2.6102 -0.2472
20061TIP3   OH281673   2.254   5.113   1.206 -0.3807 -0.0532  0.3456
20061TIP3    H181674   2.230   5.041   1.148  0.9719 -1.5380  1.5164
20061TIP3    H281675   2.200   5.101   1.284  0.1840 -0.0923  0.7367
20062TIP3   OH281676   3.691   3.609   2.865  0.5515  0.4831  0.2910
20062TIP3    H181677   3.781   3.644   2.869  1.6648 -2.2170  1.5722
20062TIP3    H281678   3.669   3.590   2.956 -1.9528  2.3716  0.1626
20063TIP3   OH281679   5.444   0.585  13.174  0.0282 -0.6150  0.0668
20063TIP3    H181680   5.476   0.670  13.204  1.9082 -0.5165 -1.8749
20063TIP3    H281681   5.392   0.605  13.096 -1.0246 -1.1409  0.6188
20064TIP3   OH281682   2.281   3.489  15.861 -0.2263 -0.1109 -0.0135
20064TIP3    H181683   2.207   3.448  15.906 -0.7696  0.3956 -0.4217
20064TIP3    H281684   2.266   3.470  15.768 -0.2122  0.5602 -0.1584
20065TIP3   OH281685   5.742   2.967  10.911  0.0655 -0.3922 -0.0970
20065TIP3    H181686   5.673   2.904  10.889 -1.0107  0.8864 -0.5277
20065TIP3    H281687   5.761   3.011  10.828  0.1189  0.4952  0.3802
20066TIP3   OH281688   5.594   6.457   2.314 -0.4033 -0.0585 -0.2695
20066TIP3    H181689   5.617   6.523   2.380 -0.4992 -0.2700 -0.0200
20066TIP3    H281690   5.516   6.491   2.272 -1.3612 -0.7171  0.9058
20067TIP3   OH281691   4.670   0.864   1.326 -0.0841  0.3472 -0.3650
20067TIP3    H181692   4.717   0.786   1.299  1.2381  1.1216 -0.4043
20067TIP3    H281693   4.593   0.831   1.374  1.9716 -1.0131  2.2772
20068TIP3   OH281694   1.944   1.557   2.327  0.2067  0.2058  0.1837
20068TIP3    H181695   1.857   1.597   2.323  0.1407  0.1745 -4.1753
20068TIP3    H281696   2.000   1.618   2.279  1.7816 -1.4284 -0.1555
20069TIP3   OH281697   5.633   0.174   5.651  1.2928  0.1306  0.2392
20069TIP3    H181698   5.637   0.264   5.619  1.1196  0.0083 -0.1222
20069TIP3    H281699   5.544   0.163   5.683  1.8576  0.7226  2.1462
20070TIP3   OH281700   3.101   4.579   4.081 -0.4304 -0.5272  0.2568
20070TIP3    H181701   3.048   4.659   4.075  0.2237 -0.1902 -1.6631
20070TIP3    H281702   3.178   4.606   4.132 -0.8459 -0.3139  0.7876
20071TIP3   OH281703   5.328   3.824  13.357  0.4080  0.4672 -0.3733
20071TIP3    H181704   5.350   3.887  13.288  1.1458 -0.8574 -1.4062
20071TIP3    H281705   5.301   3.745  13.309 -1.0165  0.1463  0.8856
20072TIP3   OH281706   2.198   4.006  11.966  0.7000  0.0447  0.1936
20072TIP3    H181707   2.273   4.066  11.965  0.3698  0.5624  2.0903
20072TIP3    H281708   2.132   4.053  12.017 -1.2403 -0.0676 -2.0413
20073TIP3   OH281709   5.088   0.490  12.367  0.2400 -0.5015 -0.1699
20073TIP3    H181710   5.043   0.410  12.342 -0.0943 -0.0270 -1.1913
20073TIP3    H281711   5.154   0.463  12.431 -0.3017 -1.4791 -0.0141
20074TIP3   OH281712   0.199   0.219   2.639 -0.3134 -0.3103  0.3015
20074TIP3    H181713   0.154   0.303   2.647 -0.9697 -0.6878  0.7015
20074TIP3    H281714   0.129   0.156   2.620  0.0981 -0.8439  0.5171
20075TIP3   OH281715   3.868   1.576  11.465  0.2821  0.2860  0.5773
20075TIP3    H181716   3.835   1.666  11.476  0.4681  0.3145  0.9026
20075TIP3    H281717   3.791   1.526  11.440  0.4891  0.8692 -1.4484
20076TIP3   OH281718   3.424   3.742   2.841  0.3574 -0.2639 -0.0658
20076TIP3    H181719   3.519   3.731   2.844  0.4900  0.5042 -1.0538
20076TIP3    H281720   3.410   3.834   2.862 -0.2409 -0.5841  0.9930
20077TIP3   OH281721   0.102   5.564  14.731 -0.1260  0.2797  0.1331
20077TIP3    H181722   0.117   5.473  14.705  0.5702 -0.4418  2.7982
20077TIP3    H281723   0.012   5.582  14.704  0.1390 -0.7307 -1.5776
20078TIP3   OH281724   6.509   0.994  13.620 -0.5008  0.1194 -0.1955
20078TIP3    H181725   6.441   0.928  13.603 -2.2192  1.8613 -0.3978
20078TIP3    H281726   6.591   0.951  13.593 -1.4992 -2.0068 -0.0642
20079TIP3   OH281727   2.929   5.093  12.264  0.0135  0.0953  0.1777
20079TIP3    H181728   2.872   5.074  12.339  0.3274 -2.2460 -0.0983
20079TIP3    H281729   3.018   5.078  12.296  0.2396  0.4007 -0.2916
20080TIP3   OH281730   1.169   0.368  12.840 -0.1501 -0.0260  1.1967
20080TIP3    H181731   1.175   0.360  12.745 -0.0097  1.5002  1.0596
20080TIP3    H281732   1.181   0.278  12.872  1.3632 -0.3445 -0.1484
20081TIP3   OH281733   3.595   2.951  15.759  0.1911  0.5379 -0.4363
20081TIP3    H181734   3.531   2.967  15.828  1.3137 -1.1079  1.0898
20081TIP3    H281735   3.551   2.891  15.699 -0.5847  1.4989 -0.8422
20082TIP3   OH281736   2.983   4.059  12.430 -0.2471 -0.5670  0.2024
20082TIP3    H181737   3.030   4.142  12.437  2.0533 -1.7918  0.2853
20082TIP3    H281738   3.051   3.994  12.415 -1.6943 -2.7817  2.3736
20083TIP3   OH281739   2.439   0.336  13.276 -0.4329 -0.3145 -0.6367
20083TIP3    H181740   2.531   0.312  13.266 -0.4725 -0.9804  0.4710
20083TIP3    H281741   2.429   0.352  13.370 -1.0960  1.2597 -0.9459
20084TIP3   OH281742   3.785   3.323  11.135  0.3565 -0.1030 -0.2366
20084TIP3    H181743   3.797   3.243  11.086  1.5603  0.7268 -1.3556
20084TIP3    H281744   3.723   3.375  11.083  0.2822  0.0708  0.0175
20085TIP3   OH281745   0.679   2.140  13.411 -0.4253  0.0594 -0.0692
20085TIP3    H181746   0.671   2.048  13.387 -1.3156 -0.3921  1.7599
20085TIP3    H281747   0.769   2.149  13.444 -0.9374 -0.6841  1.6295
20086TIP3   OH281748   1.334   0.194  12.075 -1.0511  0.9319  0.3193
20086TIP3    H181749   1.386   0.175  12.153  0.1730  1.4504 -0.3353
20086TIP3    H281750   1.315   0.108  12.037 -0.4712  0.7447  0.4464
20087TIP3   OH281751   5.410   6.386   4.950 -0.1573  0.5967 -0.5781
20087TIP3    H181752   5.493   6.427   4.972  0.1854 -0.0265 -0.6783
20087TIP3    H281753   5.348   6.458   4.944  0.1304  0.9647  0.6096
20088TIP3   OH281754   0.539   0.290   6.262  0.5469 -0.0953  0.0555
20088TIP3    H181755   0.554   0.353   6.332 -0.1725 -0.1331  0.2513
20088TIP3    H281756   0.627   0.262   6.235  0.9730  2.2146 -1.1762
20089TIP3   OH281757   5.603   3.622  12.687 -0.0452 -0.3760 -0.0061
20089TIP3    H181758   5.554   3.697  12.652  1.7882  0.8479 -0.0890
20089TIP3    H281759   5.572   3.614  12.777 -1.8972 -0.9919 -0.6622
20090TIP3   OH281760   3.125   1.321   5.620 -0.2677 -0.1274  0.3990
20090TIP3    H181761   3.169   1.255   5.566  0.5038  0.0794  0.7564
20090TIP3    H281762   3.044   1.340   5.573 -0.5140 -1.3459  0.3099
20091TIP3   OH281763   1.291   0.463  15.438  0.2112 -0.0771  0.1099
20091TIP3    H181764   1.299   0.538  15.498 -2.1802 -0.0211  0.4307
20091TIP3    H281765   1.207   0.423  15.460  0.9585 -2.2669 -0.7714
20092TIP3   OH281766   5.183   5.116  16.427 -0.4570  0.7440  0.7369
20092TIP3    H181767   5.114   5.149  16.371 -0.8188 -0.3640  0.5152
20092TIP3    H281768   5.144   5.115  16.515 -0.9863 -0.5559  0.5073
20093TIP3   OH281769   3.821   1.023  14.754  0.4308  0.0679 -0.1325
20093TIP3    H181770   3.802   1.112  14.783 -0.8582 -0.2779  0.1477
20093TIP3    H281771   3.857   0.980  14.831  0.5165  0.1898 -0.1052
20094TIP3   OH281772   4.079   2.384   2.552  0.3283  0.4916  0.4926
20094TIP3    H181773   4.078   2.289   2.543  0.0784  0.3768  1.6442
20094TIP3    H281774   4.159   2.411   2.506  0.4102 -0.2676  0.1655
20095TIP3   OH281775   1.533   5.439  11.211 -0.0647 -0.2093  0.3133
20095TIP3    H181776   1.468   5.378  11.246 -0.0427 -0.0672  0.6021
20095TIP3    H281777   1.501   5.526  11.236 -0.4754 -0.0498 -0.7157
20096TIP3   OH281778   4.328   0.064   2.417  0.0553  0.3160 -0.2918
20096TIP3    H181779   4.387  -0.003   2.384  0.3628  1.0123 -1.2025
20096TIP3    H281780   4.246   0.048   2.371  0.2381  0.7814 -0.7878
20097TIP3   OH281781   5.587   3.979  12.888  0.9044 -0.2533 -0.0888
20097TIP3    H181782   5.665   3.930  12.912  1.4946  0.7336  0.0678
20097TIP3    H281783   5.552   3.934  12.811  1.1700 -1.1682  0.3114
20098TIP3   OH281784   0.343   1.254   0.569 -0.2798  0.1183 -0.2651
20098TIP3    H181785   0.336   1.268   0.475  0.0547  0.0414 -0.3045
20098TIP3    H281786   0.268   1.300   0.607 -0.4873  0.0387 -0.5794
20099TIP3   OH281787   6.347   0.884  10.748 -0.2062  0.1134  0.2414
20099TIP3    H181788   6.396   0.965  10.731 -1.3107  0.8367  0.3997
20099TIP3    H281789   6.393   0.817  10.699  1.0445  0.7358  0.5184
20100TIP3   OH281790   3.323   2.720  11.693 -0.3365 -0.3484  0.3203
20100TIP3    H181791   3.353   2.707  11.783  1.4241 -2.0514 -0.4398
20100TIP3    H281792   3.402   2.748  11.646 -1.0117 -0.4317 -0.8864
20101TIP3   OH281793   2.179   0.989  13.716  0.0373  0.0264 -0.3092
20101TIP3    H181794   2.267   1.008  13.683  0.3809 -0.9232  0.0291
20101TIP3    H281795   2.166   1.051  13.787  1.0267 -0.7645  0.5997
20102TIP3   OH281796   5.173   4.901  15.645 -0.5976  0.0332  0.1284
20102TIP3    H181797   5.265   4.875  15.646 -0.8358 -1.0025 -1.3709
20102TIP3    H281798   5.132   4.844  15.710 -0.1639  0.6322  0.9428
20103TIP3   OH281799   2.575   3.450  16.383 -0.2501  0.4075  0.2404
20103TIP3    H181800   2.602   3.366  16.345  0.1077 -0.2912  1.9567
20103TIP3    H281801   2.560   3.507  16.307  1.5983 -0.5512 -0.9191
20104TIP3   OH281802   3.383   4.913   4.101 -0.1046  0.1505  0.0471
20104TIP3    H181803   3.421   4.948   4.181  1.2788  1.8330 -1.2641
20104TIP3    H281804   3.293   4.946   4.100 -0.5946 -1.0652  1.5555
20105TIP3   OH281805   2.469   5.092  15.928 -0.3118 -0.0789  1.1103
20105TIP3    H181806   2.436   5.035  15.858  1.1741  0.3300  0.0397
20105TIP3    H281807   2.391   5.134  15.962 -1.0731 -0.1024 -0.4835
20106TIP3   OH281808   6.828   4.548  16.681  0.0196  0.5362  0.2481
20106TIP3    H181809   6.905   4.547  16.625  1.3437 -2.6061  1.8934
20106TIP3    H281810   6.855   4.599  16.758 -0.3116  1.2017 -0.0657
20107TIP3   OH281811   2.419   6.307  12.296 -0.1553  0.1771  0.5230
20107TIP3    H181812   2.396   6.264  12.378  2.8737  1.2589  2.0830
20107TIP3    H281813   2.441   6.235  12.237 -2.5749 -0.6206  0.4977
20108TIP3   OH281814   2.312   0.277   6.035 -0.2996 -0.6498  0.4325
20108TIP3    H181815   2.353   0.195   6.063 -2.5196 -1.4367  1.6187
20108TIP3    H281816   2.249   0.297   6.104  0.0326  1.9823  0.0704
20109TIP3   OH281817   3.493   5.400   1.498 -0.0236 -0.3874 -0.0145
20109TIP3    H181818   3.508   5.424   1.407 -5.0370 -1.4339 -1.4169
20109TIP3    H281819   3.499   5.304   1.499  0.1727 -0.3728  0.8073
20110TIP3   OH281820   1.113   0.447  10.882 -0.0724 -0.2419  0.4285
20110TIP3    H181821   1.165   0.479  10.808  1.2374 -0.5534  1.1821
20110TIP3    H281822   1.072   0.526  10.918 -0.8953 -0.1137 -0.7277
20111TIP3   OH281823   4.168   6.046  11.560  0.4664 -0.1927  0.7238
20111TIP3    H181824   4.261   6.066  11.575  0.2876 -0.0219  1.6301
20111TIP3    H281825   4.147   5.981  11.626 -0.4669  0.9235  1.5474
20112TIP3   OH281826   1.690   4.232  12.502 -0.0704 -0.1169 -0.0170
20112TIP3    H181827   1.599   4.215  12.524  0.0775 -0.7550  0.1366
20112TIP3    H281828   1.690   4.320  12.466 -0.8904 -0.4222 -0.8183
20113TIP3   OH281829   3.518   1.550  12.192 -0.3502 -0.5516  0.2183
20113TIP3    H181830   3.588   1.499  12.153 -1.3877 -1.3363 -0.6828
20113TIP3    H281831   3.495   1.615  12.125  0.3286  0.5255  0.9926
20114TIP3   OH281832   3.850   6.679  13.890  0.1829  0.4361  0.1022
20114TIP3    H181833   3.762   6.653  13.919 -0.1487  0.3172 -0.9522
20114TIP3    H281834   3.908   6.612  13.925 -0.3208 -0.2075 -0.2527
20115TIP3   OH281835   6.509   0.961  14.419  0.0171  0.0152  0.0817
20115TIP3    H181836   6.512   1.032  14.483 -2.1029  0.6953 -0.4799
20115TIP3    H281837   6.544   0.999  14.339  0.1313  0.0145  0.1321
20116TIP3   OH281838   4.428   5.985  14.491  0.3606  0.3908 -0.1005
20116TIP3    H181839   4.463   5.936  14.416  0.2786  0.4816 -0.1991
20116TIP3    H281840   4.338   5.954  14.499  0.0339  1.1389 -0.7003
20117TIP3   OH281841   3.041   2.161  13.971 -0.6257 -0.2206 -0.1073
20117TIP3    H181842   2.973   2.209  14.019  1.2564  1.4738  1.0224
20117TIP3    H281843   3.008   2.157  13.881 -2.1250  0.7330  0.3636
20118TIP3   OH281844   3.871   0.387   1.693  0.0962 -0.5115  0.2522
20118TIP3    H181845   3.840   0.365   1.605  1.3161 -0.2797 -0.2636
20118TIP3    H281846   3.826   0.325   1.751 -0.4832 -0.8786 -0.5648
20119TIP3   OH281847   6.156   6.585   3.316 -0.4733 -0.7265 -0.4174
20119TIP3    H181848   6.148   6.570   3.222 -4.2294  1.8915 -0.7197
20119TIP3    H281849   6.247   6.612   3.328  0.4138 -2.2075 -3.0448
20120TIP3   OH281850   4.560   5.956   3.889 -0.7026  0.1252 -0.2205
20120TIP3    H181851   4.587   5.922   3.804  1.0181  1.0085 -0.0803
20120TIP3    H281852   4.583   5.887   3.951  1.3930  0.8589 -0.1048
20121TIP3   OH281853   0.906   4.593  12.394  0.1516 -0.1987  0.1095
20121TIP3    H181854   0.902   4.560  12.483 -0.8348 -2.1256 -0.5884
20121TIP3    H281855   0.985   4.647  12.391  1.4851 -1.9670  1.5398
20122TIP3   OH281856   3.094   2.468  14.154 -0.0312 -0.5303  0.5172
20122TIP3    H181857   3.001   2.482  14.135  0.3037 -0.0203 -0.9126
20122TIP3    H281858   3.095   2.423  14.238 -1.6572 -2.2162 -0.2981
20123TIP3   OH281859   5.681   4.514   2.276 -0.2141 -0.2320 -0.4475
20123TIP3    H181860   5.750   4.488   2.338  0.7449  1.9047 -0.5253
20123TIP3    H281861   5.600   4.487   2.318  0.4775  0.2929  1.3273
20124TIP3   OH281862   1.043   1.138  11.365  0.8246 -0.1048 -0.2734
20124TIP3    H181863   1.009   1.225  11.385 -0.2184 -0.4300 -0.5522
20124TIP3    H281864   1.122   1.154  11.312  2.0353  0.6991  1.6762
20125TIP3   OH281865   4.466   2.207  15.252 -0.8839  0.5219  0.3111
20125TIP3    H181866   4.440   2.229  15.163 -0.6240  1.3075  0.4141
20125TIP3    H281867   4.511   2.123  15.244 -1.8382  0.0345 -0.1229
20126TIP3   OH281868   3.755   0.372  15.981  0.2301 -0.4851  0.4836
20126TIP3    H181869   3.845   0.360  15.954  0.1457 -1.8269  0.7311
20126TIP3    H281870   3.753   0.460  16.021  1.1354  0.0305 -0.5682
20127TIP3   OH281871   6.697   5.107  11.310  0.1624  0.2263 -0.8871
20127TIP3    H181872   6.747   5.125  11.390 -0.1072  1.6072 -1.0077
20127TIP3    H281873   6.739   5.161  11.243  0.1356 -0.6201 -1.6030
20128TIP3   OH281874   5.977   5.799  16.208  0.4747 -0.0951 -0.6022
20128TIP3    H181875   5.932   5.884  16.213  1.6263  0.5210 -0.4385
20128TIP3    H281876   5.990   5.784  16.115  1.6858  0.6860 -0.5699
20129TIP3   OH281877   1.598   4.624  12.144  0.4853  0.3133 -0.5132
20129TIP3    H181878   1.537   4.681  12.191  0.9341  0.9570 -0.6990
20129TIP3    H281879   1.543   4.578  12.080 -0.1512 -0.6526  0.6817
20130TIP3   OH281880   1.104   4.587  17.158  0.2824 -0.1011 -0.3649
20130TIP3    H181881   1.086   4.557  17.069 -1.4216  1.0535 -0.4450
20130TIP3    H281882   1.053   4.527  17.213  0.5359 -0.1882 -0.2248
20131TIP3   OH281883   6.607   5.470  15.819  0.1945  0.4269 -0.0452
20131TIP3    H181884   6.564   5.442  15.738 -0.4508  1.2367  0.0021
20131TIP3    H281885   6.539   5.517  15.867  0.7273  0.4290  0.7241
20132TIP3   OH281886   5.959   1.724   3.801  0.2927 -0.0166  0.0430
20132TIP3    H181887   6.052   1.735   3.820 -0.0443 -1.0118  2.6309
20132TIP3    H281888   5.915   1.779   3.866 -0.9785  1.4895 -1.9629
20133TIP3   OH281889   5.565   6.801   0.937 -0.3429  0.4466  0.0795
20133TIP3    H181890   5.564   6.712   0.973 -0.3480  0.0346 -0.9137
20133TIP3    H281891   5.528   6.792   0.849  0.7046  1.2435 -0.4641
20134TIP3   OH281892   0.906   5.166   2.275  0.6519  0.5985 -0.5608
20134TIP3    H181893   0.818   5.154   2.311 -0.0708  0.5465 -2.2869
20134TIP3    H281894   0.961   5.182   2.352 -0.9257  1.0508  0.5173
20135TIP3   OH281895   2.514   2.600  13.334 -0.5804 -0.2819 -0.4276
20135TIP3    H181896   2.550   2.534  13.393 -2.2433 -0.5509  0.3313
20135TIP3    H281897   2.508   2.679  13.387 -1.5557 -0.3776 -0.3720
20136TIP3   OH281898   6.459   4.296   4.887 -0.0186 -0.2041 -0.1046
20136TIP3    H181899   6.480   4.290   4.980 -1.6837 -2.7842  0.2084
20136TIP3    H281900   6.517   4.231   4.846  1.0851  1.2915 -1.0020
20137TIP3   OH281901   5.831   5.218   0.181 -0.4468  0.1258 -0.0314
20137TIP3    H181902   5.796   5.287   0.239 -0.9904  1.2205 -1.6000
20137TIP3    H281903   5.910   5.188   0.226 -2.0674 -0.7650  2.4680
20138TIP3   OH281904   1.241   6.689  16.197 -0.2074  0.0824 -0.0037
20138TIP3    H181905   1.317   6.743  16.220  1.9231 -2.4874 -0.3930
20138TIP3    H281906   1.208   6.657  16.281  0.1923 -0.0659  0.1011
20139TIP3   OH281907   3.222   4.654   5.105  0.2179  0.1206  0.1618
20139TIP3    H181908   3.316   4.642   5.095  0.0097 -1.7539  0.0557
20139TIP3    H281909   3.204   4.629   5.196 -0.1626  0.5922  0.2194
20140TIP3   OH281910   3.623   5.186  13.509 -0.4540  0.0689 -0.1639
20140TIP3    H181911   3.615   5.103  13.556  1.2099  0.3884  0.7536
20140TIP3    H281912   3.568   5.246  13.560 -1.0398 -0.2670 -0.3830
20141TIP3   OH281913   3.086   2.757  16.027 -0.4809  0.1939  0.4644
20141TIP3    H181914   3.110   2.670  15.995 -3.6200 -0.9018  0.7478
20141TIP3    H281915   3.103   2.753  16.121  1.7245  0.8341  0.1468
20142TIP3   OH281916   2.066   3.834   5.949 -0.2206 -0.0767  0.0906
20142TIP3    H181917   2.132   3.902   5.968 -0.2527  0.1644 -0.6270
20142TIP3    H281918   2.097   3.793   5.868  0.0889 -1.3017  0.8025
20143TIP3   OH281919   0.645   5.164  16.809 -0.4554  0.0092  0.1837
20143TIP3    H181920   0.621   5.072  16.802 -0.8792  0.2162 -1.9158
20143TIP3    H281921   0.721   5.173  16.751  0.7593  0.6363  1.8186
20144TIP3   OH281922   3.152   6.036   4.577  0.4204 -0.4616  0.0889
20144TIP3    H181923   3.175   6.016   4.486  1.7698 -2.0206  0.7223
20144TIP3    H281924   3.234   6.063   4.618 -0.4369  1.6266  0.5486
20145TIP3   OH281925   6.721   2.903   5.023 -0.2179 -0.1759  0.1353
20145TIP3    H181926   6.682   2.919   4.937 -0.5661  0.7857  0.4573
20145TIP3    H281927   6.647   2.881   5.079 -0.4059  2.0256  0.8390
20146TIP3   OH281928   3.208   0.892  13.152 -0.4131  0.3977 -0.0254
20146TIP3    H181929   3.173   0.967  13.104 -1.2827  0.4124  0.6064
20146TIP3    H281930   3.173   0.902  13.241  0.5368 -0.0440  0.4152
20147TIP3   OH281931   3.751   6.768   5.310  0.8373  0.0170  0.0524
20147TIP3    H181932   3.808   6.701   5.272  2.2892  0.7992  0.7720
20147TIP3    H281933   3.810   6.825   5.358 -0.1509  2.6902 -1.7170
20148TIP3   OH281934   3.741   4.482   1.111 -0.0869 -0.4643  0.0759
20148TIP3    H181935   3.669   4.456   1.054 -0.3187  1.3608 -0.5240
20148TIP3    H281936   3.820   4.467   1.059 -0.2046 -0.0750 -0.2141
20149TIP3   OH281937   1.398   3.003   5.122 -0.8513 -0.4192  0.0486
20149TIP3    H181938   1.435   2.930   5.072  1.4378  1.2157 -0.7991
20149TIP3    H281939   1.304   2.986   5.122 -0.5277 -2.6926 -1.1845
20150TIP3   OH281940   0.930   2.876  15.654 -1.1125 -0.1601  0.4544
20150TIP3    H181941   0.930   2.958  15.603  2.4264  1.1046  2.1644
20150TIP3    H281942   0.933   2.905  15.745  0.7997 -2.1614  1.0960
20151TIP3   OH281943   6.492   1.246  17.133 -0.4716  0.4407  0.0333
20151TIP3    H181944   6.585   1.250  17.110 -0.0925 -0.0083  1.4309
20151TIP3    H281945   6.487   1.282  17.221 -1.5400 -0.0586  0.1955
20152TIP3   OH281946   6.160   0.851   5.462 -0.2404  0.1335  0.3108
20152TIP3    H181947   6.230   0.791   5.487  1.3901  1.4126 -0.9820
20152TIP3    H281948   6.126   0.884   5.545 -0.0768 -1.3250  0.9901
20153TIP3   OH281949   5.008   2.877  11.943  0.5623  0.2489  0.3993
20153TIP3    H181950   4.913   2.865  11.944  0.5198  0.5800  0.3877
20153TIP3    H281951   5.041   2.815  12.008  0.5107 -1.2604 -0.9383
20154TIP3   OH281952   4.121   4.927   4.444 -0.0058 -0.5239  0.0314
20154TIP3    H181953   4.037   4.965   4.470 -0.1569 -0.1420 -0.9694
20154TIP3    H281954   4.114   4.917   4.349 -0.0227 -3.2050  0.2570
20155TIP3   OH281955   4.241   5.478   4.712 -0.0756 -0.2949  0.1065
20155TIP3    H181956   4.299   5.510   4.642  1.6247 -1.1486  1.0597
20155TIP3    H281957   4.153   5.488   4.676  0.5904  1.6490 -1.1637
20156TIP3   OH281958   0.698   5.382  16.993  0.2926 -0.3514  0.4074
20156TIP3    H181959   0.619   5.434  16.983 -0.0230 -0.4564  2.0264
20156TIP3    H281960   0.682   5.303  16.941 -0.4997 -0.1934  0.4066
20157TIP3   OH281961   2.064   2.533   1.930  0.0746 -0.3743  0.2921
20157TIP3    H181962   2.152   2.518   1.962 -0.3737  1.2167  2.5225
20157TIP3    H281963   2.074   2.600   1.863  0.7004 -1.4935 -0.7780
20158TIP3   OH281964   0.180   3.639   0.834  0.4557 -0.0917  0.5480
20158TIP3    H181965   0.195   3.598   0.749 -0.8872  1.7675 -0.6465
20158TIP3    H281966   0.186   3.566   0.896  1.6179 -1.4820 -1.0697
20159TIP3   OH281967   3.885   0.688   5.615 -1.0132 -0.2371  0.2579
20159TIP3    H181968   3.875   0.770   5.664 -0.8928  0.1080 -0.2907
20159TIP3    H281969   3.828   0.699   5.539 -0.1341 -0.2006 -0.4053
20160TIP3   OH281970   4.406   5.412   3.174  0.1536  0.3387 -0.3528
20160TIP3    H181971   4.488   5.397   3.128  0.3310 -0.8080  0.2915
20160TIP3    H281972   4.364   5.326   3.176 -0.5444  0.6851  0.2896
20161TIP3   OH281973   0.428   4.249   1.151 -0.0286 -0.0660 -0.2257
20161TIP3    H181974   0.514   4.239   1.191  0.0839  0.3519 -0.3596
20161TIP3    H281975   0.372   4.285   1.220 -0.2864 -1.0180  0.0805
20162TIP3   OH281976   4.753   3.408   5.814 -0.7199  0.2872  0.0665
20162TIP3    H181977   4.762   3.410   5.718  1.5277  1.5475  0.2381
20162TIP3    H281978   4.673   3.457   5.831 -1.7122 -0.8127 -1.1924
20163TIP3   OH281979   2.768   2.019  16.858 -0.4242  0.0429  0.3518
20163TIP3    H181980   2.797   2.106  16.887 -0.6887  0.4910 -0.6756
20163TIP3    H281981   2.715   1.986  16.930 -0.9291  1.0545  0.4616
20164TIP3   OH281982   5.785   3.779  16.483  0.2931 -0.0831 -0.2441
20164TIP3    H181983   5.752   3.867  16.498 -0.6067 -0.2020 -1.3355
20164TIP3    H281984   5.865   3.774  16.535  0.3974  1.3954 -0.2118
20165TIP3   OH281985   2.455   3.499   3.768  0.1244 -0.1910  0.0627
20165TIP3    H181986   2.380   3.486   3.826 -0.7699  0.3288 -0.9528
20165TIP3    H281987   2.526   3.528   3.827  0.2051 -2.7508  1.3584
20166TIP3   OH281988   5.441   4.687   3.091  0.0253  0.2970 -0.0474
20166TIP3    H181989   5.511   4.631   3.057 -0.3087 -1.1669  1.5090
20166TIP3    H281990   5.480   4.729   3.168 -0.1987  1.0270 -0.3331
20167TIP3   OH281991   4.208   3.384  12.073 -0.3760 -0.3585  0.8052
20167TIP3    H181992   4.291   3.393  12.028  0.0382 -1.9446  1.2056
20167TIP3    H281993   4.148   3.442  12.025  0.3243 -1.1071 -1.0487
20168TIP3   OH281994   3.673   4.479   3.732  0.6018  0.4303  0.0231
20168TIP3    H181995   3.615   4.414   3.772  1.2703 -1.2748 -1.6375
20168TIP3    H281996   3.739   4.497   3.799  0.8198 -1.1575  0.2662
20169TIP3   OH281997   1.781   6.393  15.524 -0.0378  0.1986 -0.2148
20169TIP3    H181998   1.850   6.430  15.468 -1.0558 -2.5542 -3.6781
20169TIP3    H281999   1.825   6.322  15.571  0.1148  0.2679 -0.2504
20170TIP3   OH282000   2.942   2.374   3.752  0.2973  0.5952 -0.3811
20170TIP3    H182001   3.035   2.353   3.750  0.8861  2.9544 -1.0632
20170TIP3    H282002   2.914   2.349   3.840  1.6824  0.2819 -0.0076
20171TIP3   OH282003   6.470   0.141  14.988 -0.1971  0.4603  0.3506
20171TIP3    H182004   6.429   0.142  15.074  1.2505  1.9541  1.0769
20171TIP3    H282005   6.537   0.209  14.992  2.3666 -1.7619 -0.7157
20172TIP3   OH282006   6.581   0.392   2.616  0.1524 -0.1624 -0.4609
20172TIP3    H182007   6.576   0.440   2.534  0.8335  0.3351 -0.2176
20172TIP3    H282008   6.496   0.408   2.658  0.4912  1.1764 -0.2131
20173TIP3   OH282009   1.429   4.795  15.816 -0.0841  0.1388 -0.3655
20173TIP3    H182010   1.419   4.839  15.900  0.2077 -0.6609  0.0968
20173TIP3    H282011   1.390   4.708  15.830  0.6635 -0.2756 -0.8207
20174TIP3   OH282012   6.723   0.607   1.944  0.0228  0.1566  0.0354
20174TIP3    H182013   6.670   0.674   1.987 -0.0169 -0.1971  0.5426
20174TIP3    H282014   6.664   0.533   1.931  0.3086 -0.1220  0.3116
20175TIP3   OH282015   1.122   0.078   4.035  0.2067 -0.1162  0.4924
20175TIP3    H182016   1.119   0.023   4.113  0.5439 -0.2161  0.4364
20175TIP3    H282017   1.031   0.081   4.004 -0.0293  0.3680  1.1945
20176TIP3   OH282018   6.092   6.372  13.827 -0.2198 -0.8909  0.1414
20176TIP3    H182019   6.159   6.304  13.837 -0.0156 -0.6783  0.2544
20176TIP3    H282020   6.131   6.435  13.766  0.2436 -0.0958  1.2205
20177TIP3   OH282021   1.743   4.463   2.837  0.0998  0.0562  0.1002
20177TIP3    H182022   1.747   4.450   2.742  1.8394  1.0965 -0.0087
20177TIP3    H282023   1.827   4.430   2.869 -0.4768 -0.3023  1.3040
20178TIP3   OH282024   2.514   1.838   5.783  0.2395 -0.1790  0.4605
20178TIP3    H182025   2.586   1.804   5.731 -0.3346 -0.5336 -0.1153
20178TIP3    H282026   2.441   1.779   5.765 -0.0635 -0.1252  1.4224
20179TIP3   OH282027   2.611   4.133  13.345  0.2209 -0.2574 -0.0792
20179TIP3    H182028   2.583   4.159  13.432 -0.2097  1.0540 -0.5915
20179TIP3    H282029   2.595   4.209  13.290 -0.4884 -1.3886 -1.5232
20180TIP3   OH282030   6.543   4.780  13.550 -0.1707  0.0305  0.2501
20180TIP3    H182031   6.523   4.687  13.553 -2.7394  0.4895  0.2383
20180TIP3    H282032   6.625   4.786  13.501 -0.2382 -2.1793 -0.2333
20181TIP3   OH282033   5.414   1.549   2.776 -0.0120 -0.6969 -0.1315
20181TIP3    H182034   5.491   1.565   2.830 -0.2773 -0.3018  0.1366
20181TIP3    H282035   5.449   1.538   2.688  0.2635  0.6532 -0.2136
20182TIP3   OH282036   1.428   5.504   1.132  1.1871 -0.1292  0.3881
20182TIP3    H182037   1.344   5.466   1.107  1.2045  0.1348 -0.0688
20182TIP3    H282038   1.493   5.454   1.083  1.4179 -1.2370  1.7491
20183TIP3   OH282039   5.594   1.491  16.224 -0.8462  0.0056  0.2588
20183TIP3    H182040   5.632   1.513  16.310  0.8461 -0.0252 -0.4419
20183TIP3    H282041   5.563   1.401  16.234  2.6207 -1.3862 -0.1204
20184TIP3   OH282042   0.123   1.342   1.193 -0.4267  0.3472 -0.2855
20184TIP3    H182043   0.142   1.380   1.279 -1.7012 -0.1378  0.2420
20184TIP3    H282044   0.070   1.407   1.149 -3.8890 -1.2279  1.1834
20185TIP3   OH282045   1.896   2.250   4.244  0.0083  0.9581  0.1976
20185TIP3    H182046   1.904   2.340   4.210  2.0004  0.4994 -0.6501
20185TIP3    H282047   1.972   2.239   4.301  0.1407 -0.4004 -0.2192
20186TIP3   OH282048   4.063   6.506  12.445 -0.1118 -0.2859  0.3165
20186TIP3    H182049   4.016   6.425  12.425 -1.0605 -0.1062  1.6489
20186TIP3    H282050   4.003   6.555  12.503  1.6752 -0.0280  2.0735
20187TIP3   OH282051   1.007   0.196   2.499  0.5044 -0.3876 -0.3456
20187TIP3    H182052   0.946   0.122   2.494  0.1245 -0.2305  1.5650
20187TIP3    H282053   0.982   0.251   2.425  0.0621 -1.6046 -1.1513
20188TIP3   OH282054   1.715   4.912  14.001  0.1711 -0.1452 -0.2641
20188TIP3    H182055   1.653   4.873  13.939 -0.5708 -0.1065  0.4452
20188TIP3    H282056   1.750   4.839  14.050 -0.9155  0.0159  0.7872
20189TIP3   OH282057   5.827   2.492   1.473 -0.0253  0.4205  0.1622
20189TIP3    H182058   5.766   2.548   1.425 -1.4697 -2.2687 -1.4183
20189TIP3    H282059   5.913   2.534   1.462 -0.4689  0.6767 -3.8478
20190TIP3   OH282060   6.634   6.036  16.226  0.2155 -0.0152  0.5975
20190TIP3    H182061   6.592   6.002  16.147 -0.7631  1.7058  0.3354
20190TIP3    H282062   6.569   6.022  16.296 -0.3529  1.4852  0.4254
20191TIP3   OH282063   0.668   1.443  10.661  0.9744 -0.0651  0.6540
20191TIP3    H182064   0.720   1.379  10.611  0.4594 -0.2279  0.3173
20191TIP3    H282065   0.665   1.520  10.606  0.2736 -0.2981  0.3552
20192TIP3   OH282066   1.536   2.074  12.116  0.3668 -0.2731  0.0790
20192TIP3    H182067   1.579   2.157  12.134  1.0263 -0.3626 -0.9883
20192TIP3    H282068   1.603   2.021  12.072 -1.2033  0.1505 -3.0922
20193TIP3   OH282069   0.911   1.034   3.996 -0.2272 -0.3690  0.0292
20193TIP3    H182070   0.826   1.055   4.035 -0.1677  0.4341 -0.2437
20193TIP3    H282071   0.892   1.020   3.904  0.0529  0.7125 -0.2074
20194TIP3   OH282072   5.618   6.686   5.611  0.1353  0.1023 -0.1243
20194TIP3    H182073   5.576   6.651   5.690  2.2066 -0.5388  0.7529
20194TIP3    H282074   5.549   6.738   5.569 -1.0612  0.3952  2.0395
20195TIP3   OH282075   1.572   6.681  11.640 -0.0093  0.1378  0.1726
20195TIP3    H182076   1.547   6.719  11.556  0.6011  0.5232  0.1560
20195TIP3    H282077   1.608   6.754  11.689  1.4627 -0.4588  0.0347
20196TIP3   OH282078   2.588   5.896  12.646 -0.1482  0.1808 -0.7867
20196TIP3    H182079   2.655   5.886  12.579  0.4749  0.5917 -0.2331
20196TIP3    H282080   2.618   5.840  12.718 -0.8464 -0.3112 -0.8608
20197TIP3   OH282081   1.123   5.978  13.658  0.0623 -0.1344 -0.1597
20197TIP3    H182082   1.074   6.055  13.685  2.2902  1.2704  0.0789
20197TIP3    H282083   1.184   5.961  13.730  0.7688 -1.0911 -0.9430
20198TIP3   OH282084   2.299   1.096   6.598  0.4382 -0.1076 -0.4264
20198TIP3    H182085   2.340   1.096   6.512  0.6625 -0.6777 -0.3281
20198TIP3    H282086   2.240   1.020   6.596  0.2043  0.0672 -0.1912
20199TIP3   OH282087   0.390   6.365   3.621  0.1945  0.1510  0.3705
20199TIP3    H182088   0.371   6.364   3.715 -1.1747  1.0373  0.1357
20199TIP3    H282089   0.439   6.446   3.608  0.4960 -0.0366  0.3399
20200TIP3   OH282090   3.550   5.592   4.660 -1.0009  0.4178  0.2256
20200TIP3    H182091   3.533   5.665   4.719 -0.2765 -0.3626  1.4382
20200TIP3    H282092   3.533   5.514   4.712  0.7451 -0.3251 -0.2237
20201TIP3   OH282093   5.683   5.417   5.226 -1.3598 -0.6056  0.3372
20201TIP3    H182094   5.720   5.330   5.215 -0.4396 -0.1097 -0.6162
20201TIP3    H282095   5.754   5.469   5.265 -0.4503  0.7041 -2.7588
20202TIP3   OH282096   3.284   3.244  12.025  0.3955  0.4382  0.0668
20202TIP3    H182097   3.367   3.220  12.065 -0.1084 -2.2873 -0.3571
20202TIP3    H282098   3.308   3.295  11.948  1.5977  0.5191  0.4723
20203TIP3   OH282099   6.464   3.172   0.956 -0.5657 -0.1290  0.0592
20203TIP3    H182100   6.411   3.187   0.877 -1.2294 -0.5321  0.4201
20203TIP3    H282101   6.535   3.235   0.949 -1.2583  0.6383 -0.2972
20204TIP3   OH282102   5.351   3.086   3.715 -0.2206 -0.2160 -0.6847
20204TIP3    H182103   5.284   3.066   3.650 -1.4067 -0.1287  0.4650
20204TIP3    H282104   5.323   3.169   3.754  0.0267 -0.6629  0.4844
20205TIP3   OH282105   0.655   2.998  11.600  1.0896 -0.5687  0.3511
20205TIP3    H182106   0.714   2.925  11.619  1.2832 -0.7194 -0.7689
20205TIP3    H282107   0.571   2.956  11.582  1.1180 -0.4955  0.0449
20206TIP3   OH282108   4.990   4.532  10.731  0.4439 -0.4435 -0.1360
20206TIP3    H182109   4.908   4.527  10.681 -0.9735  0.3348  1.9440
20206TIP3    H282110   5.042   4.459  10.699 -1.2831 -1.2992 -1.1710
20207TIP3   OH282111   5.929   6.200   2.761  0.4191  0.1746  0.3628
20207TIP3    H182112   6.007   6.243   2.726 -0.7592  3.8777  1.8094
20207TIP3    H282113   5.955   6.171   2.849  0.3546  0.8206  0.5970
20208TIP3   OH282114   2.295   6.381   5.945 -0.2248  0.2147 -0.5928
20208TIP3    H182115   2.212   6.375   5.993  1.0409 -1.8570  1.5643
20208TIP3    H282116   2.356   6.418   6.008  0.6987  0.9101 -1.8669
20209TIP3   OH282117   1.439   1.697  15.962  0.7516 -0.0788  0.1182
20209TIP3    H182118   1.452   1.779  15.915  0.1867 -0.1182 -0.1025
20209TIP3    H282119   1.387   1.643  15.903  0.3108 -0.2421  0.6507
20210TIP3   OH282120   4.580   4.043   6.413 -0.4804  0.1300  0.3749
20210TIP3    H182121   4.631   3.962   6.403  1.3244  0.9419  2.2798
20210TIP3    H282122   4.491   4.013   6.430  0.0892 -1.4597  0.7371
20211TIP3   OH282123   1.121   0.881   4.059 -0.4364  0.8198 -0.6207
20211TIP3    H182124   1.170   0.863   3.978 -1.3506  0.4237 -1.0969
20211TIP3    H282125   1.053   0.943   4.032 -1.1790  0.1475 -0.3017
20212TIP3   OH282126   1.953   6.734  12.521 -0.3907 -0.1207 -0.0781
20212TIP3    H182127   1.994   6.813  12.487 -1.6427  1.1455  1.2027
20212TIP3    H282128   1.985   6.728  12.611  0.0950 -1.3907 -0.3118
20213TIP3   OH282129   6.207   0.113  14.154  0.1561  0.1370  0.1339
20213TIP3    H182130   6.284   0.102  14.210 -0.7060 -2.4179  0.9483
20213TIP3    H282131   6.224   0.195  14.108  2.5510  0.5582  1.5276
20214TIP3   OH282132   3.084   1.964  13.100  0.1495 -0.5509  0.1267
20214TIP3    H182133   3.088   1.875  13.067 -0.7676 -0.7025  0.3955
20214TIP3    H282134   3.009   1.964  13.160 -0.8533  0.7605 -1.0400
20215TIP3   OH282135   5.373   2.778   6.061  0.2068 -0.1042  0.2582
20215TIP3    H182136   5.345   2.709   6.121 -0.3150 -0.0273  0.1060
20215TIP3    H282137   5.385   2.734   5.977 -1.5348  0.2190 -0.2058
20216TIP3   OH282138   2.962   6.443   0.334  0.2235  0.3672 -0.4457
20216TIP3    H182139   2.872   6.459   0.362  0.2981 -1.3928  0.9799
20216TIP3    H282140   2.962   6.352   0.304  1.0295  1.0436 -2.7040
20217TIP3   OH282141   2.679   1.851   5.021 -0.0499 -0.2460  0.1038
20217TIP3    H182142   2.604   1.797   5.046  0.7107 -1.5564 -0.3458
20217TIP3    H282143   2.710   1.887   5.104 -0.7604 -0.2505  0.3799
20218TIP3   OH282144   1.962   2.281  11.050  0.2427 -0.3297 -0.3903
20218TIP3    H182145   2.023   2.208  11.046  1.0301  0.3304 -0.7306
20218TIP3    H282146   1.976   2.329  10.969  0.0497  0.4414  0.0188
20219TIP3   OH282147   0.361   3.623  11.620 -0.2566 -0.2538 -0.1073
20219TIP3    H182148   0.266   3.631  11.624 -0.3044 -1.1575  1.8276
20219TIP3    H282149   0.393   3.706  11.656 -0.3078 -0.0568 -0.5112
20220TIP3   OH282150   2.400   1.603   0.946  0.4345 -0.2554 -0.3498
20220TIP3    H182151   2.340   1.544   0.990 -0.6995 -1.2481 -3.0217
20220TIP3    H282152   2.474   1.548   0.920  1.0815  0.3090  0.2482
20221TIP3   OH282153   2.538   4.237   4.377  0.3539  0.1828 -0.3373
20221TIP3    H182154   2.458   4.268   4.334  0.6327  1.3751 -0.0540
20221TIP3    H282155   2.524   4.144   4.391 -1.1452  0.4471  0.0549
20222TIP3   OH282156   4.254   6.729  14.822  0.0292  0.5345  0.3100
20222TIP3    H182157   4.326   6.723  14.759 -0.3420 -0.4230 -0.0496
20222TIP3    H282158   4.288   6.783  14.893 -0.0174  2.8718 -1.3490
20223TIP3   OH282159   4.685   3.548   0.837  0.0764 -0.0550  0.0409
20223TIP3    H182160   4.732   3.485   0.891 -0.5400 -0.7006 -0.1762
20223TIP3    H282161   4.607   3.570   0.888 -0.5165 -0.6810 -0.5941
20224TIP3   OH282162   5.342   5.173  14.137  0.0447 -0.1733  0.5815
20224TIP3    H182163   5.410   5.107  14.123  0.1738  0.1857 -0.6064
20224TIP3    H282164   5.359   5.207  14.224  0.3931 -1.2256  0.9393
20225TIP3   OH282165   6.421   5.939  13.941 -0.2218  0.2072  0.1902
20225TIP3    H182166   6.339   5.932  13.990  0.0572  0.6149  0.7178
20225TIP3    H282167   6.451   6.029  13.956 -0.1224  0.3340 -0.7126
20226TIP3   OH282168   2.144   6.162  15.585 -0.1635  0.1114 -0.2896
20226TIP3    H182169   2.144   6.256  15.567  1.9914  0.0469 -0.8799
20226TIP3    H282170   2.222   6.148  15.639 -0.4440 -1.3330 -0.2222
20227TIP3   OH282171   2.256   5.468   4.969 -0.3346  0.1958 -0.5633
20227TIP3    H182172   2.309   5.537   4.929  2.1749 -0.8786  0.6748
20227TIP3    H282173   2.167   5.502   4.968  0.4307  2.3483 -2.2922
20228TIP3   OH282174   6.416   5.259  14.495  0.0856  0.0835 -0.2074
20228TIP3    H182175   6.382   5.218  14.574  1.0494  2.0365  1.3239
20228TIP3    H282176   6.404   5.194  14.427 -2.1958 -1.1141  1.2138
20229TIP3   OH282177   6.447   3.151   5.404 -0.3470  0.9075 -0.6623
20229TIP3    H182178   6.524   3.189   5.361  0.5443  0.1086  0.1931
20229TIP3    H282179   6.430   3.209   5.478 -1.1277  1.5709 -1.3232
20230TIP3   OH282180   6.299   5.876   3.279  0.2897  0.4228  0.7505
20230TIP3    H182181   6.319   5.783   3.279  1.5680  0.6471 -0.9333
20230TIP3    H282182   6.344   5.910   3.357  1.7199 -0.0353  0.1616
20231TIP3   OH282183   3.599   0.466   5.738  0.5325 -0.1961  0.0292
20231TIP3    H182184   3.603   0.547   5.687  0.8072  0.4932  1.1001
20231TIP3    H282185   3.689   0.432   5.736  0.5970 -0.0465  0.2126
20232TIP3   OH282186   5.486   2.301  16.919  0.2097  0.2342  0.4109
20232TIP3    H182187   5.572   2.264  16.900  0.7575  1.5831  0.1510
20232TIP3    H282188   5.504   2.393  16.942 -1.0811  0.3313  1.1350
20233TIP3   OH282189   0.198   2.274  14.399  0.1945 -0.4010  0.5739
20233TIP3    H182190   0.286   2.239  14.415  0.4202 -0.4107 -0.6438
20233TIP3    H282191   0.213   2.364  14.371 -0.0037 -1.0088 -1.6868
20234TIP3   OH282192   2.862   2.690  14.705 -0.4593  0.0396  0.0883
20234TIP3    H182193   2.826   2.666  14.619 -1.6964 -1.6795  1.0199
20234TIP3    H282194   2.878   2.606  14.748  0.7724  0.8572  1.3108
20235TIP3   OH282195   2.776   4.933   2.982 -0.4642  0.1802 -0.2512
20235TIP3    H182196   2.763   4.920   3.075  1.0974  0.0745 -0.0157
20235TIP3    H282197   2.801   5.026   2.974  0.6227 -0.1021 -0.3815
20236TIP3   OH282198   3.905   1.252   0.962  0.0575  0.0665  0.1892
20236TIP3    H182199   3.915   1.345   0.940  1.3190 -0.3942 -1.3752
20236TIP3    H282200   3.995   1.219   0.967 -0.3805 -1.1255  0.5349
20237TIP3   OH282201   2.550   1.669   1.734  0.2468  0.0081  0.1387
20237TIP3    H182202   2.501   1.684   1.653 -0.2620  0.4021  0.5104
20237TIP3    H282203   2.626   1.726   1.726  1.7239 -2.0245 -1.3104
20238TIP3   OH282204   1.807   1.539  15.861 -0.0311  0.0915  0.4411
20238TIP3    H182205   1.896   1.559  15.890  0.6518  0.4045 -1.6812
20238TIP3    H282206   1.761   1.512  15.940  0.9402  3.2592  2.2606
20239TIP3   OH282207   6.334   3.440   1.926 -0.0078  0.2047 -0.7036
20239TIP3    H182208   6.389   3.503   1.973  0.2398 -0.0665 -0.6315
20239TIP3    H282209   6.286   3.394   1.995 -0.2553  0.3745 -0.7616
20240TIP3   OH282210   3.402   2.636   0.993  0.3170  0.0626  0.1804
20240TIP3    H182211   3.440   2.680   1.069 -1.4617  1.4158  0.3683
20240TIP3    H282212   3.325   2.689   0.971 -0.8008 -1.8817 -0.8550
20241TIP3   OH282213   5.154   4.474  16.860 -0.0429 -0.4123 -0.4348
20241TIP3    H182214   5.120   4.457  16.772 -0.2783  0.6174 -0.5631
20241TIP3    H282215   5.184   4.389  16.892 -0.1441 -0.8299 -1.4308
20242TIP3   OH282216   0.192   1.604  14.050 -0.0974 -0.3714 -0.4763
20242TIP3    H182217   0.221   1.685  14.008 -2.4611  0.5596 -0.4524
20242TIP3    H282218   0.160   1.550  13.978 -0.5277 -0.3798 -0.2816
20243TIP3   OH282219   6.477   6.017  14.921 -0.0646 -0.0168  0.3641
20243TIP3    H182220   6.472   6.086  14.855 -1.1495  0.9094  1.3660
20243TIP3    H282221   6.553   5.965  14.896 -1.6261 -1.0292 -2.8713
20244TIP3   OH282222   0.328   5.048  11.629  0.5985 -0.0843 -0.4696
20244TIP3    H182223   0.407   4.994  11.641  0.9728  0.2638 -1.3015
20244TIP3    H282224   0.294   5.022  11.544  0.7863  0.9790 -0.8858
20245TIP3   OH282225   0.469   3.381   0.535 -0.4814  0.6550 -0.1969
20245TIP3    H182226   0.553   3.354   0.572 -1.1436 -0.0865  0.8168
20245TIP3    H282227   0.492   3.448   0.471  1.1991 -1.6556 -2.2403
20246TIP3   OH282228   2.595   4.609   1.400  0.0299  0.0293 -0.0807
20246TIP3    H182229   2.519   4.667   1.405  0.5746  0.6697  1.2512
20246TIP3    H282230   2.635   4.630   1.316  0.2243  1.6317  0.3791
20247TIP3   OH282231   3.964   3.835   5.529 -0.0143 -0.1163  0.0789
20247TIP3    H182232   3.910   3.859   5.604  1.0943  0.8344  0.6129
20247TIP3    H282233   3.933   3.749   5.503 -2.3956  0.7473 -0.2187
20248TIP3   OH282234   0.463   4.930   0.423 -0.1566  0.6016  0.0022
20248TIP3    H182235   0.406   4.874   0.476  0.9141  1.8515  2.6616
20248TIP3    H282236   0.419   5.014   0.421 -0.6786  0.3442 -2.1083
20249TIP3   OH282237   6.344   6.811   4.164  0.3775 -0.0720  0.6061
20249TIP3    H182238   6.255   6.842   4.145  0.7553  0.5849 -0.1485
20249TIP3    H282239   6.387   6.887   4.204  0.9797  0.0276 -0.2212
20250TIP3   OH282240   0.994   3.054   6.558 -0.2107  0.4585 -0.3350
20250TIP3    H182241   1.083   3.051   6.592 -0.1495 -1.0033 -0.5826
20250TIP3    H282242   0.968   2.962   6.549 -2.7914  0.7775  2.4196
20251TIP3   OH282243   3.369   6.798   0.580  0.1269  0.1011 -0.1725
20251TIP3    H182244   3.376   6.772   0.489  0.0281  0.1293 -0.1872
20251TIP3    H282245   3.299   6.744   0.616  0.7192 -0.5059  0.0943
20252TIP3   OH282246   4.476   1.081   0.103 -0.0440  0.5344  0.4677
20252TIP3    H182247   4.440   1.164   0.071  0.8949  1.0232  0.6240
20252TIP3    H282248   4.543   1.107   0.167  1.1928 -0.2811 -0.4429
20253TIP3   OH282249   1.698   3.489  12.030  0.6157  0.3984  0.3853
20253TIP3    H182250   1.672   3.480  11.938 -0.7701 -0.4366  0.8210
20253TIP3    H282251   1.634   3.551  12.066  0.2064 -0.4403  1.1232
20254TIP3   OH282252   1.598   1.409   2.623 -0.5945 -0.0973  0.2772
20254TIP3    H182253   1.635   1.472   2.686  0.0059 -0.8124  0.6548
20254TIP3    H282254   1.512   1.446   2.601 -0.7018  0.3205  1.2964
20255TIP3   OH282255   4.812   6.732  17.116  0.2259  0.0218  0.1029
20255TIP3    H182256   4.757   6.708  17.190  0.5658 -1.3276 -0.0540
20255TIP3    H282257   4.752   6.767  17.051 -0.0295  1.6137  1.1486
20256TIP3   OH282258   0.964   3.604  16.633  0.5738 -0.1854  0.0289
20256TIP3    H182259   1.028   3.672  16.614  0.1537  0.1308 -0.2887
20256TIP3    H282260   0.879   3.648  16.623  0.3108 -0.4378  1.0559
20257TIP3   OH282261   3.559   4.443   0.158  0.3678 -0.0238 -0.6092
20257TIP3    H182262   3.606   4.483   0.231 -1.1104 -0.7303  0.7856
20257TIP3    H282263   3.554   4.512   0.092  1.3122  0.7835  0.1419
20258TIP3   OH282264   0.384   6.299   3.356 -0.0988  0.0191 -0.3191
20258TIP3    H182265   0.478   6.291   3.341  0.3916  3.4825 -0.0429
20258TIP3    H282266   0.375   6.307   3.451 -0.3161  1.8343 -0.4402
20259TIP3   OH282267   0.171   5.154   3.435 -0.4854  0.0598  0.2388
20259TIP3    H182268   0.227   5.081   3.460 -1.9385 -1.9128 -1.9417
20259TIP3    H282269   0.113   5.119   3.368 -1.0907  3.3060 -1.1172
20260TIP3   OH282270   6.366   4.337  12.269  0.1252  0.0897 -0.3867
20260TIP3    H182271   6.278   4.312  12.296 -0.0110  1.5198  0.5827
20260TIP3    H282272   6.424   4.288  12.328 -0.0215 -0.4826 -0.7098
20261TIP3   OH282273   5.605   4.787   5.100 -0.0984 -0.8641 -0.7248
20261TIP3    H182274   5.694   4.821   5.093 -0.6395  0.3654 -2.2006
20261TIP3    H282275   5.551   4.853   5.057 -1.5670 -2.2018 -1.0212
20262TIP3   OH282276   5.705   2.510   1.174 -0.0683 -0.0205  0.2939
20262TIP3    H182277   5.704   2.583   1.236 -0.4053 -0.6396  1.0364
20262TIP3    H282278   5.797   2.484   1.169  0.1583  0.8698 -0.4943
20263TIP3   OH282279   0.319   3.162  11.064 -0.3244 -0.6309 -0.0309
20263TIP3    H182280   0.299   3.253  11.039 -0.0414 -0.5679 -0.0274
20263TIP3    H282281   0.293   3.156  11.156  0.6398 -0.2537  0.2730
20264TIP3   OH282282   0.449   5.693  11.241 -0.1146 -0.1525  0.6728
20264TIP3    H182283   0.466   5.775  11.287 -0.6425 -0.4884  1.4807
20264TIP3    H282284   0.360   5.668  11.268 -0.9843  0.2927 -1.5146
20265TIP3   OH282285   3.874   6.545   5.496 -0.2669 -0.4817  0.4020
20265TIP3    H182286   3.956   6.531   5.450 -0.2850  0.8850 -0.0844
20265TIP3    H282287   3.827   6.462   5.487  1.4908 -1.7081  1.6805
20266TIP3   OH282288   0.460   0.031   0.890 -0.5446  0.1480  0.4643
20266TIP3    H182289   0.528   0.025   0.957 -1.3695  2.8499  1.6620
20266TIP3    H282290   0.508   0.028   0.807  0.7940 -0.2710  1.2202
20267TIP3   OH282291   6.464   2.845  10.755 -0.0384 -0.0905 -0.6616
20267TIP3    H182292   6.484   2.895  10.676  0.7470  0.3770 -0.1764
20267TIP3    H282293   6.422   2.765  10.722 -1.9869  1.1676 -1.4025
20268TIP3   OH282294   4.663   4.690   2.816  0.1684 -0.2905  0.3976
20268TIP3    H182295   4.755   4.717   2.818 -0.1093  0.8194  3.7378
20268TIP3    H282296   4.664   4.607   2.769  2.6005  0.4823 -1.1050
20269LIG     O182297   1.859   5.517  16.145 -0.6952 -0.2805  0.1806
20269LIG     O282298   1.652   5.613  16.540 -0.3746  0.6365  0.0556
20269LIG     N182299   1.629   5.403  16.470 -0.0074  0.3570 -0.1722
20269LIG     N282300   1.747   5.221  16.194 -0.4414  0.2531  0.0530
20269LIG     N382301   1.741   5.568  16.332  0.0233  0.4088 -0.2501
20269LIG     N482302   1.622   5.181  16.379  0.3591  0.0266 -0.5811
20269LIG     C182303   1.738   5.338  16.260  0.3951 -0.5221 -0.9820
20269LIG     C282304   1.664   5.309  16.377  0.4895 -0.0762  0.1180
20269LIG     C382305   1.786   5.470  16.235  0.2776  0.4384  0.2461
20269LIG     C482306   1.673   5.531  16.450  0.5068 -0.3848 -0.4070
20269LIG     C582307   1.675   5.123  16.271 -0.6223  0.0211  0.1015
20269LIG     C682308   1.542   5.381  16.595 -0.6345 -0.7435  0.1060
20269LIG     C782309   1.817   5.198  16.067 -0.3296  0.2115 -0.1532
20269LIG     C882310   1.786   5.704  16.318  0.6860  0.1252 -0.5840
20269LIG     H182311   1.664   5.019  16.240  0.6245  0.3067 -1.4483
20269LIG     H282312   1.439   5.422  16.586 -0.0259  1.8601  3.3390
20269LIG     H382313   1.583   5.403  16.695 -0.9064 -0.9823  0.2715
20269LIG     H482314   1.517   5.274  16.610 -1.7257 -0.4217  0.6429
20269LIG     H582315   1.751   5.139  16.000  0.8509 -1.2128 -0.1186
20269LIG     H682316   1.904   5.133  16.092 -0.2177  0.6304  0.5747
20269LIG     H782317   1.858   5.288  16.016  0.9254  1.6091  3.0938
20269LIG     H882318   1.890   5.708  16.358  0.0660 -1.1624  1.3351
20269LIG     H982319   1.725   5.780  16.372 -0.3573  0.0761 -1.6644
20269LIG    H1082320   1.789   5.730  16.210 -0.0740 -0.5674 -0.7829
   6.83872   6.83872  17.16664
